LAMMPS data file via write_data, version 23 Jun 2022, timestep = 1000000

1296 atoms
2 atom types

0.10337793522511163 31.01662106477572 xlo xhi
0.04520186375457769 21.42343213624244 ylo yhi
0.14305139226721053 16.25112160773149 zlo zhi
-8.95332979706966 -9.256195522218409 -13.830651719639874 xy xz yz

Masses

1 1.008
2 15.999

Atoms # full

1 0 1 0 -0.5501400354916113 -3.4831153955288863 4.711398923417039 0 0 0
2 0 2 0 -0.3701672025841094 -3.03392380003716 5.531015856676079 0 0 0
3 0 2 0 -1.4231254948488656 -3.2193436911599904 4.467635606870854 0 0 0
4 0 1 0 0.5083964228330734 3.6917749652977006 1.696768955804528 0 0 0
5 0 2 0 -0.10340818180344336 3.1574781894104857 2.238874205111356 0 0 0
6 0 2 0 -0.043167756162296844 3.9706028439263945 0.9195715835129522 0 0 0
7 0 1 0 6.035686449538904 1.9530183667887158 0.21294544564505524 0 0 0
8 0 2 0 6.019264328880866 0.9608412885849675 0.24040478780813906 0 0 0
9 0 2 0 6.0747680534784605 2.290913227484711 1.1125491562928658 0 0 0
10 0 1 0 -1.245765745584073 -0.176217782112996 4.155822107184634 0 0 0
11 0 2 0 -1.9288872506792476 -0.8484987391278866 4.0163140810850155 0 0 0
12 0 2 0 -0.4518118316901454 -0.6592959718663769 4.047808173829066 0 0 0
13 0 1 0 27.891377433848728 4.948843177454597 1.1361982605654086 -1 0 0
14 0 2 0 -2.5518957977301557 5.15407489345263 1.928745622856028 0 0 0
15 0 2 0 28.52803951680311 5.218251699757669 0.42063954794554625 -1 0 0
16 0 1 0 3.5722196227055067 0.351055452924365 2.390936490178889 0 0 0
17 0 2 0 3.5371902692464916 1.2807252549572088 2.073064929124624 0 0 0
18 0 2 0 4.336713969245923 -0.02964919929017662 1.919379027350559 0 0 0
19 0 1 0 2.249196609247193 6.331970196603239 1.0688551596515579 0 0 0
20 0 2 0 3.0424685301660106 6.076403084078982 1.5314217332566913 0 0 0
21 0 2 0 2.148520775472753 5.730976240272558 0.33945748031722456 0 0 0
22 0 1 0 1.5689238548862159 -1.0587226150947942 3.4496898302226184 0 0 0
23 0 2 0 2.1753954267012547 -0.5230361548820981 2.9477821848113903 0 0 0
24 0 2 0 2.0828746982189603 -1.636750536144701 4.027855399397971 0 0 0
25 0 1 0 -4.018297006620871 0.8419387920130896 5.238089875106286 0 0 0
26 0 2 0 26.5913971635861 0.49364145612825405 4.365961645194114 -1 0 0
27 0 2 0 -4.00044683985235 1.8093117846577371 5.1230398876845 0 0 0
28 0 1 0 2.9968778100190088 2.891583340920083 1.2533993881859458 0 0 0
29 0 2 0 3.49262720904393 3.7379551858533575 1.4528152378759054 0 0 0
30 0 2 0 2.02215269116786 3.0962945859417554 1.4493409160632675 0 0 0
31 0 1 0 4.881148198740327 -2.3285244549750708 4.010842724241467 0 0 0
32 0 2 0 4.3375541120246 -2.2610911904915847 4.810011061497657 0 0 0
33 0 2 0 4.162756643069988 -2.3125811943410834 3.3637434613318966 0 0 0
34 0 1 0 -1.6070262457641449 2.4510422483791987 3.1305560686605096 0 0 0
35 0 2 0 -1.6066191597605484 1.5078049830597675 3.447901638298017 0 0 0
36 0 2 0 -2.4254036939804875 2.8395087484667925 3.4334168803767304 0 0 0
37 0 1 0 -1.5888944517223522 17.63170399113349 4.4922472762757675 0 -1 0
38 0 2 0 7.675824227010777 -3.123416221846501 5.1597378558712315 0 0 0
39 0 2 0 6.488481665659238 -3.43780915165079 4.2051168544672635 0 0 0
40 0 1 0 8.241849510484416 4.029672127605277 1.8791807651568464 0 0 0
41 0 2 0 7.382578795258619 3.862050236027411 2.355258227358285 0 0 0
42 0 2 0 7.9119731337320145 4.550518407171068 1.0782758567768065 0 0 0
43 0 1 0 13.731222243853322 1.5314140105864897 0.35287365906112067 0 0 0
44 0 2 0 13.5382741784707 0.6122559951929191 0.5475122163805523 0 0 0
45 0 2 0 13.951508979066407 1.8732377962524693 1.2409670375642436 0 0 0
46 0 1 0 6.422162885853633 0.09836839998491165 4.2838897273242145 0 0 0
47 0 2 0 5.833025174859446 -0.6845115069055518 4.344380979066312 0 0 0
48 0 2 0 7.31588044610381 -0.27683160696697895 4.139260519660498 0 0 0
49 0 1 0 4.705859795275826 5.09198062665471 1.6823616191927016 0 0 0
50 0 2 0 5.273752776379156 5.267732861163774 2.510725347021612 0 0 0
51 0 2 0 5.363409654810778 5.117421273518895 0.9492156240298727 0 0 0
52 0 1 0 11.277004998819569 0.03830322958886834 2.7064199667613096 0 0 0
53 0 2 0 11.163598019866075 0.9550235644438634 2.3420988064351578 0 0 0
54 0 2 0 11.543737346592529 -0.6302454938452463 1.9763381439861023 0 0 0
55 0 1 0 10.237906320647548 6.234896388257093 1.374196462407983 0 0 0
56 0 2 0 11.101051452444118 5.9166299806724485 1.6068964624102409 0 0 0
57 0 2 0 10.096953596132927 5.670393466849816 0.5852960742708082 0 0 0
58 0 1 0 8.854239184884728 -0.9080839775524816 3.6275332169090513 0 0 0
59 0 2 0 9.65932560383829 -0.5457952507975978 3.2077622180404175 0 0 0
60 0 2 0 9.280383005139317 -1.5670083162246018 4.184731090100072 0 0 0
61 0 1 0 3.82286361914523 0.7034967415570064 5.266507376064622 0 0 0
62 0 2 0 3.6865501843728974 0.5375194997886203 4.3316288640778575 0 0 0
63 0 2 0 4.052869607942253 1.6045565244749014 5.399581436847943 0 0 0
64 0 1 0 10.924062626040751 2.4292511621179136 1.4129749844529156 0 0 0
65 0 2 0 11.63767830064561 3.1343044019238313 1.4422039330142848 0 0 0
66 0 2 0 10.119385644490656 2.840085665044568 1.6802569475369096 0 0 0
67 0 1 0 13.005062736596638 -2.2770066398748936 3.8659328684743173 0 0 0
68 0 2 0 12.315922869828219 -2.232666906587191 4.592415721208178 0 0 0
69 0 2 0 12.397024510714452 -2.1505446346106614 3.098485647063418 0 0 0
70 0 1 0 6.315959835790163 2.5779036735421976 3.1364793220974985 0 0 0
71 0 2 0 6.230867607128403 1.651413517750854 3.567237488461532 0 0 0
72 0 2 0 5.449746963604664 2.926849021784116 3.492998391010988 0 0 0
73 0 1 0 6.098806677200988 17.43736520622803 4.612443450031912 0 -1 0
74 0 2 0 14.952363295969084 -3.2572209019541702 5.300563022318166 0 0 0
75 0 2 0 5.41396691332614 17.794755294584974 4.006157914711864 0 -1 0
76 0 1 0 15.94924394653819 4.111272411389196 2.064328473381284 0 0 0
77 0 2 0 15.234588790329855 3.4840020222850656 2.278825974686955 0 0 0
78 0 2 0 15.674387616063015 4.669679516167669 1.297594026435677 0 0 0
79 0 1 0 21.324499656586596 1.983235783280842 0.3611418129637213 0 0 0
80 0 2 0 21.030468493819075 1.0106235099551868 0.24057915582136594 0 0 0
81 0 2 0 21.3751662708277 2.169551099520178 1.311050150663165 0 0 0
82 0 1 0 14.546907692932878 0.008663258470556379 4.125625960792669 0 0 0
83 0 2 0 14.140716597593578 -0.8749933009110347 4.055620340154801 0 0 0
84 0 2 0 15.475046415775402 -0.16894816746524466 4.0191258682060855 0 0 0
85 0 1 0 12.614443312464125 4.8912221810920125 1.8784400807300452 0 0 0
86 0 2 0 13.128406447004505 5.088894664032484 2.6386750389175764 0 0 0
87 0 2 0 13.230121164429786 5.075332786222905 1.2302582490462695 0 0 0
88 0 1 0 18.877183305351345 0.12098797451176724 2.515948020966104 0 0 0
89 0 2 0 18.825497335595653 1.082190542673711 2.4011576816821774 0 0 0
90 0 2 0 19.55718653059388 -0.2715736458251161 1.9060770662773703 0 0 0
91 0 1 0 17.995900173730533 6.45275680747463 1.284722897376391 0 0 0
92 0 2 0 18.90052418472203 6.180249342880472 1.5690422623138787 0 0 0
93 0 2 0 17.814907914066854 5.731226603403859 0.6097370324953948 0 0 0
94 0 1 0 16.86802084985263 -1.4484777162459679 3.8058320148384936 0 0 0
95 0 2 0 17.6615852476736 -1.0903847253231667 3.395022982118593 0 0 0
96 0 2 0 17.20941173800048 -1.7622080377176026 4.672218353816065 0 0 0
97 0 1 0 11.373662101563347 0.8790814714847652 5.418093585448004 0 0 0
98 0 2 0 11.439330139956521 0.7205622136848495 4.454422780535971 0 0 0
99 0 2 0 11.708701261523963 1.744821707861612 5.556995198201103 0 0 0
100 0 1 0 18.3225246404159 2.821519246093616 1.8121550368932067 0 0 0
101 0 2 0 18.905934770174156 3.5656947433922 1.714449281592394 0 0 0
102 0 2 0 17.463878444953547 3.263720065250028 1.85734952682845 0 0 0
103 0 1 0 20.336864567456306 -2.465090395578351 4.015819952608462 0 0 0
104 0 2 0 19.721737586908816 -2.5691012350459657 4.779253817671982 0 0 0
105 0 2 0 19.776569755426628 -2.5695073841498535 3.2345894162079065 0 0 0
106 0 1 0 13.937402217958669 2.4246272500845873 3.0317349202843102 0 0 0
107 0 2 0 13.904376561834358 1.6109494645992641 3.5933133565892215 0 0 0
108 0 2 0 13.341404182741158 3.010224809353606 3.5169738169307325 0 0 0
109 0 1 0 22.709994579718064 -3.5232985560243453 4.665794945904315 0 0 0
110 0 2 0 23.023947042431068 -2.9859114298616225 5.420548377898927 0 0 0
111 0 2 0 21.85046465044318 -3.112227555716106 4.506742725911415 0 0 0
112 0 1 0 23.452061458781717 3.9733725846436334 1.6252695299837063 0 0 0
113 0 2 0 22.94409954406038 3.318039808681598 2.106330420586567 0 0 0
114 0 2 0 22.883135438144972 4.441201145236263 0.9414115006504968 0 0 0
115 0 1 0 28.78521005202881 1.635836980929216 0.47044387700396234 0 0 0
116 0 2 0 28.658540491603645 0.6698577481556011 0.6162097540530895 0 0 0
117 0 2 0 28.825788059381185 2.119010250213006 1.3395697555838946 0 0 0
118 0 1 0 21.977543889166498 -0.1667569525400041 4.0481674284855105 0 0 0
119 0 2 0 21.283574230716972 -0.8659173930944033 3.9218540587775883 0 0 0
120 0 2 0 22.794911702935252 -0.6504689930232992 4.131485946342882 0 0 0
121 0 1 0 20.010789642220388 4.946362052150839 1.6290697714058333 0 0 0
122 0 2 0 20.587176734114756 5.239007541225234 2.353209304181401 0 0 0
123 0 2 0 20.624140667622186 5.0322352148537295 0.9134057380472683 0 0 0
124 0 1 0 26.296730782477603 0.12910855802795185 2.575966980246511 0 0 0
125 0 2 0 26.276596532710087 1.053607622286098 2.220202805138494 0 0 0
126 0 2 0 26.855427819605648 -0.31092316965588296 1.884754184681996 0 0 0
127 0 1 0 25.60118031518433 6.552526745593586 0.9424549259227585 0 0 0
128 0 2 0 26.411192508742904 6.159300884017136 1.2212508275683676 0 0 0
129 0 2 0 25.287041480598607 5.957584422057444 0.24878174042335044 0 0 0
130 0 1 0 24.58740829530062 -1.4525558011029238 4.026429508070235 0 0 0
131 0 2 0 25.218094208795982 -0.8369867871204968 3.523918775134589 0 0 0
132 0 2 0 25.084353375100576 -1.7599229380199803 4.778471648317267 0 0 0
133 0 1 0 19.31673148505545 0.6606499009762148 5.237118568214918 0 0 0
134 0 2 0 19.182203709243392 0.3634346175951486 4.3766052381085805 0 0 0
135 0 2 0 19.67638005758051 1.5345186766103005 5.210705927329048 0 0 0
136 0 1 0 25.96002449291674 2.7428557553047126 1.3523262444127169 0 0 0
137 0 2 0 26.623693256217045 3.4480040734854347 1.2401262477858823 0 0 0
138 0 2 0 25.161400301800857 3.260584742024359 1.4441148112912172 0 0 0
139 0 1 0 27.962315070705095 -2.182156273679637 4.0224508602717055 0 0 0
140 0 2 0 27.39121421071323 -2.2890300103591095 4.815022004487788 0 0 0
141 0 2 0 27.383564954437958 -2.3833234636649405 3.2012053388519206 0 0 0
142 0 1 0 21.748049525306026 2.5446682437159773 3.0751626380804367 0 0 0
143 0 2 0 21.776705034328444 1.584587162256979 3.2860849981031817 0 0 0
144 0 2 0 20.949379255355662 2.992882951910004 3.3463389001880617 0 0 0
145 0 1 0 -3.686933901920679 3.352213375766731 4.4880318139183455 0 0 0
146 0 2 0 -3.4907008967582405 3.95454040742238 5.223666380847912 0 0 0
147 0 2 0 -4.472883776923371 3.7529144999803132 4.044982688744054 0 0 0
148 0 1 0 -2.457596286831578 11.123185983711549 1.9215522526577236 0 0 0
149 0 2 0 -3.145319459940004 10.564959746565762 2.354422510429684 0 0 0
150 0 2 0 -2.9963078943227814 11.707188822210036 1.3602130989077013 0 0 0
151 0 1 0 2.8791924189132563 8.765050608232261 0.24171580075429275 0 0 0
152 0 2 0 2.6732109337384973 7.838261864437215 0.4742902575928928 0 0 0
153 0 2 0 2.9943605657074386 9.211376984810155 1.1014267618460005 0 0 0
154 0 1 0 -4.263107881399607 6.976123796665895 3.972872762770401 0 0 0
155 0 2 0 -4.936894134205378 6.286110694074922 3.9789900881481253 0 0 0
156 0 2 0 -3.3623026052287877 6.649858478401757 3.872457590567781 0 0 0
157 0 1 0 -5.944501580339669 12.078115607380251 1.7491780561154417 0 0 0
158 0 2 0 -5.430418904295 12.406309617193138 2.564935135948555 0 0 0
159 0 2 0 -5.425994039571714 12.34342634244357 0.9392878723278636 0 0 0
160 0 1 0 0.39188515461485673 7.566948185510025 2.9336814976676706 0 0 0
161 0 2 0 0.07088643607374023 8.400595263429587 2.5230654188344275 0 0 0
162 0 2 0 0.9003996715130138 7.1582626332300165 2.254600648908078 0 0 0
163 0 1 0 -0.6823725136881975 13.402793365137345 1.0532894578386176 0 0 0
164 0 2 0 0.15874057424101484 13.21781450534865 1.467562016564856 0 0 0
165 0 2 0 -0.7849180386875596 12.694375684521287 0.37125735515714375 0 0 0
166 0 1 0 -1.8109216150591156 5.769201131775047 3.8138028515406877 0 0 0
167 0 2 0 -1.3370592253377862 6.588814242942473 3.7140429254866754 0 0 0
168 0 2 0 -1.4054401671278876 5.243489769878439 4.510364347424348 0 0 0
169 0 1 0 -6.831087298425167 7.714565701848901 5.220099170368666 0 0 0
170 0 2 0 23.703212882190957 7.412826710419795 4.376224195964105 -1 0 0
171 0 2 0 -6.682400429437621 8.638106257579022 5.022151202475519 0 0 0
172 0 1 0 -0.22599437386930377 9.779926616671311 1.2593162357158338 0 0 0
173 0 2 0 0.4734484794491398 10.446918727705764 1.3881691840854224 0 0 0
174 0 2 0 -1.0532902749005577 10.240485961684392 1.4298770955221882 0 0 0
175 0 1 0 1.838080600387416 4.784648682603937 4.001483797940038 0 0 0
176 0 2 0 1.2078008753127891 4.444451801606405 4.628573081952131 0 0 0
177 0 2 0 1.4156035200385215 4.64834626800142 3.1277958285685528 0 0 0
178 0 1 0 -4.489098188719428 9.613512114473863 3.0526463563709068 0 0 0
179 0 2 0 -4.3343767959507495 8.745453433504064 3.4992310525320662 0 0 0
180 0 2 0 -5.224385330632343 9.980396572110436 3.5966155176860575 0 0 0
181 0 1 0 4.118634721293436 3.459531828999649 4.694525944870337 0 0 0
182 0 2 0 4.112284165321213 4.132467816667667 5.400688323438557 0 0 0
183 0 2 0 3.2821515487831165 3.597888686229304 4.2836914181981465 0 0 0
184 0 1 0 5.210523641243629 11.274383676554322 1.7622617800118505 0 0 0
185 0 2 0 4.695622576830837 10.57086784985956 2.1746318803832763 0 0 0
186 0 2 0 4.658699218256096 11.645025262159544 0.9925750153238195 0 0 0
187 0 1 0 10.567511559953221 8.766374947761035 0.5123189907369914 0 0 0
188 0 2 0 10.525656200657002 7.794460700702636 0.631819012899115 0 0 0
189 0 2 0 10.652763877801442 9.06689961755324 1.4022411935826762 0 0 0
190 0 1 0 3.6148961956511156 7.0429913969155145 4.311072407325751 0 0 0
191 0 2 0 2.952176830272738 6.363555916239707 4.262249994535902 0 0 0
192 0 2 0 4.405808131678165 6.546302333592348 4.248892665395943 0 0 0
193 0 1 0 1.6803453186891542 12.131630043271057 1.2116974687960065 0 0 0
194 0 2 0 2.1748609245883346 12.342567386064571 2.0094549722580624 0 0 0
195 0 2 0 2.3257335783894795 12.408404921884538 0.5139196672154926 0 0 0
196 0 1 0 8.075752698999997 7.486266008886936 2.752013906333445 0 0 0
197 0 2 0 7.94318475900999 8.335407167377783 2.233904176938904 0 0 0
198 0 2 0 8.901395715825513 7.125541991858911 2.3117683514207954 0 0 0
199 0 1 0 7.410744984598716 13.59531104984006 0.7023241851376134 0 0 0
200 0 2 0 8.06207759178277 13.2573328046336 1.3280324944848494 0 0 0
201 0 2 0 -2.0487091590997695 -0.9101369317818371 16.150080539058333 0 0 -1
202 0 1 0 6.041571523112282 5.851604597850653 3.9322322750446226 0 0 0
203 0 2 0 6.56194337073701 6.47668407100009 3.4588561246066876 0 0 0
204 0 2 0 6.633149257312169 5.400318867509247 4.5701643825642515 0 0 0
205 0 1 0 0.6781797192471122 7.758002767866764 5.625801153236044 0 0 0
206 0 2 0 0.590456032106029 7.569582517502344 4.678811579994005 0 0 0
207 0 2 0 0.6635503092822415 8.73551694656513 5.5556116031009095 0 0 0
208 0 1 0 7.719624295313924 9.932141249625957 1.3755213135018358 0 0 0
209 0 2 0 8.34042004111903 10.570771527497062 1.8089905524788226 0 0 0
210 0 2 0 6.767852835146596 10.184287775991155 1.4862258650672082 0 0 0
211 0 1 0 9.987909947888916 4.828429447152661 4.079970653671657 0 0 0
212 0 2 0 9.208057292399067 4.86948165633757 4.613468954026043 0 0 0
213 0 2 0 9.668717266124535 4.619764915970295 3.203370778373685 0 0 0
214 0 1 0 3.250636017000519 9.554416678012757 2.8913377138763128 0 0 0
215 0 2 0 3.3899600275083337 8.74694740108459 3.450407310246307 0 0 0
216 0 2 0 2.5247146443992246 10.086412034109422 3.244500843226887 0 0 0
217 0 1 0 12.366518301376932 3.4061158576191923 4.774381368226055 0 0 0
218 0 2 0 12.64034451010729 4.01459440505693 5.534763571987249 0 0 0
219 0 2 0 11.437632686572726 3.667143115468102 4.659661518176166 0 0 0
220 0 1 0 13.086651322496994 11.061150082936178 2.2766361945670033 0 0 0
221 0 2 0 12.391159190646334 10.520304999171657 2.595634964101367 0 0 0
222 0 2 0 12.696690192148862 11.644179385406693 1.6208754034609956 0 0 0
223 0 1 0 9.16096591212875 -4.918288587020973 16.106657977136024 0 0 -1
224 0 2 0 8.808327239219892 -5.860490947707365 16.210854585339852 0 0 -1
225 0 2 0 18.319710852078327 9.149765423185041 0.9384692345636022 0 0 0
226 0 1 0 11.483990509662366 7.029152835759955 4.580255587559849 0 0 0
227 0 2 0 10.92906257799452 6.241134827167544 4.230728324298144 0 0 0
228 0 2 0 12.434266489029145 6.965940403790583 4.315571487885935 0 0 0
229 0 1 0 9.50100894959098 11.957749879233976 1.710783807098933 0 0 0
230 0 2 0 9.881257971978343 12.200499172103378 2.5456281221907338 0 0 0
231 0 2 0 10.163862047201674 12.232192454405107 1.0711959994898974 0 0 0
232 0 1 0 15.958841714486542 7.5684628072395235 2.754459410718036 0 0 0
233 0 2 0 16.121019637447137 8.47727719527313 2.5137293793847095 0 0 0
234 0 2 0 16.647087203026093 7.0498502871237 2.2546331659775714 0 0 0
235 0 1 0 14.824966225579644 13.522938723868196 0.8596300682801158 0 0 0
236 0 2 0 15.763568149510315 13.334433944532249 1.1457543957476162 0 0 0
237 0 2 0 14.608362088053463 12.814643018354312 0.24579067222124795 0 0 0
238 0 1 0 14.052388773188703 5.975806917203178 4.0128207999584316 0 0 0
239 0 2 0 14.774678740553208 6.330716177601712 3.429171643556689 0 0 0
240 0 2 0 14.589926764958635 5.5334912100744615 4.696107128789682 0 0 0
241 0 1 0 8.52170114656167 7.880370001697519 5.526182832620842 0 0 0
242 0 2 0 8.68299827725043 7.6298710936595056 4.576831384039452 0 0 0
243 0 2 0 8.882969369156136 8.769804759962753 5.587055271356634 0 0 0
244 0 1 0 15.732622163140826 10.100149557317682 1.6317060114813726 0 0 0
245 0 2 0 16.361661102631803 10.854140166768206 1.5995050994687603 0 0 0
246 0 2 0 14.850699144257199 10.386025698377448 1.762353513209058 0 0 0
247 0 1 0 17.656202738212286 4.978220623170522 4.322885259884091 0 0 0
248 0 2 0 17.132019206527826 4.922182618068266 5.100714450159213 0 0 0
249 0 2 0 17.13681896404462 4.754539952452882 3.568669519379668 0 0 0
250 0 1 0 10.848866507730467 9.504702980116358 3.203985403221468 0 0 0
251 0 2 0 11.008499812488163 8.63086838891405 3.58661532181643 0 0 0
252 0 2 0 10.14893049700343 9.79748796175726 3.8429048058123088 0 0 0
253 0 1 0 19.827312820149082 3.4237194054653366 4.706720747114929 0 0 0
254 0 2 0 20.271737595138195 4.0094357310179625 5.336617941934535 0 0 0
255 0 2 0 19.05746203387816 3.904026000716737 4.298220717541166 0 0 0
256 0 1 0 20.80460722660533 10.873618468889145 1.870044805080519 0 0 0
257 0 2 0 20.129026518431182 10.203741340764113 2.0467390744929235 0 0 0
258 0 2 0 20.34619341552117 11.543578292084696 1.2340211795507459 0 0 0
259 0 1 0 26.017922454699924 9.211764221222289 0.17369224862254398 0 0 0
260 0 2 0 25.735714530777756 8.27630672594991 0.18206923700089098 0 0 0
261 0 2 0 26.005553137021078 9.457357453254907 1.147585415628229 0 0 0
262 0 1 0 19.327853571232954 7.292332518998516 4.217887581773771 0 0 0
263 0 2 0 18.695876178881974 6.550420810006791 4.17559347980154 0 0 0
264 0 2 0 20.181715566042797 6.759330357377584 4.252871603209441 0 0 0
265 0 1 0 17.261946636411153 12.44855354384066 1.3730534397539507 0 0 0
266 0 2 0 17.741866981317905 12.745355553707281 2.229221500734721 0 0 0
267 0 2 0 17.998021835821287 12.493272497318832 0.7394377009928124 0 0 0
268 0 1 0 23.526131596185667 7.290427665495123 2.4858667541014308 0 0 0
269 0 2 0 23.52499533218951 8.180615384575422 2.2220232830271764 0 0 0
270 0 2 0 24.2476285398728 6.792853979286582 2.074551969872653 0 0 0
271 0 1 0 22.619919305591964 13.093598388629777 0.8942779646104764 0 0 0
272 0 2 0 23.370809313839505 12.62291728887942 1.3147749325047424 0 0 0
273 0 2 0 22.343521099421228 12.570079932574721 0.16128187559812293 0 0 0
274 0 1 0 21.677352785218645 5.764855692359351 3.860075425860885 0 0 0
275 0 2 0 22.334898709165 6.216693336406186 3.353356780444527 0 0 0
276 0 2 0 22.074670439150516 5.29580259448678 4.586238651952638 0 0 0
277 0 1 0 16.559208612257358 7.854528601067368 5.479094327977786 0 0 0
278 0 2 0 16.278543862318887 7.588875408229503 4.6104489719635495 0 0 0
279 0 2 0 16.710401167311588 8.796999518768839 5.387991224620296 0 0 0
280 0 1 0 23.394053421483903 9.843176331293984 1.5017881639024908 0 0 0
281 0 2 0 24.06038458293378 10.523328998442292 1.4990640673869484 0 0 0
282 0 2 0 22.532663618686342 10.333877691874637 1.5686191934694351 0 0 0
283 0 1 0 24.869807539211852 4.923982232477304 3.878161639418614 0 0 0
284 0 2 0 24.326655497413437 4.707762952537328 4.630129549041405 0 0 0
285 0 2 0 24.333311052919854 4.86832056721933 3.066529908848427 0 0 0
286 0 1 0 18.522297913408426 9.539734524068956 2.8752987265272365 0 0 0
287 0 2 0 18.689845995340555 8.736105847789169 3.4169200401587654 0 0 0
288 0 2 0 18.0186872472727 10.084725437329077 3.479759842863287 0 0 0
289 0 1 0 -6.598441664089004 10.519993630249742 4.631016388635657 0 0 0
290 0 2 0 -6.3302406491421825 11.048346149433225 5.423203536744491 0 0 0
291 0 2 0 -7.3838692514884094 10.968966453079904 4.247095359877559 0 0 0
292 0 1 0 -5.682091953428675 18.062690815950365 1.9215703365540981 0 0 0
293 0 2 0 -6.323389492220304 17.455301799745772 2.339492569764544 0 0 0
294 0 2 0 -6.2686122635587225 18.44097515919308 1.2290018353358099 0 0 0
295 0 1 0 -0.3237768303879386 16.079923997344693 0.4022126589049565 0 0 0
296 0 2 0 -0.41359280535191645 15.116276661046596 0.5267208166724853 0 0 0
297 0 2 0 -0.20846072455719378 16.48527892355061 1.3077712461668223 0 0 0
298 0 1 0 -7.184757625166169 14.208509614641498 4.214046259598303 0 0 0
299 0 2 0 -7.811744131984838 13.441564119563388 3.990811710248604 0 0 0
300 0 2 0 -6.25848379605433 14.038606284252852 4.038831411458462 0 0 0
301 0 1 0 21.839543787482302 19.333435550674892 1.3113116313065878 -1 0 0
302 0 2 0 -8.504226942552616 19.445438084705497 2.1258855899844677 0 0 0
303 0 2 0 -8.406362901436545 19.41146527121641 0.6184144708191583 0 0 0
304 0 1 0 -2.5405515948299526 14.647858270362725 2.738899843382665 0 0 0
305 0 2 0 -2.77982028318721 15.518280509038325 2.313272659014904 0 0 0
306 0 2 0 -1.7669545220243157 14.267321119999021 2.276615713976166 0 0 0
307 0 1 0 -3.514322217580146 20.62833439005828 0.8758152402062312 0 0 0
308 0 2 0 -2.679936312783308 20.232445356672475 1.1378048399312695 0 0 0
309 0 2 0 -3.8431486903248633 19.985873147024293 0.21447126385062598 0 0 0
310 0 1 0 -4.507884754989163 13.181743034275295 4.02176221519931 0 0 0
311 0 2 0 -3.756705101839416 13.686340626019785 3.7300975935236313 0 0 0
312 0 2 0 -4.267484403157489 12.669136705328288 4.791357170778466 0 0 0
313 0 1 0 -10.188035436038065 14.897459162307843 5.453937038219012 0 0 0
314 0 2 0 20.67426176352173 14.772753525617242 4.508040974029729 -1 0 0
315 0 2 0 -9.922937731428977 15.797051760232836 5.618539911722043 0 0 0
316 0 1 0 -3.0326456958782195 17.015948650336465 1.6692106523498642 0 0 0
317 0 2 0 -2.395059082648008 17.791471177668395 1.793008963201221 0 0 0
318 0 2 0 -3.9311712442445543 17.43125390937811 1.7573098747706999 0 0 0
319 0 1 0 -0.8382159952263706 11.98895723593606 3.954311342964826 0 0 0
320 0 2 0 -1.5405875158261808 11.74417647844723 4.546896922283826 0 0 0
321 0 2 0 -1.3212480969344456 11.831082772527541 3.124192696614797 0 0 0
322 0 1 0 -7.702862273913027 16.510331744058416 2.9423474922188495 0 0 0
323 0 2 0 -7.474199294675363 15.740186951825697 3.4285118180354117 0 0 0
324 0 2 0 -8.379417605328435 16.97541126151951 3.4439509052259116 0 0 0
325 0 1 0 1.1941433580453338 10.410874526225932 4.785510679661307 0 0 0
326 0 2 0 1.6029410680275724 10.969279176555979 5.420786813706932 0 0 0
327 0 2 0 0.34112667402987995 10.819654058698685 4.566213614326563 0 0 0
328 0 1 0 2.1564119147608065 18.45074960969391 2.0119726195565644 0 0 0
329 0 2 0 1.578307021893278 17.765938411979096 2.471731318689634 0 0 0
330 0 2 0 1.5860157669705437 18.785030792184923 1.2695295137006786 0 0 0
331 0 1 0 7.66987079274318 16.166296211190073 0.40190491617876195 0 0 0
332 0 2 0 7.554136374649561 15.206556412474702 0.2465813207402342 0 0 0
333 0 2 0 7.570599538224358 16.32602662378986 1.3220363500088588 0 0 0
334 0 1 0 0.9490917913638297 14.106533036759888 4.230246060637957 0 0 0
335 0 2 0 0.22821060096473067 13.447336993819372 4.262201609235551 0 0 0
336 0 2 0 1.7403728761724482 13.633242776794022 4.014632307998811 0 0 0
337 0 1 0 -1.3706378821652787 19.248531295642483 1.8382906526727307 0 0 0
338 0 2 0 8.030051299016076 -1.558173588173711 2.5120262197805117 0 1 0
339 0 2 0 -0.7033391897018593 19.097374225818008 1.13106108775433 0 0 0
340 0 1 0 5.455555689709686 14.484679481714428 2.5473050925644407 0 0 0
341 0 2 0 5.035962788504447 15.325804815126105 2.400602149115342 0 0 0
342 0 2 0 5.749741498817767 14.183061399049894 1.7092379258938637 0 0 0
343 0 1 0 4.378555763986467 20.249538853272 0.9975302626210656 0 0 0
344 0 2 0 5.143786967369044 19.94867267441685 1.5442934993730444 0 0 0
345 0 2 0 4.2444465824741755 19.63243476538499 0.28203806494338857 0 0 0
346 0 1 0 3.25809693165923 13.058519050612187 3.508017738298269 0 0 0
347 0 2 0 4.033884888665599 13.387095331945135 2.997272051586442 0 0 0
348 0 2 0 3.657313683861607 12.506441597157702 4.20624354539447 0 0 0
349 0 1 0 -1.9351641180891557 14.876188283419323 5.219054906712592 0 0 0
350 0 2 0 -2.0211490052149395 14.503014929903243 4.3402791992377265 0 0 0
351 0 2 0 -1.8621457237833576 15.859042911476386 5.071381805359497 0 0 0
352 0 1 0 4.387262820613532 16.968515795899833 1.5601591332772098 0 0 0
353 0 2 0 5.139111036194786 17.525145973777743 1.4359832653716413 0 0 0
354 0 2 0 3.5847292855637045 17.53401556621165 1.6385821925421669 0 0 0
355 0 1 0 6.818147075746801 11.768626194492226 4.1938879971465814 0 0 0
356 0 2 0 6.114311948349885 11.636433965351536 4.827051642195004 0 0 0
357 0 2 0 6.386741254680838 11.844626653695721 3.3233103914938695 0 0 0
358 0 1 0 0.29626468494452896 16.661342043102085 2.927012234339262 0 0 0
359 0 2 0 0.38523432758809384 15.693239587255759 3.1627517912696765 0 0 0
360 0 2 0 -0.3224940600151578 17.073356471424823 3.6139450773861026 0 0 0
361 0 1 0 9.143271686589443 10.87404915954118 4.915675854122232 0 0 0
362 0 2 0 9.272950247615093 11.549801382366255 5.609297685785199 0 0 0
363 0 2 0 8.28059034956313 11.154697505448233 4.553101786991518 0 0 0
364 0 1 0 9.947758247904188 18.113989075325605 1.9696033621365496 0 0 0
365 0 2 0 9.2808680774355 17.57333680383508 2.4565071125426168 0 0 0
366 0 2 0 9.424427083554022 18.652001782315814 1.292642805469151 0 0 0
367 0 1 0 15.082883036123091 16.24766180940144 0.15556147730334863 0 0 0
368 0 2 0 15.039512343439622 15.333216130692309 0.41985745928660195 0 0 0
369 0 2 0 15.28466663061611 16.670749628477957 1.038211444805888 0 0 0
370 0 1 0 8.43970486366035 13.990281146170176 4.313563016117763 0 0 0
371 0 2 0 7.836009788019313 13.164537169995048 4.255035189410093 0 0 0
372 0 2 0 9.335811756757709 13.654538126583441 4.188459914730401 0 0 0
373 0 1 0 6.588267079163463 18.743646936467393 1.7074597788448715 0 0 0
374 0 2 0 6.953102947996319 19.07259783935452 2.547595349673933 0 0 0
375 0 2 0 7.148002982117746 19.02714119940229 0.9887309249267159 0 0 0
376 0 1 0 13.223985693801415 14.50989777825583 2.7760319912033466 0 0 0
377 0 2 0 12.91927033787832 15.379364800193478 2.4976489044201458 0 0 0
378 0 2 0 13.918377092848633 14.173365271648578 2.17785721739554 0 0 0
379 0 1 0 11.864499452742276 20.381204301005955 1.1062645995722682 0 0 0
380 0 2 0 12.734126366890358 20.047741698548943 1.385283475195556 0 0 0
381 0 2 0 11.646974695491137 19.871734710707216 0.30367480021260385 0 0 0
382 0 1 0 10.963988001203244 13.530614736307994 3.9201545886435105 0 0 0
383 0 2 0 11.739246514314967 13.748858425039543 3.4302921659723045 0 0 0
384 0 2 0 11.355937914705107 12.959895874698837 4.583204061221368 0 0 0
385 0 1 0 5.522810434321265 14.908180479175346 5.364375931417615 0 0 0
386 0 2 0 5.634085027761441 14.550109402160107 4.489476471464025 0 0 0
387 0 2 0 5.7678006998758535 15.849674680667952 5.217830946843916 0 0 0
388 0 1 0 12.467558697495734 16.95782589468681 1.5800133825236242 0 0 0
389 0 2 0 13.08104730885322 17.66481190376775 1.6103924154085505 0 0 0
390 0 2 0 11.586994033257302 17.258431807579022 1.618075747469795 0 0 0
391 0 1 0 14.627929490692274 12.232725423800485 4.1520057357933355 0 0 0
392 0 2 0 14.07330217474441 12.292576649225389 4.947623203939793 0 0 0
393 0 2 0 14.079315083835308 11.893003433343196 3.4753710761681638 0 0 0
394 0 1 0 8.190127746774191 16.518877205941738 3.0494995720774423 0 0 0
395 0 2 0 8.266367266471857 15.632958470922542 3.3937952321156355 0 0 0
396 0 2 0 7.44618341876844 16.892752210679088 3.5355019776818266 0 0 0
397 0 1 0 16.966834599884336 10.414415088620107 4.789534358326281 0 0 0
398 0 2 0 17.248586453574703 10.955942740399067 5.549892091147963 0 0 0
399 0 2 0 16.321094023995016 10.979733869917517 4.386132459268044 0 0 0
400 0 1 0 17.861651045235778 18.113440318284823 1.8354533096353214 0 0 0
401 0 2 0 17.12920621975894 17.554998687289206 2.1589147764836722 0 0 0
402 0 2 0 17.444599837212376 18.558134394860435 1.0375934598237726 0 0 0
403 0 1 0 23.01179582685151 16.002816698586855 0.30738480199594836 0 0 0
404 0 2 0 22.88269154170287 15.055772141525361 0.18278343306057032 0 0 0
405 0 2 0 22.91838479888504 16.103431291998817 1.3081741051724998 0 0 0
406 0 1 0 16.246586039926743 14.325333328157601 3.975759342319406 0 0 0
407 0 2 0 15.594757980527376 13.583775382091572 3.8902226059125016 0 0 0
408 0 2 0 17.13539928404943 13.995012848114028 4.202837599910092 0 0 0
409 0 1 0 14.214902810399328 19.034213879399676 1.7729446605821473 0 0 0
410 0 2 0 14.800383502245484 19.15735945804952 2.5589221768705106 0 0 0
411 0 2 0 14.799654535590694 19.154712940803392 1.025574046294743 0 0 0
412 0 1 0 20.532282331871436 14.681845383785113 2.552375364264745 0 0 0
413 0 2 0 20.52296839080321 15.580256263665195 2.0815931823688976 0 0 0