LAMMPS data file via write_data, version 23 Jun 2022, timestep = 5800000

1296 atoms
2 atom types

0 30.9438 xlo xhi
0 21.334227 ylo yhi
-0.14808821858160925 16.389316218579253 zlo zhi
-9.145797 -9.334173258801192 -14.156430412756887 xy xz yz

Masses

1 1.008
2 15.999

Atoms # full

221 0 2 0 12.896282781594767 12.791739886375224 1.1988982324123814 1 -2 0
222 0 2 0 3.9938601135975222 -1.7186111958863517 16.284334383900163 1 -2 -1
220 0 1 0 13.19472546360954 12.068602247606183 0.6489327245019649 1 -2 0
196 0 1 0 -7.655172319392243 7.0595549707954515 12.643898225294528 -1 0 -2
1131 0 2 0 -0.35674039124931234 9.872553101504211 12.146802696863706 0 0 -2
659 0 2 0 1.8028543818387615 -9.337636437234487 14.231371408286728 2 4 2
1130 0 2 0 0.21912876519111268 8.413656546918597 12.496693021732826 0 0 -2
1129 0 1 0 -0.5537780257213569 9.021730367464604 12.503747486477558 0 0 -2
223 0 1 0 5.9992233541750775 12.984160026198783 2.2160235418912024 -2 -1 -3
225 0 2 0 5.693600381196583 13.160625010403459 1.2817166382789689 -2 -1 -3
786 0 2 0 1.138856882178596 -4.245400399590865 6.213796180718215 1 -2 -1
927 0 2 0 -7.912451385723765 11.816433576242922 6.669436098279 0 1 -2
485 0 2 0 -9.592076591891331 18.934275433689198 2.390281168738281 2 1 3
484 0 1 0 -9.232713596251894 18.448825563563574 3.111689563899198 2 1 3
486 0 2 0 0.6407139790356204 -2.3752983076593828 3.517962427875212 2 2 3
1175 0 2 0 1.6234059261396148 -6.1952973130830555 13.57806025686407 -3 -2 -2
791 0 2 0 13.53900968783213 18.724511341999882 1.1438048187528036 0 -2 1
1261 0 1 0 3.654567694559031 4.598025711594074 12.544475326102402 3 5 4
314 0 2 0 16.184885485071838 9.043555570124212 9.752353061499571 -2 0 0
313 0 1 0 16.114176699403277 8.672701010646477 8.870779505030368 -2 0 0
1263 0 2 0 3.832264975361009 4.534774322774647 11.6176335280814 3 5 4
1262 0 2 0 3.3738890164018365 3.725296457837283 12.820755603391651 3 5 4
715 0 1 0 16.214944608941753 5.243947298157803 3.248352180020499 0 2 1
717 0 2 0 16.035887770708083 4.534299056917405 3.8496088319773647 0 2 1
311 0 2 0 9.315147172815392 -12.165129374362422 14.446520571472174 0 2 0
310 0 1 0 9.567967649651722 -12.126968698625785 15.369632083940738 0 2 0
956 0 2 0 -0.5706817425555784 0.47221850765398976 8.697521149383743 0 1 1
98 0 2 0 2.202113137685789 11.90439346532293 0.4071308758474411 1 1 0
938 0 2 0 -7.214768606157167 15.542755139291263 1.5997765009321 2 1 0
312 0 2 0 10.517308090277355 -12.045058222127345 15.433739371858513 0 2 0
1193 0 2 0 0.6980619799398937 0.7414085082698953 15.664115512340064 -2 -2 0
80 0 2 0 12.142372295224211 13.124593231211378 3.401530069950278 -2 -6 1
939 0 2 0 -8.35508893167731 16.649664360414917 1.6045229545839685 2 1 1
983 0 2 0 2.4095028409226584 -2.105018954096943 8.822171709089433 2 1 -1
982 0 1 0 2.599818176458971 -3.021841549841062 8.589038771095078 2 1 -1
923 0 2 0 23.645431486762305 -8.814347793868214 10.964210396165912 1 3 2
984 0 2 0 2.1338812011804 -3.2183508169546524 7.749640405747139 2 1 -1
438 0 2 0 -15.877848594685966 6.994029231675684 14.090777117851635 -2 -1 -1
692 0 2 0 19.129796450298848 -7.278617269546859 14.977520149483174 -2 -5 0
691 0 1 0 19.288362324759895 -6.605141809373627 14.278385942539138 -2 -5 0
38 0 2 0 8.13708935103695 1.5950127868524429 2.631625808279289 -3 -2 0
205 0 1 0 -1.064335497189878 -2.4434745256843424 8.288468140983491 0 -2 0
37 0 1 0 7.849662051328128 1.9751766547092318 1.7991866671478407 -3 -1 0
39 0 2 0 8.715147035061047 2.1743517099663876 1.342614017624988 -3 -2 0
185 0 2 0 13.544243031828572 7.63285485336654 11.120948981489391 -3 -1 -1
847 0 1 0 -1.5564119394357263 9.256844934553346 0.11116815043634665 4 1 4
848 0 2 0 -0.8865297917089504 8.72095753208671 0.6203531395910665 4 1 4
207 0 2 0 -0.6300893952869098 -1.5788569678426247 8.069547853958388 0 -2 0
900 0 2 0 12.739103866124918 2.6011815299504715 6.453785280253065 -3 -2 0
898 0 1 0 12.465997683024836 2.1677281765462393 7.299885941506066 -3 -2 0
186 0 2 0 13.02824542875497 9.132830827938148 11.431712556388481 -3 -1 -1
721 0 1 0 -6.430697481881295 13.930666781745966 1.5461009012719984 -1 0 1
601 0 1 0 14.621214681056934 -7.468317484200646 13.042372541506406 1 3 1
602 0 2 0 15.180940147555065 -7.7028494994831584 13.818341026820898 1 3 1
480 0 2 0 -5.6531695669349915 5.934634070484568 15.014473060513625 2 3 2
74 0 2 0 4.604686950015051 -2.3300931743896025 5.146298039218856 1 2 0
801 0 2 0 22.033634206425194 -3.868792992318732 5.265173473904033 1 2 -2
799 0 1 0 22.3697560657709 -4.726185692401915 5.4804853139765095 1 2 -2
800 0 2 0 13.563831337355072 16.302222735037702 4.646225818396173 1 1 -2
258 0 2 0 16.852299811674392 -3.843281128450835 11.077280421018374 0 -2 -2
151 0 1 0 -9.381177900369199 -7.611222447117805 13.585506846720373 2 3 4
152 0 2 0 -9.010925535654364 -8.2390988178574 14.32099405431154 2 3 4
148 0 1 0 -8.937654360201416 4.358363296997137 13.652689206734228 1 1 -1
539 0 2 0 -6.093765796496616 13.286829054631436 5.744604263063288 0 -1 -1
538 0 1 0 -5.826441008476079 13.215123068739526 6.686916641833206 0 -1 -1
827 0 2 0 10.8730283606711 -8.609146084425024 14.279247101773406 -4 -4 -2
826 0 1 0 10.646580388830037 -9.004037287061752 15.100439165137885 -4 -4 -2
153 0 2 0 21.735854440331355 -8.136125878007386 12.77822554867736 1 3 3
24 0 2 0 -0.6024045286059936 4.049225070064279 9.054491979063522 -2 -3 -3
22 0 1 0 -1.1599293337569003 3.350238803033456 8.679717889790943 -2 -3 -3
23 0 2 0 -1.2090376058392787 3.5352798386962405 7.750572835024653 -2 -3 -3
573 0 2 0 5.599962129845245 9.408480996209 3.403995441307288 1 1 1
1293 0 2 0 13.804877915207385 12.835880167823603 8.82855483829861 -1 -4 -2
540 0 2 0 -4.949947025657259 13.62045893761095 6.68111513641068 0 -1 -1
571 0 1 0 5.773951453768438 10.035612363014618 2.721545143640495 1 1 1
488 0 2 0 -4.025650553310448 -4.983460711751189 9.443429836722576 -1 0 -1
489 0 2 0 -4.3288396292344515 -3.542732568778426 9.31344827832807 -1 0 -1
246 0 2 0 9.181595481083932 -3.8673890725545643 8.782746759980602 0 2 1
244 0 1 0 8.833209278811825 -4.662889501475292 9.15554825606291 0 2 1
1037 0 2 0 0.5183754206102535 6.567544923358638 5.086118060548091 0 2 -1
595 0 1 0 -2.946332508868428 -4.712592383012737 12.074273188488785 -3 0 -3
572 0 2 0 6.612567460072128 9.738765931621868 2.2733974791257325 1 1 1
245 0 2 0 9.063708292104591 -4.728233827608699 10.072692822638842 0 2 1
596 0 2 0 -2.6153494230183796 -4.08194255519976 11.405079947615093 -3 0 -3
1235 0 2 0 17.037637445573736 12.32967963038344 0.005260915154094742 -1 1 2
1036 0 1 0 0.30753234727673107 6.678761921025362 4.161237234254725 0 2 -1
597 0 2 0 -3.5645959441399695 -4.197758033140427 12.571404961969794 -3 0 -3
1002 0 2 0 -11.674874415587649 10.049037288706431 9.758001706535007 1 -1 0
1000 0 1 0 -11.664001357378389 9.1231527039162 10.139755121228877 1 -1 0
1001 0 2 0 -11.420748825911025 8.455083665159444 9.456094188863394 1 -1 0
815 0 2 0 8.80684472332933 16.459609576427194 0.8702372742298801 -1 -2 1
1032 0 2 0 20.75934892653184 8.51290539178722 5.31749983697147 -3 -1 -2
1281 0 2 0 12.953847384130876 6.37404120063875 3.337004427805716 -1 -2 -2
224 0 2 0 5.687413548616217 12.088557376705475 2.5801157090831213 -2 -1 -3
716 0 2 0 17.139357305531874 5.570637977107222 3.4925643810542315 0 2 1
1292 0 2 0 15.275109282558695 12.369984300103653 8.60314760269423 -1 -4 -2
755 0 2 0 7.808392359033986 15.144522203313732 6.505030207241711 -1 3 1
1038 0 2 0 0.9658601632992343 6.136823618957177 3.71163696437678 0 2 -1
120 0 2 0 -9.866943549628829 1.7539205287048887 13.327049177219203 1 0 0
530 0 2 0 5.943748937197245 -12.532567933848147 15.970824171905061 0 0 -1
487 0 1 0 -3.620284736431078 -4.199092224587073 9.059352876835051 -1 0 -1
354 0 2 0 15.402406742854733 16.480147245016703 3.599547206079924 0 1 -1
118 0 1 0 -10.60345341509707 1.6821855400454222 13.974274254183717 1 0 0
119 0 2 0 -11.3083033646088 2.276249409898208 13.584035101213034 1 0 0
554 0 2 0 -3.726389557482396 -1.5766977443122556 11.193046593998732 -2 -1 -1
71 0 2 0 8.567145079945318 -6.725450732666624 15.934786890162226 -2 0 0
1234 0 1 0 17.454410406058873 12.289631454429196 0.8897255417313321 -1 1 2
1236 0 2 0 16.795583585611546 12.601671688587057 1.498101307677444 -1 1 2
829 0 1 0 12.68244542544947 -2.075393330544138 13.788655797800178 -1 0 0
1070 0 2 0 4.350452262021347 10.312179689263337 1.4031700469309778 -3 -2 -2
1069 0 1 0 3.414572975980122 10.38329484266743 1.21524034159115 -3 -2 -2
857 0 2 0 -2.022146889431764 -6.224376892300704 11.666039490663438 1 3 1
70 0 1 0 8.289024554389677 -6.136244999349326 15.207089983458042 -2 0 0
1039 0 1 0 16.46133781511164 5.180929271239611 6.654391098472625 1 0 3
395 0 2 0 17.816664692700193 -5.706868855012737 14.406345743956456 -5 -2 -6
72 0 2 0 8.474335125586782 -6.527980208929779 14.337817601588439 -2 0 0
856 0 1 0 -1.2862520021827049 -6.817426589555788 11.943920944815405 1 3 1
858 0 2 0 -1.1934686091603588 -7.555588913626396 11.331393547173356 1 3 1
364 0 1 0 3.62225010049184 -13.468755528820331 16.18331666609936 1 0 1
529 0 1 0 6.18504158978161 -12.171069007606954 15.110854647327518 0 0 -1
1178 0 2 0 3.4503678441390098 0.9682085681075562 0.45742985355130805 2 3 3
1177 0 1 0 2.7106261373704186 1.0968003770045696 1.0743308076798794 2 3 3
1179 0 2 0 2.0092606370736816 0.6691318324693638 0.6349017358925321 2 3 3
281 0 2 0 3.664708584864469 4.5504977376300255 -0.08061044947217623 -1 -2 -3
723 0 2 0 23.857947782634152 13.466628473161029 1.0069509231317209 -2 0 1
890 0 2 0 18.067336433380767 11.040223696612118 2.1704301319933332 -3 -1 0
513 0 2 0 13.043660863332185 -3.255529425555719 5.87951705421271 -2 -1 -3
366 0 2 0 -5.556031316208994 8.1557595086472 15.24476438852673 1 -1 1
365 0 2 0 12.871734460480189 1.4886091258084142 0.15841625098804152 1 0 2
603 0 2 0 14.907195199513701 -8.031492497790785 12.22023890549813 1 3 1
1019 0 2 0 10.630542942522792 6.1302345149984205 9.896860336660723 -2 0 -3
1020 0 2 0 11.962664893627245 6.6929877263570745 9.362326263474854 -2 0 -3
1018 0 1 0 11.378802780890846 5.924563937920912 9.344554220952933 -2 0 -3
247 0 1 0 12.856407238275118 15.88547914625266 1.0175874685620157 2 0 -3
1203 0 2 0 -1.9512269285689499 9.410453907678049 8.219316106300479 2 3 2
190 0 1 0 1.2405359719981517 15.756727994287813 4.015729928182877 1 0 3
282 0 2 0 -4.169793698136528 -9.575730075166181 15.702539010940841 -1 -2 -4
1202 0 2 0 -3.4427397635447328 9.554596655984138 8.42628451108437 2 3 2
191 0 2 0 1.3804839631907657 14.952420755311149 3.5203407975520413 1 0 3
1201 0 1 0 -2.6388802997685765 9.176983028367829 8.84200974143505 2 3 2
1284 0 2 0 -2.4976217317513987 6.134059475420946 1.017374115479845 -1 -3 -2
1282 0 1 0 -2.731713147775838 5.8675658308125325 0.1517988135059965 -1 -3 -2
280 0 1 0 -5.087281013706869 -9.224452190126419 15.715659584756324 -1 -2 -4
1283 0 2 0 28.14169521499228 4.92195286090283 0.20748672327179601 -2 -3 -2
291 0 2 0 -15.247301206246949 4.730227319867902 14.046990295584502 -1 -1 -2
1049 0 2 0 5.928870724436356 1.378245206788884 3.5324606191081496 0 0 1
1233 0 2 0 11.74745589877632 10.617719914559354 10.120727305157901 1 4 0
1231 0 1 0 12.114294769062111 10.795638519631735 11.002111710720026 1 4 0
409 0 1 0 -1.638974439546419 4.525838748032942 5.596216027228967 0 0 -2
411 0 2 0 -0.8843663814696034 4.190190281721624 5.175845263215179 0 0 -2
115 0 1 0 -14.61478487899172 9.687354774775748 11.447978059237084 1 -1 -1
1192 0 1 0 1.3070558872551352 0.08218142466340872 16.037251956835544 -2 -2 0
780 0 2 0 23.4574933424818 0.07461121609804522 1.0163421791000065 -1 3 1
116 0 2 0 -15.369037150925491 10.019517018182224 11.901726721817576 1 -1 0
117 0 2 0 -13.918225395870719 10.31041903641892 11.633607969663727 1 -1 -1
1194 0 2 0 10.053600107277678 13.517366508064386 -0.12477309570767761 -2 -2 1
552 0 2 0 29.937248271040882 -0.6736680487225543 0.8402766402535676 2 1 2
1103 0 2 0 2.6670088440089272 12.75232219562377 3.4120440556707985 1 2 0
779 0 2 0 4.821639039998379 6.859845886092982 16.056813644037835 -1 2 0
868 0 1 0 17.580211081429937 17.05410523330965 1.515340665754283 2 1 4
518 0 2 0 26.38499775854453 -6.360405175164774 7.381479440334253 0 -2 1
1143 0 2 0 13.767863112736155 -9.306242668488888 10.775502682835798 2 1 -1
1140 0 2 0 6.3142713825482195 0.6114988295702268 13.39894635363509 1 -1 1
381 0 2 0 -5.503998528716009 15.307010814915326 3.6417669305333913 1 1 1
434 0 2 0 0.5662096931870577 2.444103257530182 11.710773917118187 2 4 3
720 0 2 0 26.66537706339501 -1.480470526680489 4.2636805051741105 -1 0 5
637 0 1 0 4.302169414043222 -4.533111122660571 15.520294740424141 0 2 0
1005 0 2 0 15.843837230767333 0.4679451316503831 1.0463314002140032 2 1 2
1003 0 1 0 15.771264235844288 1.37433374542724 1.3466997154552138 2 1 2
1004 0 2 0 14.94851589501585 1.4696479388031491 1.7552204532986095 2 1 2
558 0 2 0 -4.344307661029354 3.7578388224823494 4.5819509242779075 0 -3 -2
803 0 2 0 4.6954680462128575 5.884326349357835 13.404567217064338 0 0 0
1067 0 2 0 20.180523387018887 -2.539211538041073 4.991816760671133 1 0 2
1010 0 2 0 2.5791016172319168 12.82034270587898 9.619586997743255 -3 -5 -3
718 0 1 0 26.123622812198818 -0.6810831787428024 3.9712334288764666 -1 0 5
350 0 2 0 11.72563289467162 14.576107941859252 7.338789142689577 0 1 -1
1260 0 2 0 11.908705588752554 0.6796601796346486 9.518162580625921 -2 -2 -2
1066 0 1 0 19.553843410148254 -3.134649822881231 4.468302251586585 1 0 2
719 0 2 0 26.873720587927288 -0.17483394440240918 3.6197906361040655 -1 0 5
510 0 2 0 2.966021940383444 5.777599124594416 3.8450188609220635 0 0 -1
1138 0 1 0 6.070335162063687 -0.01013680463106148 14.125179574312943 1 -1 1
420 0 2 0 0.028024467938625675 7.954833984605605 3.0293636662378853 -1 -4 -2
418 0 1 0 -0.10815034111763411 8.490626484353125 2.2410036882777367 -1 -4 -2
687 0 2 0 -10.610063585558013 12.440806962548866 9.57649432111689 0 -1 2
423 0 2 0 4.216578643176835 5.88193728078037 6.974757627813141 2 1 0
272 0 2 0 14.58313443902491 3.077532151218243 12.08295619780786 1 1 0
271 0 1 0 15.562542307849167 3.221602587307661 11.887367500835582 1 1 0
379 0 1 0 -4.66759706506919 15.797048581364816 3.703945011491609 1 0 1
851 0 2 0 1.9334720519513666 4.275685338288243 0.503153089436553 4 6 4
103 0 1 0 -7.384402714881892 2.0191824770366438 13.479531877344169 -3 -5 -3
850 0 1 0 2.6572587703115964 3.969431558603383 0.9962555567086984 4 6 4
852 0 2 0 2.4423487754067414 2.987084548430866 1.0542532181369828 4 6 4
383 0 2 0 13.69483739688401 -0.9573762431029764 3.1264607641428164 0 -1 0
897 0 2 0 -3.7727889696110033 -0.17763785368088492 7.3405662675094865 2 2 2
623 0 2 0 24.361211172696535 1.6038449269511306 5.027576024660775 -1 1 2
622 0 1 0 24.654132736735725 0.8955899993085437 5.597755558791173 -1 1 2
686 0 2 0 -0.6266162705250808 -7.570660805181777 9.198156555738167 0 0 2
624 0 2 0 25.031347272300692 0.29065466638142823 4.976354487051459 -1 1 2
685 0 1 0 -0.6035776563667161 -8.398217958146931 9.698122960048709 0 0 2
104 0 2 0 -7.772098456480221 2.6966365722834382 12.964452137169912 -3 -5 -3
694 0 1 0 23.58133985020908 7.822631557797672 0.055684628345838205 -1 1 1
93 0 2 0 -1.8816743328493133 9.441136878927214 5.910312878078685 -2 -2 0
188 0 2 0 14.805268255064265 -1.170147463375332 6.520027492677561 0 0 0
822 0 2 0 -0.8873111091368768 15.885929566865489 3.913033178757977 -3 0 -3
1123 0 1 0 3.6291594487508556 -4.743040589278888 10.679323431193394 0 1 0
1141 0 1 0 14.627532413975715 -8.901413643327508 10.866915130992878 2 1 -2
1142 0 2 0 6.104607994631836 11.690373541040087 10.965694927999614 2 0 -1
866 0 2 0 3.211574979585504 19.047307812228098 1.576008762339 1 1 2
349 0 1 0 11.161398511365146 14.885888963342282 6.604662739728228 0 1 -1
187 0 1 0 15.107915815967019 -0.4152900576001066 7.086413123946173 0 0 1
818 0 2 0 20.746155067204324 -6.5053329007578435 10.58152181024481 -1 -1 -2
1124 0 2 0 3.180603958310096 -4.273930409514844 9.987445203235568 0 1 0
1043 0 2 0 14.90966085382045 -5.091495031974646 9.377924420603513 -1 0 0
520 0 1 0 -10.32790186089094 7.6596205982510845 14.422391241623988 -1 -2 -3
522 0 2 0 -10.453857104092599 7.892565647865245 13.538263102195161 -1 -2 -3
445 0 1 0 -3.741602599397094 10.837938293078327 4.980266826689986 1 -1 0
447 0 2 0 -3.4702281981277316 10.249094790048183 4.2857488053408 1 -1 0
176 0 2 0 23.598592346437275 -0.5385257820764737 6.987309719771674 -2 -4 1
1042 0 1 0 14.702234273079 -4.1479673660637015 9.151310728539974 -1 0 0
751 0 1 0 -3.124286008353117 -4.029346212214449 6.359740993114242 1 -1 1
654 0 2 0 8.625623402758901 7.323744219233657 6.646954733187982 2 -1 1
189 0 2 0 15.069734631155645 0.31516880849251017 6.430876808712592 0 0 0
908 0 2 0 -4.744522764597926 3.699439055725942 9.096352672553204 3 1 1
888 0 2 0 8.430770645619663 0.8619509408874233 14.806336910453018 -1 2 0
1224 0 2 0 17.541343089991916 4.979953793050617 7.938750149783127 -3 -4 -2
1246 0 1 0 7.753690504433807 1.442477699070242 4.46665009638407 1 -2 -3
1094 0 2 0 11.244127081281777 5.302044341789186 0.5679643603186301 1 0 2
91 0 1 0 -1.3194348270347005 9.868921627551764 6.619067946639157 -2 -2 -1
585 0 2 0 24.11620818810572 2.8336837991211357 3.0060813860969446 -2 -3 -3
1125 0 2 0 3.1716340659316415 -4.409579358353116 11.448405150030814 -1 1 0
521 0 2 0 -10.905262734294215 6.918019770660035 14.61673171801383 -1 -2 -3
1144 0 1 0 0.020921006369362338 11.086705404035703 3.946190032032793 -2 -2 -3
817 0 1 0 20.647946525065684 -7.454422595623136 10.74575944412003 -1 -1 -2
330 0 2 0 0.48351505671449146 10.205839242338993 9.1100347669168 -1 -2 -1
1223 0 2 0 17.50146205434087 4.985246829606616 9.439976669368326 -3 -4 -2
1222 0 1 0 18.126781926281726 4.8332933976734385 8.749572641362027 -3 -4 -2
1095 0 2 0 10.598372038854263 4.153978027782482 1.4135845440225243 1 0 2
931 0 1 0 -2.6287493885324267 11.581132798906822 1.630510166882585 3 2 1
446 0 2 0 -3.151122470015269 11.65451683033147 4.773350302243451 0 -1 0
1146 0 2 0 0.5130699391012974 11.895121930167015 3.6315324004658494 -2 -2 -3
957 0 2 0 0.6390753437531131 0.8046941824769442 7.790027850001077 0 1 1
955 0 1 0 -0.02027787841009232 0.16405940580652612 7.971928660208107 0 1 1
907 0 1 0 -4.06941134386832 3.8644633109982447 8.394798236061767 3 1 1
1248 0 2 0 8.440563950918747 0.8967632805437846 4.941083391999448 1 -2 -3
1145 0 2 0 -0.8548747376897379 11.557077530151982 3.9149428807801456 -2 -2 -3
1044 0 2 0 14.389231570435399 -4.212396976338631 8.258955607549934 -1 0 0
695 0 2 0 23.583320923957665 8.749043535060947 0.3330888339329884 -1 1 1
909 0 2 0 -3.1615128714863507 3.706969318371784 8.660245244719135 3 1 1
1034 0 2 0 7.926062060099719 -3.5830637738147644 12.432372555358224 -1 1 2
273 0 2 0 15.859742909292095 2.3100658795337488 11.836949051410453 1 1 0
1062 0 2 0 5.743336400074968 -1.5309322031870196 1.901578624679571 -1 -3 -1
1256 0 2 0 14.19052927423734 11.733759339308714 5.521016417699903 3 2 1
317 0 2 0 2.5983166692333173 7.301912374359675 10.927873222084333 -1 1 0
819 0 2 0 19.696019190668853 -7.53415816771043 11.00503260108583 -1 -1 -2
1214 0 2 0 -7.186581658527267 8.682954625939729 3.719447577003344 0 3 1
1060 0 1 0 -2.633712672664746 19.224562018344532 1.8762515134372952 -1 -4 -1
1213 0 1 0 23.36345527540626 7.806631062945311 3.9082016040559244 -1 3 1
59 0 2 0 21.689870598153366 0.7062875667950386 2.7916304536114085 -1 0 0
1257 0 2 0 14.818323508560367 10.283265342989695 5.63046454857726 3 2 1
1040 0 2 0 17.125565449557474 5.691907380829673 6.1429911593198705 1 0 3
1041 0 2 0 15.752712759556859 5.857181135307922 6.628247954147792 1 0 3
112 0 1 0 19.75032209179332 -1.7199187190764695 2.3182149253493223 2 3 3
874 0 1 0 -10.613647072448995 5.055805544948164 11.748528341521002 0 2 2
114 0 2 0 18.981394538975614 -1.4787603651708539 1.7733718418880677 2 3 3
113 0 2 0 19.435339666095913 -2.298656188527398 3.0727554483721056 2 3 3
1277 0 2 0 16.008614976063342 4.485841964823859 0.20361570850148802 2 0 0
876 0 2 0 -11.050074277322715 5.915033286735655 11.91682711262303 0 2 2
875 0 2 0 -10.186885870925327 4.872412207567399 12.577542197706048 0 2 2
1061 0 2 0 6.845680291841852 -2.2662728374006678 2.7501180421150395 -1 -3 -1
405 0 2 0 7.461306570764168 10.461682964894328 12.104586437073724 -1 -3 -2
1255 0 1 0 13.975014493537731 10.785503347141582 5.51319591081942 3 2 1
668 0 2 0 4.121088259011749 -3.743633838423738 7.1282128906004925 1 -1 0
669 0 2 0 5.407463128750673 -4.3734121664939405 7.8456852706302325 1 -1 0
1187 0 2 0 1.0398217401361176 -11.606722517617918 15.671049062483878 1 3 1
1265 0 2 0 9.932520454750996 14.90593586234387 3.5210471813096094 1 1 2
1264 0 1 0 10.568177466265935 15.596156240744293 3.2476287918136904 1 1 2
316 0 1 0 2.659950150599932 7.474668130689329 9.988406163509339 -1 1 0
593 0 2 0 3.0189729309615867 -11.303540922605249 14.265072227001482 -1 1 -2
1278 0 2 0 15.71034056854323 4.971949063494307 1.6085145289978808 2 0 0
237 0 2 0 5.94510151189238 -5.947784009765633 11.007781201579844 2 2 1
944 0 2 0 -1.9606536150041975 -0.3195379703394501 10.530178023339188 2 1 2
318 0 2 0 3.3565676748701936 6.8766487756146955 9.671012914708756 -1 1 0
640 0 1 0 1.198880820841631 12.365136704688226 6.486118051463383 1 1 2
150 0 2 0 -9.338546103141914 4.225196622481242 14.534478331253366 1 1 -1
235 0 1 0 6.095522203512425 -5.949786485205426 11.969303457756771 2 2 1
236 0 2 0 5.290857320937742 -6.281369286770638 12.395909611904184 2 2 1
1276 0 1 0 15.272145049352192 4.81846110570451 0.7294777474219107 2 0 0
641 0 2 0 1.068255489772481 13.313536091431953 6.418701071986144 1 1 2
667 0 1 0 5.026076409034504 -4.016386467547546 6.997289040578364 1 -1 0
1063 0 1 0 5.760568820624767 -8.05813247161274 9.777365125534438 0 -1 1
1056 0 2 0 -1.2762159409726117 -2.1305776210622693 4.31855226013983 0 0 2
149 0 2 0 -8.526206057798767 5.235644090173912 13.758159915346933 1 1 -1
1139 0 2 0 6.388223531143662 -0.8910596237933905 14.01282779994933 1 -1 1
377 0 2 0 0.9935122101922333 -6.018418323171107 7.737395550970401 1 1 0
967 0 1 0 -9.149190456520692 14.070497832703246 5.382543962688077 1 -1 2
969 0 2 0 -8.781682257532697 14.32149985285012 6.226512371335633 1 0 2
1238 0 2 0 17.20848161355051 17.419226767869905 3.1693745836201916 0 2 2
1239 0 2 0 26.660919227678686 -3.9090608272797986 4.729297569715158 0 3 2
1237 0 1 0 16.830698920387416 17.55083064240363 4.082634425954153 0 2 2
427 0 1 0 3.551230440318916 -0.9413001082990267 14.320158866297424 1 2 2
429 0 2 0 2.8721975376990354 -0.4941624061142935 14.836712571408409 1 2 2
322 0 1 0 13.095770193155632 3.1272255155957094 4.588063213728348 2 3 1
324 0 2 0 13.950959266035131 2.6397269999251654 4.6712307759774685 2 3 1
1186 0 1 0 0.2424581116911675 -11.7833525504904 16.10594609138184 1 3 1
121 0 1 0 11.872009793408804 -5.396514772905791 8.361040328814413 2 1 1
290 0 2 0 -14.003111139966848 5.367932360354356 14.690024672647743 -1 -1 -2
251 0 2 0 20.897872853353412 2.57372627713256 7.413298023782053 -2 -3 -3
77 0 2 0 12.695868390610626 1.1208841010695725 12.391631851279573 0 0 1
134 0 2 0 -3.4414775529227084 2.6047139118876945 11.998648295013169 3 -2 1
1053 0 2 0 13.719074738249926 -4.259158152194264 12.940774254085639 -3 -3 -1
886 0 1 0 8.844784612992925 1.0383014705644005 15.668629630252497 -1 2 0
548 0 2 0 -0.26532029786895706 15.045775180275257 0.6645818498459404 0 -4 -2
959 0 2 0 1.089696197506445 -4.993831433411158 15.792536667253273 1 2 2
756 0 2 0 6.913418170410363 15.43574308797689 5.263509345207177 -1 3 1
754 0 1 0 6.92369820417479 14.911230937314192 6.063712023483506 -1 3 1
491 0 2 0 8.423599721600187 8.281466050320418 9.064187230511493 0 -1 -1
76 0 1 0 13.658405755635759 1.0722856988743938 12.277732879502405 0 0 1
133 0 1 0 -2.8228143810971646 2.55218642199009 11.238287022854504 3 -2 1
135 0 2 0 -1.9959594962673624 2.9355352977079505 11.543885775332944 3 -2 1
1285 0 1 0 25.008236668873785 -2.0594161989680724 6.906128152665847 2 3 2
1272 0 2 0 22.206942866919313 4.027372695040245 6.542041825950075 1 -2 1
787 0 1 0 18.643853974761683 2.5131250289294655 10.571163990506538 0 -1 -2
63 0 2 0 -9.716140288739783 17.20121637349635 4.671578898986737 0 -3 -1
1287 0 2 0 24.492887658582525 -2.537813574853229 7.525840715430006 2 3 2
428 0 2 0 4.216913018615886 -0.2234829808313421 14.181435685508145 1 2 2
1270 0 1 0 21.837370380941472 4.879676754182557 6.261566519459557 1 -2 1
1271 0 2 0 -8.7030836180843 5.648489918417191 6.764416226586629 2 -2 1
62 0 2 0 -1.5868344922915223 -4.7515081330353555 5.541297552112641 0 -2 -1
250 0 1 0 20.53412178338468 2.8853291616904135 8.253995123479225 -2 -3 -3
476 0 2 0 5.132538570998036 7.9265745157197625 10.596116661525981 -1 -3 1
980 0 2 0 -0.4143392471193055 8.418905223360039 10.023078160623337 2 0 1
1250 0 2 0 5.878117738581107 11.308665593825872 8.458354846244491 1 -2 0
1188 0 2 0 -0.26344159030795034 -12.335183525768 15.523633876804498 1 3 1
477 0 2 0 4.16384777310223 8.793329330562502 11.352791459029566 -1 -3 1
994 0 1 0 0.7701466122909828 3.2830082614635314 4.721545558146514 2 2 2
406 0 1 0 -5.178133765463264 -7.192705074724383 12.723052763242752 1 -1 -4
69 0 2 0 6.20835048600788 8.958652581442353 8.671227141133306 2 -2 1
240 0 2 0 19.267887118333867 3.2774165860181705 2.716374178085196 0 -2 -3
402 0 2 0 -4.005920034431831 1.4568213689838796 10.344717942352244 0 4 -1
712 0 1 0 8.720716241301972 -0.6980117908685681 12.455309802572154 0 -1 -1
1082 0 2 0 -5.99977881738366 4.227777667080908 6.38550533279153 -3 -2 0
948 0 2 0 -6.130154179154222 9.41102887563022 6.78179747703524 0 -2 1
946 0 1 0 -6.718822287153429 8.672613067924786 6.692906216399232 0 -2 1
341 0 2 0 17.768748200018987 -8.550003265838154 12.338423880224973 -1 -1 -2
239 0 2 0 20.22112201771642 2.2356171886136003 3.4361923503904275 0 -2 -3
1081 0 1 0 -5.320544705852546 4.618786860621183 5.808215378881309 -3 -2 1
996 0 2 0 1.340569952244317 3.8080213744396185 4.243919954710492 2 2 2
461 0 2 0 13.092842300474636 -2.105363117949972 15.632747129015977 1 1 0
506 0 2 0 -3.926559494235606 15.649013418235409 6.310413840825773 1 -1 1
505 0 1 0 -3.558003158247012 14.887270972687876 5.851318245508098 1 -1 1
586 0 1 0 -4.493094686958259 -6.946231472804771 10.053309731768936 0 1 1
588 0 2 0 -5.3005759201552065 -7.322897083104342 9.682635297736446 0 1 1
587 0 2 0 -4.73326852466303 -6.935981820143351 10.973967304822041 0 1 1
1113 0 2 0 15.758774016457007 -5.384311021353991 11.881579963442883 2 -1 -1
1112 0 2 0 17.191477326125707 -5.813196201282478 12.235891595216655 2 -1 -1
408 0 2 0 -6.012427397114936 -6.641580048908746 12.846324385349513 1 -1 -4
238 0 1 0 19.915941332610906 3.204338754613687 3.4222374764696655 0 -2 -3
68 0 2 0 5.655783217596906 7.564206847364486 8.191570679008436 2 -2 1
1012 0 1 0 -1.681908994184866 0.5680565152904915 5.814342205261963 -5 -3 -3
67 0 1 0 6.127997222882513 7.993683163946092 8.916042557773292 2 -2 1
1111 0 1 0 16.639498777182595 -5.539373928135848 11.470017841664992 2 -1 -1
407 0 2 0 -4.476827881242528 -6.868285323387482 13.255250747514363 1 -1 -4
102 0 2 0 10.492575870870542 -1.012770968345297 10.594229589255614 2 4 0
339 0 2 0 8.221927172904529 5.980196629558673 13.979987759013433 0 1 1
248 0 2 0 12.848864400846702 16.75682978798175 0.5975964134698406 2 0 -3
830 0 2 0 11.761202941695014 -1.7985373337407342 13.914608296122726 -1 0 0
46 0 1 0 -1.9756907571557267 6.437936013864945 14.046034755445822 0 0 -1
962 0 2 0 12.326575041114186 -1.1539356634812385 6.536402954476068 -1 -3 0
109 0 1 0 25.08926639130314 4.022212351625713 1.2731182479972005 3 2 4
1197 0 2 0 -3.476197951332935 12.846684853292684 0.7585626572334236 1 2 2
500 0 2 0 11.743956961537714 2.878287022178034 3.3604832929557276 -2 -4 -4
644 0 2 0 -5.692167057551792 2.2772386142971968 13.127197486187551 0 2 0
1152 0 2 0 1.8034793525151933 2.7968190720506723 10.195126999761289 2 1 1
782 0 2 0 19.303796999766796 -0.31845311085979944 6.37689404417404 -2 -2 -1
781 0 1 0 19.35067493508471 -0.0031583102290149156 5.458876476574598 -2 -2 -1
783 0 2 0 19.988292021973713 0.681845596235056 5.380120745318872 -2 -2 -1
400 0 1 0 -4.729082509630824 1.043992211137903 9.953087253992523 0 4 -1
503 0 2 0 3.8087671389555204 3.9999149103508707 4.769492459987739 -2 -2 1
1059 0 2 0 4.581025922360898 -0.19575882777549314 7.206927020939356 1 0 -1
101 0 2 0 11.70059891934311 -2.0034367684867265 10.656119970509092 2 4 0
340 0 1 0 17.993993535211914 -8.017160938274186 11.536953569663662 -1 -1 -2
342 0 2 0 17.24655686491768 -7.436349266866575 11.291853151494603 -1 -1 -2
646 0 1 0 22.6827757226111 4.807958046691697 -0.12542545168229763 2 3 -1
397 0 1 0 14.95822238817856 7.467987427327526 -0.1110776808899839 2 1 2
399 0 2 0 14.945113834431826 6.527520803361253 0.014006770086371412 2 1 2
100 0 1 0 10.740379692349265 -1.9482986272206393 10.40224308388355 2 4 0
499 0 1 0 11.10379347791067 2.8092736544424777 2.627713974049075 -2 -4 -4
1206 0 2 0 5.07695635180551 6.915259465603754 5.061265156042935 -1 1 1
12 0 2 0 -7.189292830424478 10.152522538734988 9.426728111301413 1 0 1
1210 0 1 0 10.93679680453827 9.847343615075683 8.561752909162527 -2 -2 0
1212 0 2 0 10.270339911433073 9.222980320641247 8.923242381728453 -2 -2 0
501 0 2 0 10.873046071679468 1.8359298269359017 2.773484524107213 -2 -4 -4
11 0 2 0 -6.353159509170321 8.85397809304715 9.798553809080028 1 0 1
10 0 1 0 -6.925082510673649 9.578854267554842 10.094393729714758 1 0 1
460 0 1 0 22.42433045219213 12.303217848817916 0.030645040809414298 1 1 1
457 0 1 0 -6.695172004088767 13.707065764402875 4.249667078814042 2 1 4
961 0 1 0 12.099158950573017 -0.385697133961453 6.053341224904877 -1 -3 0
252 0 2 0 19.93787695065351 3.5880225234468544 7.973833330974358 -2 -3 -3
701 0 2 0 11.523489363318799 0.04517739314637126 3.1871288630406225 -2 -2 -1
1200 0 2 0 0.014200109932490435 5.861729732769449 13.962265467361146 0 2 1
1199 0 2 0 1.0563734357887054 4.807480166887782 14.552999105110318 0 2 1
798 0 2 0 2.7802203394584266 10.667700456293872 11.517995480807842 -1 4 -2
1195 0 1 0 -3.9708979225983696 13.598446002936754 0.36892836609660906 1 2 2
401 0 2 0 -4.39122016815984 0.44817221053804346 9.230788969507465 0 4 -1