LAMMPS data file via MDAnalysis

         321  atoms
           0  bonds
           0  angles
           0  dihedrals
           0  impropers

           2  atom types
           0  bond types
           0  angle types
           0  dihedral types
           0  improper types

0.000000 30.943800 xlo xhi
0.000000 21.334227 ylo yhi
0.000000 36.967827 zlo zhi
-9.145797 -20.865673 -31.645380 xy xz yz


Masses

1 1.008000
2 15.999000

Atoms

4 0 1 0.000000 14.131103 3.486930 14.598630
5 0 2 0.000000 13.696793 3.605111 15.487498
6 0 2 0.000000 14.509591 2.609451 14.549899
13 0 1 0.000000 -2.964955 3.805665 14.750035
14 0 2 0.000000 -2.900727 4.729805 15.022019
15 0 2 0.000000 -2.031328 3.473895 14.726424
19 0 1 0.000000 2.183392 15.656180 1.360439
20 0 2 0.000000 2.466202 16.372028 0.722492
21 0 2 0.000000 2.826368 15.725423 2.068273
37 0 1 0.000000 7.849662 1.975177 1.799187
39 0 2 0.000000 8.715147 2.174352 1.342614
43 0 1 0.000000 -6.661512 -4.100749 15.187433
44 0 2 0.000000 -6.307124 -4.423005 16.054331
45 0 2 0.000000 -6.805207 -4.954515 14.683920
70 0 1 0.000000 8.289024 -6.136245 15.207090
71 0 2 0.000000 8.567145 -6.725451 15.934787
86 0 2 0.000000 -4.402292 8.607622 1.910079
97 0 1 0.000000 2.007975 12.819141 0.319719
98 0 2 0.000000 2.202113 11.904393 0.407131
99 0 2 0.000000 2.860144 13.242587 0.322251
109 0 1 0.000000 25.089266 4.022213 1.273118
110 0 2 0.000000 24.404644 4.263053 0.632645
111 0 2 0.000000 25.075361 4.646567 2.039210
114 0 2 0.000000 18.981394 -1.478760 1.773372
136 0 1 0.000000 16.277716 -7.829439 15.407806
137 0 2 0.000000 15.529977 -7.581957 15.977264
138 0 2 0.000000 16.998087 -7.976958 16.077784
145 0 1 0.000000 6.664389 -2.425001 14.998175
146 0 2 0.000000 5.958398 -2.706016 15.575171
150 0 2 0.000000 -9.338546 4.225197 14.534478
154 0 1 0.000000 -6.359595 3.193405 15.965834
155 0 2 0.000000 -5.435858 3.063576 16.235788
156 0 2 0.000000 -6.495505 4.158727 16.064367
164 0 2 0.000000 5.491441 6.879211 1.543884
165 0 2 0.000000 5.811097 5.407114 1.819920
166 0 1 0.000000 -10.757806 -1.059224 15.116760
167 0 2 0.000000 -10.136396 -1.773669 14.907467
168 0 2 0.000000 -10.393737 -0.255998 14.765147
169 0 1 0.000000 13.054612 3.153797 0.886333
170 0 2 0.000000 12.430035 3.192578 1.611656
171 0 2 0.000000 13.850440 3.620381 1.127737
172 0 1 0.000000 -8.542324 20.650377 -0.039778
173 0 2 0.000000 -8.394396 20.799427 -1.044232
174 0 2 0.000000 -7.856461 20.039686 0.291110
201 0 2 0.000000 14.438383 -10.064919 14.850494
208 0 1 0.000000 -10.318768 3.647822 15.839145
209 0 2 0.000000 -9.945850 3.407666 16.685434
210 0 2 0.000000 -10.491325 2.908823 15.282315
211 0 1 0.000000 2.460178 6.772060 15.780530
212 0 2 0.000000 2.773064 5.966818 15.455105
213 0 2 0.000000 2.362895 6.651684 16.738880
214 0 1 0.000000 -11.950329 5.593696 15.168395
215 0 2 0.000000 -12.392531 6.237935 15.731455
216 0 2 0.000000 -11.511654 4.918194 15.780227
220 0 1 0.000000 13.194725 12.068603 0.648933
221 0 2 0.000000 12.896283 12.791739 1.198898
222 0 2 0.000000 13.328033 12.437819 -0.253071
225 0 2 0.000000 5.693600 13.160625 1.281717
227 0 2 0.000000 25.397375 2.139840 1.544242
247 0 1 0.000000 12.856407 15.885479 1.017587
248 0 2 0.000000 12.848865 16.756830 0.597596
249 0 2 0.000000 12.042264 15.522150 0.749619
253 0 1 0.000000 16.384502 -12.430203 15.173086
254 0 2 0.000000 17.092522 -12.972358 14.807876
255 0 2 0.000000 15.756829 -13.021915 15.624921
280 0 1 0.000000 -5.087281 -9.224452 15.715659
281 0 2 0.000000 -5.669465 -9.605932 16.456795
282 0 2 0.000000 -4.169794 -9.575730 15.702539
289 0 1 0.000000 -14.940127 5.493068 14.477217
290 0 2 0.000000 -14.003111 5.367932 14.690024
310 0 1 0.000000 9.567967 -12.126968 15.369632
311 0 2 0.000000 9.315147 -12.165130 14.446521
312 0 2 0.000000 10.517308 -12.045058 15.433740
325 0 1 0.000000 18.298876 6.611065 1.059323
326 0 2 0.000000 18.222046 5.683900 0.901183
327 0 2 0.000000 19.236403 6.645626 1.247848
331 0 1 0.000000 5.418574 16.819069 0.593839
332 0 2 0.000000 5.787222 17.210007 -0.215984
333 0 2 0.000000 5.888001 15.982070 0.625019
337 0 1 0.000000 7.471664 6.032845 14.629068
358 0 1 0.000000 0.038064 17.552420 1.755068
359 0 2 0.000000 0.771143 16.935247 1.982553
364 0 1 0.000000 3.622250 -13.468756 16.183317
365 0 2 0.000000 3.537562 -12.667821 16.695822
366 0 2 0.000000 3.589765 -13.178467 15.244764
368 0 2 0.000000 16.047632 8.363379 1.857961
394 0 1 0.000000 17.031559 -5.294930 14.789791
396 0 2 0.000000 16.616428 -6.121419 15.015239
397 0 1 0.000000 14.958222 7.467988 -0.111078
398 0 2 0.000000 15.681619 7.631740 -0.805463
399 0 2 0.000000 14.945114 6.527521 0.014007
429 0 2 0.000000 2.872198 -0.494162 14.836713
451 0 1 0.000000 21.176777 17.550106 0.239886
452 0 2 0.000000 20.372398 17.982109 0.058891
453 0 2 0.000000 21.173023 16.731117 -0.269029
460 0 1 0.000000 22.424330 12.303218 0.030645
461 0 2 0.000000 22.427015 12.051067 -0.904659
462 0 2 0.000000 21.464935 12.499331 0.275130
472 0 1 0.000000 9.839095 7.889781 15.162630
473 0 2 0.000000 9.831418 6.876334 15.308834
480 0 2 0.000000 -5.653170 5.934634 15.014473
482 0 2 0.000000 3.576206 -1.342266 1.813936
493 0 1 0.000000 8.819524 -0.711659 0.987966
494 0 2 0.000000 8.363855 0.117381 0.949604
495 0 2 0.000000 8.190650 -1.343205 1.365612
514 0 1 0.000000 7.546460 14.947357 0.659751
515 0 2 0.000000 7.846170 14.640257 -0.157820
516 0 2 0.000000 7.613676 14.265828 1.371951
521 0 2 0.000000 -10.905263 6.918020 14.616732
526 0 1 0.000000 -9.557037 -3.477545 14.683396
527 0 2 0.000000 -10.030725 -3.955619 15.437973
528 0 2 0.000000 -8.618780 -3.600329 14.806479
529 0 1 0.000000 6.185041 -12.171069 15.110855
530 0 2 0.000000 5.943749 -12.532568 15.970824
531 0 2 0.000000 6.883139 -11.565914 15.291309
532 0 1 0.000000 11.974912 -11.718798 16.353947
533 0 2 0.000000 11.658293 -12.084071 17.177029
534 0 2 0.000000 12.414799 -12.532072 15.986830
544 0 1 0.000000 -4.562270 10.227811 0.501827
545 0 2 0.000000 -4.476806 9.898943 -0.419419
546 0 2 0.000000 -5.496491 10.389994 0.702466
547 0 1 0.000000 -1.099611 14.644986 0.896664
548 0 2 0.000000 -0.265320 15.045775 0.664582
549 0 2 0.000000 -0.911056 13.724638 0.674062
550 0 1 0.000000 29.406546 -0.824746 1.639475
551 0 2 0.000000 28.548531 -1.117923 1.297385
552 0 2 0.000000 29.937248 -0.673668 0.840277
574 0 1 0.000000 1.885748 6.903254 1.340538
575 0 2 0.000000 1.463853 7.665367 1.809181
576 0 2 0.000000 2.839211 7.031906 1.288624
577 0 1 0.000000 4.487014 7.568403 0.253120
578 0 2 0.000000 4.965073 8.297165 -0.153313
579 0 2 0.000000 4.634574 6.784873 -0.267136
592 0 1 0.000000 2.718969 -10.673236 14.931161
594 0 2 0.000000 3.290514 -10.465585 15.657608
604 0 1 0.000000 5.183133 0.442893 0.032715
605 0 2 0.000000 5.171681 1.093150 -0.711046
606 0 2 0.000000 5.487255 0.969295 0.796742
610 0 1 0.000000 20.912975 9.920321 1.981580
619 0 1 0.000000 17.980047 3.323131 1.326123
620 0 2 0.000000 18.308239 3.220351 0.458190
621 0 2 0.000000 17.368704 2.650992 1.439681
625 0 1 0.000000 5.712410 3.668755 1.290278
626 0 2 0.000000 5.065055 3.266906 1.858713
627 0 2 0.000000 6.390772 2.990189 1.416305
631 0 1 0.000000 9.512439 3.919798 15.337116
633 0 2 0.000000 9.402239 2.975127 15.438398
637 0 1 0.000000 4.302169 -4.533111 15.520295
638 0 2 0.000000 4.492870 -5.470357 15.734940
639 0 2 0.000000 3.629747 -4.219448 16.061987
646 0 1 0.000000 22.682775 4.807958 -0.125425
647 0 2 0.000000 22.231754 5.345827 0.539603
648 0 2 0.000000 22.352835 3.928326 -0.193945
664 0 1 0.000000 -4.709873 -1.160167 16.051046
665 0 2 0.000000 -4.384307 -0.408202 15.611589
666 0 2 0.000000 -4.661369 -1.889258 15.401713
679 0 1 0.000000 20.002428 13.258330 1.012373
680 0 2 0.000000 19.089148 12.888163 0.835193
681 0 2 0.000000 19.779951 14.012620 1.580701
692 0 2 0.000000 19.129797 -7.278617 14.977520
694 0 1 0.000000 23.581341 7.822631 0.055685
695 0 2 0.000000 23.583321 8.749043 0.333089
696 0 2 0.000000 22.981424 7.503420 0.716097
697 0 1 0.000000 6.023717 3.647562 14.922981
698 0 2 0.000000 6.194749 2.763717 15.294164
699 0 2 0.000000 6.841408 4.166736 14.899691
706 0 1 0.000000 14.744679 0.168583 14.571336
707 0 2 0.000000 14.770526 -0.805923 14.630928
708 0 2 0.000000 15.597531 0.472996 14.845857
721 0 1 0.000000 -6.430697 13.930667 1.546101
722 0 2 0.000000 -5.572278 13.921062 1.155746
723 0 2 0.000000 -7.085851 13.466628 1.006951
757 0 1 0.000000 -8.599059 -8.848877 15.983214
758 0 2 0.000000 -9.389349 -9.303841 16.345615
759 0 2 0.000000 -8.329459 -8.148664 16.628830
760 0 1 0.000000 -8.811548 -11.677625 15.247879
761 0 2 0.000000 -9.122253 -11.680658 16.120205
762 0 2 0.000000 -8.441256 -12.518666 14.988998
769 0 1 0.000000 -0.637779 1.769598 14.674929
772 0 1 0.000000 10.458597 -4.360938 15.696318
773 0 2 0.000000 9.626537 -4.787376 15.699798
774 0 2 0.000000 10.733171 -4.326540 16.629131
778 0 1 0.000000 23.855482 0.099921 0.135878
779 0 2 0.000000 23.301609 -0.317950 -0.480591
780 0 2 0.000000 23.457493 0.074611 1.016342
790 0 1 0.000000 13.327575 18.691593 0.184984
791 0 2 0.000000 13.539010 18.724512 1.143805
792 0 2 0.000000 14.122804 18.383011 -0.276116
805 0 1 0.000000 8.317327 12.453097 0.011631
806 0 2 0.000000 8.214714 11.979977 -0.817095
807 0 2 0.000000 7.643956 12.106247 0.571016
808 0 1 0.000000 -6.627875 18.937397 0.764031
809 0 2 0.000000 -6.144674 18.974310 -0.091672
810 0 2 0.000000 -6.634329 18.027813 1.120355
814 0 1 0.000000 9.413235 17.050543 1.283501
815 0 2 0.000000 8.806845 16.459610 0.870237
816 0 2 0.000000 9.854747 16.566849 1.994050
824 0 2 0.000000 -12.826041 9.648266 14.473744
826 0 1 0.000000 10.646581 -9.004037 15.100439
828 0 2 0.000000 11.486350 -8.752957 15.567554
840 0 2 0.000000 -1.882815 -7.642448 14.927705
844 0 1 0.000000 11.057641 10.204862 0.575306
845 0 2 0.000000 11.719215 10.859649 0.751010
846 0 2 0.000000 10.191843 10.449536 0.904794
847 0 1 0.000000 -1.556412 9.256845 0.111168
848 0 2 0.000000 -0.886530 8.720958 0.620353
849 0 2 0.000000 -1.867049 8.625572 -0.591141
850 0 1 0.000000 2.657259 3.969432 0.996256
851 0 2 0.000000 1.933472 4.275685 0.503153
852 0 2 0.000000 2.442349 2.987085 1.054253
862 0 1 0.000000 2.151248 20.064398 0.064456
863 0 2 0.000000 2.560205 20.918562 0.142265
864 0 2 0.000000 1.201191 20.173838 0.134194
866 0 2 0.000000 3.211575 19.047308 1.576009
867 0 2 0.000000 4.486593 18.195242 1.767054
868 0 1 0.000000 17.580212 17.054106 1.515341
869 0 2 0.000000 17.637638 17.934870 1.098243
870 0 2 0.000000 17.074244 16.488544 0.927758
871 0 1 0.000000 21.213745 6.848094 1.531196
873 0 2 0.000000 21.094061 7.837352 1.554195
886 0 1 0.000000 8.844785 1.038301 15.668630
887 0 2 0.000000 9.626300 0.452222 15.806659
888 0 2 0.000000 8.430771 0.861951 14.806337
913 0 1 0.000000 8.328286 9.124854 1.271513
914 0 2 0.000000 8.666552 9.560720 2.056227
915 0 2 0.000000 8.556817 8.183407 1.320907
931 0 1 0.000000 -2.628749 11.581133 1.630510
932 0 2 0.000000 -3.374992 10.992852 1.208835
933 0 2 0.000000 -1.896645 11.280444 1.080699
934 0 1 0.000000 -2.549613 -10.410111 15.070922
935 0 2 0.000000 -1.943947 -10.575294 15.821217
937 0 1 0.000000 -7.419087 16.510571 1.624281
938 0 2 0.000000 -7.214768 15.542755 1.599777
939 0 2 0.000000 -8.355089 16.649664 1.604523
940 0 1 0.000000 7.792031 -9.722832 15.190115
941 0 2 0.000000 8.624099 -9.212320 15.084683
942 0 2 0.000000 7.121375 -9.311865 14.646556
952 0 1 0.000000 2.834759 -7.683583 16.139290
953 0 2 0.000000 3.504881 -7.941237 15.512633
954 0 2 0.000000 2.070497 -7.587539 15.563384
958 0 1 0.000000 0.605749 -5.481779 15.084556
959 0 2 0.000000 1.089696 -4.993832 15.792537
960 0 2 0.000000 0.124837 -6.255994 15.424701
976 0 1 0.000000 9.806070 -1.704533 14.695053
977 0 2 0.000000 10.100114 -2.592877 15.073554
985 0 1 0.000000 -3.624344 16.613407 1.132094
986 0 2 0.000000 -3.381876 17.486988 1.328649
987 0 2 0.000000 -2.818116 16.095074 1.081092
1003 0 1 0.000000 15.771264 1.374334 1.346700
1004 0 2 0.000000 14.948516 1.469648 1.755220
1005 0 2 0.000000 15.843837 0.467945 1.046331
1021 0 1 0.000000 1.684696 3.379832 15.800386
1022 0 2 0.000000 2.483702 3.761667 16.222050
1023 0 2 0.000000 1.052057 3.255985 16.537655
1027 0 1 0.000000 15.417885 -2.430995 14.795515
1028 0 2 0.000000 15.842122 -2.709983 15.625147
1060 0 1 0.000000 -2.633713 19.224562 1.876251
1062 0 2 0.000000 -3.402461 19.803295 1.901579
1069 0 1 0.000000 3.414573 10.383295 1.215240
1070 0 2 0.000000 4.350452 10.312180 1.403170
1086 0 2 0.000000 14.010139 10.728263 1.806602
1090 0 1 0.000000 -14.317350 2.273768 15.301885
1091 0 2 0.000000 -13.863786 2.300436 16.168213
1092 0 2 0.000000 -13.701326 2.777565 14.704611
1093 0 1 0.000000 10.368279 5.080230 1.043255
1094 0 2 0.000000 11.244127 5.302044 0.567964
1095 0 2 0.000000 10.598372 4.153978 1.413585
1114 0 1 0.000000 6.334413 20.106037 0.680299
1115 0 2 0.000000 5.374663 19.975752 0.755191
1116 0 2 0.000000 6.768731 19.509918 1.353950
1121 0 2 0.000000 -7.479641 -1.029274 14.908469
1126 0 1 0.000000 8.234064 6.358088 0.126940
1127 0 2 0.000000 7.675419 6.180785 0.911950
1128 0 2 0.000000 9.063173 5.811150 0.393004
1132 0 1 0.000000 -0.742433 3.337900 1.116015
1133 0 2 0.000000 -0.415482 2.842301 1.854684
1134 0 2 0.000000 -1.723741 3.254593 0.943618
1135 0 1 0.000000 15.388371 15.432730 0.108121
1136 0 2 0.000000 15.430515 14.734361 -0.563495
1137 0 2 0.000000 14.442900 15.546124 0.384386
1154 0 2 0.000000 12.595478 7.589312 1.215513
1171 0 1 0.000000 23.813026 10.409404 1.148914
1172 0 2 0.000000 23.296955 10.998450 0.640354
1173 0 2 0.000000 23.947420 10.671934 2.086050
1177 0 1 0.000000 2.710626 1.096800 1.074331
1178 0 2 0.000000 3.450368 0.968209 0.457430
1179 0 2 0.000000 2.009261 0.669132 0.634902
1183 0 1 0.000000 27.636831 3.186806 0.368174
1184 0 2 0.000000 26.851612 3.446477 0.840083
1185 0 2 0.000000 27.343504 2.452987 -0.186504
1186 0 1 0.000000 0.242458 -11.783353 16.105946
1187 0 2 0.000000 1.039822 -11.606723 15.671049
1188 0 2 0.000000 -0.263442 -12.335183 15.523634
1189 0 1 0.000000 17.366463 19.637747 0.738136
1190 0 2 0.000000 16.905804 20.265505 1.358704
1191 0 2 0.000000 16.997871 19.803917 -0.155289
1192 0 1 0.000000 1.307056 0.082181 16.037252
1193 0 2 0.000000 0.698062 0.741409 15.664116
1194 0 2 0.000000 0.719427 -0.639063 16.412632
1195 0 1 0.000000 -3.970898 13.598446 0.368928
1196 0 2 0.000000 -3.480809 13.910618 -0.407564
1197 0 2 0.000000 -3.476198 12.846684 0.758563
1199 0 2 0.000000 1.056373 4.807480 14.552999
1225 0 1 0.000000 -2.868878 -4.698672 15.393450
1226 0 2 0.000000 -2.662394 -5.479416 14.841418
1227 0 2 0.000000 -2.367630 -4.869471 16.208429
1234 0 1 0.000000 17.454411 12.289632 0.889726
1235 0 2 0.000000 17.037638 12.329679 0.005261
1236 0 2 0.000000 16.795584 12.601671 1.498101
1243 0 1 0.000000 12.074059 0.930170 15.325414
1244 0 2 0.000000 11.969774 0.043820 15.790812
1245 0 2 0.000000 12.974027 0.747855 14.924089
1276 0 1 0.000000 15.272145 4.818461 0.729478
1277 0 2 0.000000 16.008615 4.485842 0.203616
1278 0 2 0.000000 15.710340 4.971949 1.608515
1282 0 1 0.000000 -2.731713 5.867566 0.151799
1283 0 2 0.000000 -2.802106 4.921953 0.207487
1284 0 2 0.000000 -2.497622 6.134059 1.017374
1294 0 1 0.000000 18.297026 -0.227750 0.501630
1295 0 2 0.000000 17.725471 -0.865195 0.030967
1296 0 2 0.000000 18.357040 0.529864 -0.100684
