LAMMPS data file via write_data, version 29 Sep 2021, timestep = 400000

1008 atoms
2 atom types

0.09295450750621903 18.306600492496248 xlo xhi
0.04600810428479818 22.524380895715836 ylo yhi
0.06671056420309718 19.43900543579563 zlo zhi
0.29904297712347155 -7.032034682209865 0.2351764841125722 xy xz yz

Masses

1 1.008
2 15.999

Atoms # full

1 0 1 0 6.536140668288539 1.3827877416925456 4.874175262745486 0 0 0
2 0 2 0 6.7408478848834985 2.0274988940434677 5.553313052366127 0 0 0
3 0 2 0 5.600562826838713 1.1681609367373647 5.059452419348861 0 0 0
4 0 1 0 3.741863825179724 1.3090584390458704 5.161873972590546 0 0 0
5 0 2 0 3.06100176687606 0.6050751222696001 5.198037267467519 0 0 0
6 0 2 0 3.394566020347443 1.9799777302442552 4.574687188284165 0 0 0
7 0 1 0 -0.8194521261511575 6.2480174485177855 4.759144385950244 0 0 0
8 0 2 0 -0.8422325754456967 5.799644642261707 5.621993314566778 0 0 0
9 0 2 0 -1.0794137218515747 5.513804401030897 4.144267810039661 0 0 0
10 0 1 0 1.7820554189522042 6.632504147429107 4.522109678476716 0 0 0
11 0 2 0 2.119921502153164 5.936336517004808 5.118891452083574 0 0 0
12 0 2 0 0.8977637212066711 6.7146035960595825 4.76701197509648 0 0 0
13 0 1 0 4.99299762325534 5.131255746486642 9.80478644190184 0 0 0
14 0 2 0 4.0887398471476075 4.821518263861846 9.83700537193745 0 0 0
15 0 2 0 4.951538104856638 5.962212814122672 10.255033569339567 0 0 0
16 0 1 0 5.4875603012607765 5.0636967828921895 0.39214751147344074 0 0 0
17 0 2 0 6.436468911517023 4.859372826120552 0.4209843068772094 0 0 0
18 0 2 0 5.0126971969553145 4.250546420407478 0.261920200023919 0 0 0
19 0 1 0 -5.921047432866065 2.9037138749104585 19.245540259251477 0 0 -1
20 0 2 0 -5.999095987661476 2.3774166889344133 18.418087871378766 0 0 -1
21 0 2 0 1.1097994565697744 2.0237681125547113 0.5812970068204879 0 0 0
22 0 1 0 0.43371558052325554 2.959843610432364 9.550725656690995 0 0 0
23 0 2 0 0.5677777044094818 2.2369600164151704 10.207741521003415 0 0 0
24 0 2 0 1.0789773962155076 3.7026682539267206 9.648894926797007 0 0 0
25 0 1 0 4.884985715431955 6.40701951434768 7.308914909298414 0 0 0
26 0 2 0 4.677649465861094 6.001466026715241 6.453658992168542 0 0 0
27 0 2 0 4.818533969924207 5.742988039038769 8.017795583023632 0 0 0
28 0 1 0 5.7360239083423155 6.574405108039983 2.9252619602392826 0 0 0
29 0 2 0 5.241482990486634 7.424991418185836 2.730580170412389 0 0 0
30 0 2 0 5.520393588600705 6.068459677949033 2.1206856008964583 0 0 0
31 0 1 0 1.0171101310110344 1.0331877580611033 2.217955054737557 0 0 0
32 0 2 0 1.0726038563637779 1.3042659904972853 3.1507313785898563 0 0 0
33 0 2 0 0.306748891678326 0.3584895254895594 2.0545592905831507 0 0 0
34 0 1 0 -0.1350340716002103 1.4066242801121225 7.277044346746007 0 0 0
35 0 2 0 -0.07097574195393408 1.999050878582209 8.063850644417943 0 0 0
36 0 2 0 -0.9913587433298456 0.9818273592898212 7.34676561441915 0 0 0
37 0 1 0 5.982910838801651 2.709743830063022 2.5016437357659966 0 0 0
38 0 2 0 6.209344041053143 2.332187692010325 1.651806323305679 0 0 0
39 0 2 0 6.3038610573205425 2.0495508292177 3.200266891653957 0 0 0
40 0 1 0 3.9483252729070255 3.0513486496802997 7.3134310605171775 0 0 0
41 0 2 0 4.0223587492572666 2.3320057279311146 6.685382119682727 0 0 0
42 0 2 0 3.6275149110219522 2.673998225954849 8.117063187404613 0 0 0
43 0 1 0 -0.43116437505777405 4.807638197874378 7.185500254629996 0 0 0
44 0 2 0 -0.5573742233310073 5.100299031014356 8.113720053257179 0 0 0
45 0 2 0 0.47666015992117083 4.716384433546212 6.938694146768153 0 0 0
46 0 1 0 1.3393077400398916 5.247283080461271 2.129704795839136 0 0 0
47 0 2 0 1.6160306236941429 5.705501268189118 1.2618330022128734 0 0 0
48 0 2 0 1.5493419783498779 5.872392315008651 2.925569099375116 0 0 0
49 0 1 0 6.617558245173506 3.6188489485744295 6.835999551909902 0 0 0
50 0 2 0 5.902630373120489 3.4211693892958652 7.419676314062675 0 0 0
51 0 2 0 6.174945671037991 4.184555733078541 6.151791381259634 0 0 0
52 0 1 0 3.295955029747332 3.3674511824101074 3.089992188140336 0 0 0
53 0 2 0 4.252776173194254 3.2667820634962013 2.8945176188437776 0 0 0
54 0 2 0 2.891659408172796 3.954238529181922 2.4301423991323645 0 0 0
55 0 1 0 -0.8738023692469818 4.077146714404769 3.354706617169395 0 0 0
57 0 2 0 -0.19224430295932093 4.439926521784117 2.767052289035771 0 0 0
58 0 1 0 1.8075490736900606 4.369741799397712 6.030165418524959 0 0 0
59 0 2 0 1.4265999930904085 3.5564099661542077 5.676218619843427 0 0 0
60 0 2 0 2.501747572307985 3.9920361432287113 6.649527324107416 0 0 0
61 0 1 0 8.48264541517042 6.963842325767145 1.6342461154988304 0 0 0
62 0 2 0 8.151134360779846 7.7537987432941495 1.1816774807034554 0 0 0
63 0 2 0 7.671726553226215 6.735874869938865 2.1240773599985157 0 0 0
64 0 1 0 2.3587218568003743 7.404511052944609 8.315005837673574 0 0 0
65 0 2 0 2.640904427523738 8.166293016036734 8.776333030522943 0 0 0
66 0 2 0 3.152341763552695 7.166466245590603 7.784682392162767 0 0 0
69 0 2 0 -2.528673754484178 1.359438423965693 8.828392942170147 0 0 0
70 0 1 0 3.5923550498647234 0.5789886770572517 1.4864247716414454 0 0 0
71 0 2 0 2.7719337172239835 0.7749365473055356 1.9433269845329415 0 0 0
72 0 2 0 4.392553761109327 22.46481984616381 2.070458983782446 0 -1 0
73 0 1 0 4.742107431327323 4.923035235287814 5.115936073722266 0 0 0
74 0 2 0 4.086430217863419 4.265519717055968 4.837521293314156 0 0 0
75 0 2 0 5.171182394938156 5.266931156784781 4.324756696656952 0 0 0
76 0 1 0 0.5371931050174739 2.207528800473559 4.791214978032424 0 0 0
77 0 2 0 0.16992968178692358 1.8174049532906753 5.5693564432464555 0 0 0
78 0 2 0 -0.11522364511863303 2.8580193826183744 4.390022182334445 0 0 0
79 0 1 0 6.764388761235428 1.5832868404098126 0.15034032177244336 0 0 0
80 0 2 0 -0.7189572540171651 1.1499293395847971 18.945016085053176 0 0 -1
81 0 2 0 7.346659807892947 0.9643543692486267 0.6864945685237853 0 0 0
82 0 1 0 -4.67311046334951 6.550352854786378 19.360274075774306 0 0 -1
83 0 2 0 -5.209803177777624 7.075965215474817 18.7217905691044 0 0 -1
84 0 2 0 -4.351362778324573 5.856242742442889 18.779306583861064 0 0 -1
88 0 1 0 12.7184913444821 1.1480048786140358 4.978097124259548 0 0 0
89 0 2 0 11.970715873091455 0.5778613467076494 5.027514842270345 0 0 0
90 0 2 0 12.751986895654175 1.7572142844972518 5.7466954324690835 0 0 0
91 0 1 0 8.421041479594368 6.5186793197475685 5.2660397468364 0 0 0
92 0 2 0 7.981618748408199 7.390261538840619 5.1612700991984015 0 0 0
93 0 2 0 8.116055661309685 6.120026182885205 4.487072504718667 0 0 0
94 0 1 0 11.079632306155728 6.852096481619775 4.725785607841728 0 0 0
95 0 2 0 10.16067750443787 6.870993195560617 5.024702158746312 0 0 0
96 0 2 0 11.489343720904667 7.725485485776187 4.826521363038873 0 0 0
100 0 1 0 14.5270484641009 5.046831339618516 0.12150508180552785 0 0 0
101 0 2 0 8.292888072718412 4.769914882522991 19.432042637889978 0 0 -1
102 0 2 0 7.703658679932569 6.039054427920166 18.837574530965085 0 0 -1
103 0 1 0 10.356326263898735 2.7115334872784262 0.46463102937418854 0 0 0
104 0 2 0 9.945036277015317 3.539258047271365 0.15207894717188358 0 0 0
105 0 2 0 11.36237438495274 2.7402539944555517 0.3864091550560989 0 0 0
106 0 1 0 9.348065879451301 3.024906415364425 9.702816006918823 0 0 0
107 0 2 0 9.294451828991184 2.493499012325243 8.891299357798282 0 0 0
108 0 2 0 9.585109789461232 2.3150312310984344 10.365757929841072 0 0 0
111 0 2 0 12.891830766352395 6.816122321630073 6.925984955779905 0 0 0
112 0 1 0 15.297667869703428 6.529552392160498 2.288332474951647 0 0 0
114 0 2 0 14.96712425822521 5.87672417230016 1.638980867000787 0 0 0
115 0 1 0 10.08422011021999 1.0906611881788624 2.859012408503529 0 0 0
116 0 2 0 10.892424040472534 0.5770115762283596 2.7262071129359633 0 0 0
117 0 2 0 10.132655442991263 1.6826490446752687 2.117651800482984 0 0 0
118 0 1 0 9.28496045854503 1.1785902861706254 7.468995321259966 0 0 0
119 0 2 0 9.360243446978213 1.6034175399582373 6.58894775839241 0 0 0
120 0 2 0 10.136255282864258 0.7330449903354592 7.583334625174656 0 0 0
123 0 2 0 14.529168150451817 2.6991147068406853 2.744133250444099 0 0 0
124 0 1 0 12.814254985752736 2.911698363803548 7.351236751123082 0 0 0
125 0 2 0 12.328828322713719 3.6042851434681054 6.825173881084009 0 0 0
127 0 1 0 8.775268652072175 5.002099540577631 7.536387589435812 0 0 0
128 0 2 0 8.50234925217751 5.761903117050912 6.961493442539624 0 0 0
129 0 2 0 8.01353562904647 4.482931906354609 7.42022398156411 0 0 0
130 0 1 0 10.67355512881012 4.877126182322757 2.6263058578384646 0 0 0
131 0 2 0 9.730764440428322 4.6481373927563565 2.779398269970212 0 0 0
132 0 2 0 10.74937379251445 5.670011799368023 3.131848262487546 0 0 0
135 0 2 0 -1.8477517545704103 3.7670140031656976 6.4898362007523875 1 0 0
136 0 1 0 12.783562609599015 3.1589666474872735 3.1305847561984437 0 0 0
137 0 2 0 11.945729564293737 3.5828368316582107 2.919098656908573 0 0 0
138 0 2 0 12.606765446114123 2.433987311471884 3.7717428130643444 0 0 0
139 0 1 0 7.902897555395187 4.40864611005822 3.400041481667045 0 0 0
140 0 2 0 7.15384542953459 3.992816129971224 2.8745185550484496 0 0 0
141 0 2 0 8.188719268738716 3.8544163164552208 4.12018895411601 0 0 0
142 0 1 0 11.066185655587827 4.44149460418119 5.898216724011689 0 0 0
143 0 2 0 11.433280180764946 5.18720340602922 5.417813462708595 0 0 0
144 0 2 0 10.33128473996066 4.77988197792588 6.444892957928514 0 0 0
148 0 1 0 11.374218350401874 7.078356955920719 7.890760620775226 0 0 0
149 0 2 0 11.22665333567086 6.367121185751437 8.555641579553841 0 0 0
150 0 2 0 10.536799232394854 7.585453654047744 7.771398204668884 0 0 0
151 0 1 0 6.727376797651303 0.7443671336879301 8.471687827402823 0 0 0
152 0 2 0 7.618156765702608 0.8910674738645824 8.048691182071144 0 0 0
153 0 2 0 6.610129150895517 1.481464875383548 9.098170495065778 0 0 0
154 0 1 0 12.779869080189375 0.39237616835008393 1.7014593768299555 0 0 0
155 0 2 0 12.792692733582385 1.2426360588378935 1.2692556215818835 0 0 0
156 0 2 0 12.835007183746033 22.1800682306677 1.0779030467688797 0 -1 0
158 0 2 0 13.508453165534382 4.638344991654948 4.19541999561928 0 0 0
160 0 1 0 9.240500935535774 2.514021832663247 4.982986447526722 0 0 0
161 0 2 0 9.97229522897755 3.087964070801265 5.350482289401635 0 0 0
162 0 2 0 9.639549232127154 1.9520984644789414 4.283192119700197 0 0 0
165 0 2 0 8.151230317900087 1.2366961197748743 18.990737380911227 0 0 -1
166 0 1 0 11.611283948029605 6.257549661980864 0.2763084507767849 0 0 0
167 0 2 0 11.09975325506813 5.721215442247494 0.9145350729077087 0 0 0
168 0 2 0 3.942919066577579 7.1574310960394065 19.22649458287215 0 0 -1
169 0 1 0 6.854101977578857 8.68323082503073 4.523177151419822 0 0 0
170 0 2 0 5.976354777683459 8.32934298723693 4.696646993069349 0 0 0
171 0 2 0 7.001220970593229 9.379562753934449 5.167265263306874 0 0 0
172 0 1 0 3.942631567007454 8.517794875094733 4.814276745173282 0 0 0
173 0 2 0 3.1407458544907043 8.027815288481868 4.722101640985387 0 0 0
174 0 2 0 3.776189966496638 9.329333988040148 4.2815148766273605 0 0 0
175 0 1 0 -0.6434480448234927 13.897476239105579 4.794757945468919 0 0 0
176 0 2 0 -1.1973281930177464 14.684805065458512 4.798275592194811 0 0 0
177 0 2 0 0.2978693055988044 14.1583884920816 4.755032813827156 0 0 0
178 0 1 0 2.3476839559449822 13.832152890591024 4.919303605570132 0 0 0
179 0 2 0 2.533629699476182 12.98217326249752 5.38820392972799 0 0 0
180 0 2 0 2.2794684093399473 13.591360975699548 3.988215829925095 0 0 0
181 0 1 0 5.020855133047375 12.145044109109012 9.560075701754794 0 0 0
182 0 2 0 5.205794527603174 12.810778286970685 10.2096004046088 0 0 0
183 0 2 0 5.7652817659429045 11.51136203153315 9.556583367827919 0 0 0
184 0 1 0 -1.548701162980823 12.928996163395613 19.382564852762258 0 0 -1
185 0 2 0 -1.4404071310655109 13.707313834907698 18.82636802123894 0 0 -1
186 0 2 0 -0.6394170661785603 12.524680039271965 19.410691151081267 0 0 -1
187 0 1 0 -5.840180704613601 10.547120170998623 19.315471761945005 0 0 -1
188 0 2 0 1.3594488786043966 9.884527691448376 0.8164576740578448 0 0 0
189 0 2 0 -4.9308436851516655 10.990701336020512 19.150157638636806 0 0 -1
190 0 1 0 0.4970586260543506 9.921302213489612 9.395261895483518 0 0 0
191 0 2 0 0.40581677359820967 9.744492490620956 8.441645489644031 0 0 0
192 0 2 0 1.07570154191259 10.65582322994782 9.531769205987121 0 0 0
193 0 1 0 4.7489873597421255 14.088408715677692 7.107157598116803 0 0 0
194 0 2 0 4.806374625144384 13.754284036044982 6.198181141823831 0 0 0
195 0 2 0 4.658540836177424 13.336326014949373 7.6792025054461215 0 0 0
196 0 1 0 6.007024457263679 13.651833293598107 2.4120191391159373 0 0 0
197 0 2 0 5.683976005118116 13.165723610480859 1.63079897636515 0 0 0
198 0 2 0 5.7371569165703935 13.328059090789779 3.2476875623696264 0 0 0
199 0 1 0 1.3866365312271909 8.728809930232584 2.2128304248654986 0 0 0
200 0 2 0 0.7941861136890741 7.9599458192882135 1.9683648478484255 0 0 0
201 0 2 0 2.3536165370608506 8.40941502496 2.17836003619565 0 0 0
202 0 1 0 0.2641839337320966 8.640576403102356 7.075503944215614 0 0 0
203 0 2 0 -0.5197588296948341 8.046841421421929 7.112647698248602 0 0 0
204 0 2 0 1.0139276987464845 8.154438310743855 7.4592367681783305 0 0 0
205 0 1 0 6.831256121114459 10.324594317093844 2.3303685955399085 0 0 0
206 0 2 0 6.825636745886441 9.663923960297964 3.025973731829678 0 0 0
207 0 2 0 7.60198649001468 10.864155711005923 2.622230142677046 0 0 0
208 0 1 0 4.639222841165996 9.802831230562997 7.06954731894874 0 0 0
209 0 2 0 4.056363104175028 10.561054278539219 7.091655690967092 0 0 0
210 0 2 0 4.21252436665212 9.20599571679379 6.428668730691476 0 0 0
211 0 1 0 -0.10676677018049219 12.374205415934231 6.8840945662213 0 0 0
212 0 2 0 -0.1562445347801802 12.768108144782117 7.762941185056376 0 0 0
213 0 2 0 -0.349633246942598 13.109070393757417 6.219812795055876 0 0 0
214 0 1 0 1.8473806893402709 12.375274526289543 2.434710708805891 0 0 0
215 0 2 0 1.8727388525337272 12.590441460129322 1.4763611018745981 0 0 0
216 0 2 0 1.0070149291252783 11.893358525916911 2.534326535988001 0 0 0
217 0 1 0 7.149612426826332 10.656253326616635 6.32190868702394 0 0 0
218 0 2 0 6.370757703099606 10.430435440235001 6.840951011303675 0 0 0
219 0 2 0 7.676162785595151 11.174938865198355 6.9731255975040245 0 0 0
220 0 1 0 3.944992984439124 10.739606847782293 3.2601108667304763 0 0 0
221 0 2 0 4.612663493428947 10.729116096037206 2.5452276764959456 0 0 0
222 0 2 0 3.1679944137954816 11.19440171148497 2.9849132428438363 0 0 0
223 0 1 0 -0.5690543045257137 11.537009205396823 3.3578858673541934 0 0 0
224 0 2 0 -0.19922408155692128 10.874940522348313 3.9942966843398198 0 0 0
225 0 2 0 -0.8566945080596533 12.330228267445298 3.843546490983513 0 0 0
226 0 1 0 2.551064100395644 11.526763622373668 6.524946133102473 0 0 0
227 0 2 0 1.757530771670818 11.892472154015021 6.963626783229072 0 0 0
228 0 2 0 2.1335334899306853 10.918931526994655 5.913263425133555 0 0 0
229 0 1 0 8.339325149176432 14.72791956574757 1.4393095845896544 0 0 0
230 0 2 0 7.730241639117811 14.410985649443807 2.102759191853898 0 0 0
231 0 2 0 9.084021300822032 15.084549409873166 1.8925877760231113 0 0 0
232 0 1 0 2.2609470900793336 14.360076258584757 8.304863874774405 0 0 0
233 0 2 0 3.0218703234965636 14.40852522358115 7.75722692319065 0 0 0
234 0 2 0 1.549950503324959 14.68315136205764 7.687333860522714 0 0 0
237 0 2 0 -2.441905510197745 8.676148206061638 8.392355766598387 0 0 0
238 0 1 0 3.837291913637782 8.095779719540326 1.5048148844416047 0 0 0
239 0 2 0 4.2167923677706645 8.883978042090888 0.9903581385725321 0 0 0
240 0 2 0 3.606177528201264 7.509918667388453 0.7948777512282682 0 0 0
241 0 1 0 5.302332918582629 12.472455803655206 4.966485125078006 0 0 0
242 0 2 0 6.108231988916089 12.036225878457353 5.330078847994882 0 0 0
243 0 2 0 4.791904901933822 11.81949471283746 4.47478629040377 0 0 0
244 0 1 0 1.1940584006698867 9.696079199767738 4.706963713983507 0 0 0
245 0 2 0 1.1623313861989442 9.17615447934925 3.8789703942376823 0 0 0
246 0 2 0 0.6477048115711821 9.17592826603002 5.328238359113189 0 0 0
247 0 1 0 0.37115846940187947 9.330582121972588 19.31386767588664 0 0 -1
248 0 2 0 6.975763912247809 9.608722228021223 0.6592475631548035 0 0 0
249 0 2 0 -0.3345748197248506 8.665487961812783 19.069879088220198 0 0 -1
250 0 1 0 2.3898210795359853 13.715147191863437 0.1505770985523009 0 0 0
251 0 2 0 -5.180267555301311 14.536813158769204 18.958862838585183 0 0 -1
252 0 2 0 2.9823348688939055 14.27661758703471 0.6677404189926911 0 0 0
256 0 1 0 12.759316683489672 9.035691318455012 4.800141006141687 0 0 0
257 0 2 0 13.549950675664792 8.557541825965147 4.597727958228935 0 0 0
258 0 2 0 12.942063975837211 9.498073499887585 5.628241113520509 0 0 0
259 0 1 0 8.57492562337604 14.21104685142191 5.299743444713217 0 0 0
260 0 2 0 9.271398939859514 14.738616579266292 5.742203450109088 0 0 0
261 0 2 0 8.944751283364624 13.463967713126126 4.815908734356887 0 0 0
262 0 1 0 11.607385467471387 13.997519548606757 5.100888486472214 0 0 0
263 0 2 0 12.10160203840853 13.866938747684825 4.257857296249637 0 0 0
264 0 2 0 11.973179977530751 14.82639672909718 5.417213068866874 0 0 0
268 0 1 0 14.602555896658668 12.587670844932157 0.2939609214263106 0 0 0
269 0 2 0 14.674497011992546 12.960709865936868 1.1956548773012714 0 0 0
270 0 2 0 13.860801651182662 11.981936770121608 0.34317753467841977 0 0 0
271 0 1 0 3.216970568272325 10.467299599643274 19.30289273971014 0 0 -1
272 0 2 0 4.15175202049336 10.546253585974915 19.09390148322646 0 0 -1
273 0 2 0 10.284819112336415 9.912507993899482 0.8735030708313378 0 0 0
274 0 1 0 9.747695761057116 10.411417147058957 10.021668701845272 0 0 0
275 0 2 0 10.490982924633961 11.008035437561956 10.033347110553576 0 0 0
276 0 2 0 9.886949951726777 9.922523758707834 9.196911733217478 0 0 0
279 0 2 0 13.143147026473008 14.503575790382923 7.62418758068022 0 0 0
283 0 1 0 10.44994184081688 9.113095362417608 2.7739503375607772 0 0 0
284 0 2 0 9.726352640975207 8.461727817768269 2.791300976512016 0 0 0
285 0 2 0 11.340142055663843 8.65735021602414 2.8082226670262225 0 0 0
286 0 1 0 9.536847647313891 9.072235255181598 7.691788359597754 0 0 0
287 0 2 0 8.623438004405749 8.783615188978812 7.749645873988611 0 0 0
288 0 2 0 9.698852870850486 9.388594711968842 6.808936266370175 0 0 0
291 0 2 0 14.805347312835373 10.66314143944972 2.1263499223204603 0 0 0
295 0 1 0 8.997823555955133 12.475748037789202 7.4024771962701 0 0 0
296 0 2 0 8.859218528365144 13.118613376310753 6.658736455153014 0 0 0
297 0 2 0 9.918245272115783 12.131494133204724 7.278088506941411 0 0 0
298 0 1 0 10.971046006256104 12.43295455403779 2.0221295565538435 0 0 0
299 0 2 0 11.15374855844109 12.681779280338352 1.120392206579933 0 0 0
300 0 2 0 11.668081379936961 11.779996764992779 2.2717113406516862 0 0 0
303 0 2 0 -1.3422909075787801 10.878646681409261 6.268931457048253 1 0 0
304 0 1 0 13.30888579397447 11.207132197462174 2.909083820469502 0 0 0
305 0 2 0 13.184198550499177 10.334289851306156 3.3773615901295506 0 0 0
306 0 2 0 13.702832364798313 11.775231333872181 3.603145909398328 0 0 0
307 0 1 0 8.711821088690137 11.869805032242935 3.773655694876418 0 0 0
308 0 2 0 9.53317559684001 11.909100760965458 3.324627343806825 0 0 0
309 0 2 0 8.983485386769033 11.324296340041615 4.539288697514049 0 0 0
310 0 1 0 11.560325758677115 11.805904229638212 6.513262071406219 0 0 0
311 0 2 0 12.424238537591169 11.320456910108692 6.538225620929498 0 0 0
312 0 2 0 11.768003194477059 12.687943841610231 6.20105545725746 0 0 0
314 0 2 0 0.05499568944450739 14.854948762103135 1.8716936409351277 1 0 0
315 0 2 0 17.79952141783045 13.581922247855156 1.1324098466232746 0 0 0
316 0 1 0 11.394855737033277 14.570192680032104 8.199431360212538 0 0 0
317 0 2 0 11.282355405375894 13.743744428098031 8.743545887841321 0 0 0
318 0 2 0 11.702256369051412 15.252932144615029 8.84091459540215 0 0 0
319 0 1 0 6.948293770987619 8.129743408337909 8.294573175080801 0 0 0
320 0 2 0 7.347017429572234 7.358675486355994 8.751493019969386 0 0 0
321 0 2 0 6.079121057577597 7.773909983700234 7.946598306667522 0 0 0
322 0 1 0 12.868095615991624 8.0902627585594 2.038000464553585 0 0 0
323 0 2 0 12.416266452137668 7.335642377817754 1.5383720273783004 0 0 0
324 0 2 0 13.777378777471654 7.743262331105204 1.9427438400880943 0 0 0
328 0 1 0 10.083097042722821 10.10851182368126 5.331337094951438 0 0 0
329 0 2 0 10.309701315420812 9.855509362419943 4.423113186477243 0 0 0
330 0 2 0 10.76320772107864 10.71811374033987 5.651513090775085 0 0 0
334 0 1 0 4.690179091818988 13.975899230373118 19.114513843343808 0 0 -1
335 0 2 0 5.038751831791874 13.489868495152082 18.303085235810713 0 0 -1
336 0 2 0 4.035186520530535 14.583995796165306 18.67822491762721 0 0 -1
337 0 1 0 6.716967710905407 16.563896333007442 5.132839283578901 0 0 0
338 0 2 0 7.278971737780686 15.790528980773276 5.135567637002724 0 0 0
339 0 2 0 6.842697771515123 17.075473256442148 4.341407225358991 0 0 0
340 0 1 0 3.7977930236773636 16.43656683014968 5.07499290860233 0 0 0
341 0 2 0 3.4498827722150676 15.53402361613125 5.06559096065235 0 0 0
342 0 2 0 4.754769216732355 16.361791436206307 5.03604465513379 0 0 0
343 0 1 0 -0.6107371176744119 21.2785895662117 5.169246590091434 0 0 0
344 0 2 0 -0.6930982918047874 20.885969650546674 6.064069457321733 0 0 0
345 0 2 0 -1.383731973170823 21.869052226192913 5.120562351878166 0 0 0
346 0 1 0 2.2317508623484725 21.760401155838665 5.2647512855485745 0 0 0
347 0 2 0 2.2115495896349042 20.810020003282023 5.497969877748888 0 0 0
348 0 2 0 1.2989186379588327 22.02600552206576 5.41653358171674 0 0 0
349 0 1 0 4.979970690903782 20.181339461711648 9.31998505681564 0 0 0
350 0 2 0 5.223105778714932 20.89973782063416 9.921745191110547 0 0 0
351 0 2 0 5.218620828003761 20.514059648196973 8.441517909482377 0 0 0
352 0 1 0 5.914509743749315 19.99816247506938 0.5056680657159629 0 0 0
353 0 2 0 5.032390137222296 19.541116665263285 0.5533349604661498 0 0 0
354 0 2 0 5.927628906284705 20.56051926806601 1.2917241494264058 0 0 0
355 0 1 0 0.8818651612324047 17.668343794448177 0.5201004820184658 0 0 0
356 0 2 0 1.1326335150539288 17.188163708355027 1.3136826282986178 0 0 0
357 0 2 0 -6.21810830155912 17.200511692283538 19.24126715130007 0 0 -1
358 0 1 0 0.8701626105010782 17.598304316349182 9.430911225136104 0 0 0
359 0 2 0 0.8732392109643166 16.93976278043563 10.15994081494127 0 0 0
360 0 2 0 1.5545586444580102 18.20658258879258 9.699530593141503 0 0 0
361 0 1 0 4.727662990486287 21.978711774526776 7.120876462874604 0 0 0
362 0 2 0 5.215067385350403 22.594424279334422 7.64723917321325 0 0 0
363 0 2 0 3.824412848881505 22.091405584218354 7.434439565013831 0 0 0
364 0 1 0 5.862279926213664 21.55002304919751 2.70107821579934 0 0 0
365 0 2 0 6.731173945323185 21.85824971509527 2.5380058989092995 0 0 0
366 0 2 0 5.709880769109386 21.095624978229967 3.5717146692201807 0 0 0
367 0 1 0 1.4030271638251275 16.07089679956857 2.6335041303010094 0 0 0
368 0 2 0 2.3110823475522038 15.826671355699453 2.7934417898924235 0 0 0
369 0 2 0 1.232179437142522 16.574989047550396 3.4273680165106994 0 0 0
370 0 1 0 0.41327246833478926 16.093450671703543 7.254795410629379 0 0 0
371 0 2 0 0.7449985323726724 16.593603417754125 7.971058082398996 0 0 0
372 0 2 0 0.38551571262690976 16.74227612880982 6.518189630552194 0 0 0
373 0 1 0 6.305789800365252 17.888301612023692 2.627585388096009 0 0 0
374 0 2 0 6.3281982566660115 17.808803952590804 1.6564907136122449 0 0 0
375 0 2 0 5.467630571427556 18.281779623173655 2.835490977725005 0 0 0
376 0 1 0 3.8747114196784938 17.75542692869377 7.692593480658953 0 0 0
377 0 2 0 3.4923106470535767 17.316635977938024 6.888724805688086 0 0 0
378 0 2 0 4.799774148299919 18.00316947411489 7.43173174534498 0 0 0
379 0 1 0 -0.23332360623199344 20.24890563645341 7.783718888962809 0 0 0
380 0 2 0 -0.8658021973498644 19.53187777902601 7.671348122872743 0 0 0
381 0 2 0 -0.446489054340216 20.863687300376615 8.56065666449427 0 0 0
382 0 1 0 1.6251189930428036 20.40114810177715 2.588966346232495 0 0 0
383 0 2 0 2.318327447248435 19.793919717665663 2.869788415902315 0 0 0
384 0 2 0 1.5272244885095687 21.029598657780156 3.3258909035628674 0 0 0
385 0 1 0 6.696829486161725 18.53088032556873 7.0387532571092555 0 0 0
386 0 2 0 7.620041224286121 18.840152011567643 6.894715445977352 0 0 0
387 0 2 0 6.612548355998202 17.799162606309306 6.410865169061 0 0 0
388 0 1 0 3.6152524192242845 18.40512985313654 3.4092339717276072 0 0 0
389 0 2 0 3.4260671589709366 17.580309447403195 3.9093530814399964 0 0 0
390 0 2 0 3.9845804578961963 19.104710718444554 3.9441776077065827 0 0 0
391 0 1 0 17.303177246061768 19.242016436466482 3.2838037912932787 -1 0 0
392 0 2 0 -0.13772731403373195 19.4374934481491 2.7189859261946605 0 0 0
393 0 2 0 -0.9764258996627216 19.999337224465506 3.979059582131668 0 0 0
394 0 1 0 1.8163080448467 19.330688410056705 6.37407880268576 0 0 0
395 0 2 0 1.1557986514150511 19.704343885095263 7.006156237242007 0 0 0
396 0 2 0 2.608800768319254 19.088402246268267 6.8672784345051845 0 0 0
397 0 1 0 8.300556773371834 22.0656878097298 1.793219150536897 0 0 0
398 0 2 0 8.661705647635385 21.33115006756174 1.2678914278844848 0 0 0
399 0 2 0 9.062136810932316 22.452418092310253 2.217003512877048 0 0 0
400 0 1 0 2.295211201501741 22.485671241992364 8.56513590702921 0 0 0
401 0 2 0 2.432441597964335 0.6929667495149672 9.115217679822893 0 1 0
402 0 2 0 1.1771336111375525 0.33681457281324423 8.12065426455587 0 1 0
403 0 1 0 -2.4921550426956416 15.910938772238593 7.870023253380321 0 0 0
404 0 2 0 -1.5601622479436996 15.769006472756947 7.655091035415734 0 0 0
405 0 2 0 -2.4911011397382006 16.662131449118966 8.504927160981241 0 0 0
406 0 1 0 4.023269031048703 15.593291127604115 1.8309575041007264 0 0 0
407 0 2 0 4.867912028499129 15.129938305580183 1.9840191168339159 0 0 0
408 0 2 0 4.281133280384481 16.231622469380728 1.1463566517239383 0 0 0
409 0 1 0 5.124496776145146 20.3204932620891 5.159219264264379 0 0 0
410 0 2 0 5.586753140566499 19.796185494660847 5.863427880480495 0 0 0
411 0 2 0 4.915937476328219 21.094370815934465 5.729061953771345 0 0 0
412 0 1 0 0.7627055769671176 17.612450954498684 4.771083276178286 0 0 0
413 0 2 0 1.3031958031761266 18.22007862404469 5.323915993268057 0 0 0
414 0 2 0 0.03489389274932608 18.10997293630553 4.349034916216274 0 0 0
415 0 1 0 6.98666040025559 16.71094856564595 0.07818239370690293 0 0 0
416 0 2 0 7.631480854765056 16.087658568774 0.45484839503674285 0 0 0
417 0 2 0 0.35782780366559486 17.331958551050587 18.670424766915126 0 0 -1
418 0 1 0 -4.2776959997344814 21.41538195656278 19.380113748339603 0 0 -1
419 0 2 0 2.2257237447669915 20.66983349876708 0.6779046531602453 0 0 0
420 0 2 0 3.3144620324462313 21.857098024166756 0.4709889221851384 0 0 0
424 0 1 0 13.029629605540416 16.266027551448694 5.436630223744093 0 0 0
425 0 2 0 14.01023478619678 16.09228203453448 5.368208115447354 0 0 0
426 0 2 0 12.834211432128278 16.92284717310826 4.760003572193579 0 0 0
427 0 1 0 8.610979806517864 21.74204519296673 5.180727048921029 0 0 0
428 0 2 0 7.9274789579191145 22.43302368452704 5.124727487763417 0 0 0
429 0 2 0 8.25766469232566 21.06458148731425 4.623591966290636 0 0 0
430 0 1 0 11.315763608433778 21.41490132813742 4.705964520041881 0 0 0
431 0 2 0 11.392277398381964 20.981147975995334 3.836423796041424 0 0 0
432 0 2 0 10.374005624973979 21.54392825706844 4.867838956642796 0 0 0
436 0 1 0 14.755887764913403 19.969955335354598 0.23097215746530256 0 0 0
437 0 2 0 8.648806987156188 19.953457876725327 19.43149741100506 0 0 -1
438 0 2 0 7.210936676796051 19.36519068093394 19.41581616140209 0 0 -1
439 0 1 0 10.155029819766472 17.80480139650562 0.3336660046767551 0 0 0
440 0 2 0 11.141834788327168 17.779856478858026 0.33584183752890406 0 0 0
441 0 2 0 10.043705510505319 17.6248893682871 1.2523582091539038 0 0 0
442 0 1 0 9.326349983918888 17.977914947349536 9.535557679135225 0 0 0
443 0 2 0 8.424990905920085 18.279880903868378 9.797513299666548 0 0 0
444 0 2 0 9.4234599434218 17.715188063394592 8.578895494584293 0 0 0
447 0 2 0 12.96222754385892 21.391717093817473 7.741930180297461 0 0 0
449 0 2 0 14.590651525210149 20.679019594144744 2.1919847649598148 0 0 0
451 0 1 0 10.557398419317465 16.706813189962784 2.650035545289392 0 0 0
452 0 2 0 11.388014989922286 16.206226386216922 2.5546205430411546 0 0 0
453 0 2 0 10.465599318670575 17.002391686794404 3.54759871540427 0 0 0
454 0 1 0 9.181599116752611 16.161960699942263 7.32921889487553 0 0 0
455 0 2 0 8.291516036753352 15.783884080682272 7.634060561153088 0 0 0
456 0 2 0 9.797974917005654 15.465720172312565 7.628915155189384 0 0 0
460 0 1 0 13.440585246409817 17.829709799962206 7.660290987626829 0 0 0
461 0 2 0 12.710689194400175 18.528557346491713 7.506289782309442 0 0 0
462 0 2 0 13.393600782726617 17.24602761491609 6.8415832773610346 0 0 0
463 0 1 0 8.850766297290804 20.106886594268857 7.30363253521257 0 0 0
464 0 2 0 8.82758539075203 20.89107994915747 6.706687818170244 0 0 0
465 0 2 0 8.523458549164735 20.44640000054856 8.153856758660972 0 0 0
466 0 1 0 11.210129833541169 20.003509789920113 2.419639794050992 0 0 0
467 0 2 0 11.814065597036938 19.241856597178828 2.6525531314843613 0 0 0
468 0 2 0 10.291114306130005 19.74700318002945 2.6238148867488973 0 0 0
472 0 1 0 12.905407917539877 18.422266030813628 3.6141365398414522 0 0 0
473 0 2 0 13.739382461531576 18.064945692098775 3.1496701893756605 0 0 0
474 0 2 0 13.168555310602583 18.996061946557084 4.339252539854221 0 0 0
475 0 1 0 8.571813293883704 19.344531372606536 3.3680569062046732 0 0 0
476 0 2 0 8.741744952240962 18.58625158181216 3.98526199633331 0 0 0
477 0 2 0 7.783308425540025 19.013129891950275 2.9593842742150986 0 0 0
478 0 1 0 11.513162483915885 19.48772818933587 6.649110323514861 0 0 0
479 0 2 0 10.704882010488145 19.86601589697165 7.077824509636757 0 0 0
480 0 2 0 11.81552513642572 20.166248943158656 5.980425316979581 0 0 0
484 0 1 0 11.409099737871967 21.870324758982527 8.5203578207172 0 0 0
485 0 2 0 11.765180346447366 22.51451288373284 9.098004769206671 0 0 0
486 0 2 0 11.08597257170534 21.190812092419574 9.162858088982672 0 0 0