LAMMPS data file via MDAnalysis

        2268  atoms
           0  bonds
           0  angles
           0  dihedrals
           0  impropers

           2  atom types
           0  bond types
           0  angle types
           0  dihedral types
           0  improper types

0.000000 47.450699 xlo xhi
0.000000 20.194000 ylo yhi
0.000000 20.615999 zlo zhi


Masses

1 15.999000
2 1.008000

Atoms

1 0 1 -1.179400 11.583746 6.666847 2.639632
2 0 2 0.589700 12.329391 6.678041 3.228867
3 0 2 0.589700 10.949882 7.268715 3.026178
4 0 1 -1.179400 4.484259 17.002905 11.813324
5 0 2 0.589700 4.693640 16.098886 12.056647
6 0 2 0.589700 5.335939 17.424925 11.696607
7 0 1 -1.179400 1.478729 0.468592 5.705083
8 0 2 0.589700 0.529794 0.594156 5.714929
9 0 2 0.589700 1.595892 19.781069 5.729814
10 0 1 -1.179400 3.399364 0.902194 19.763651
11 0 2 0.589700 2.989886 1.451568 0.027638
12 0 2 0.589700 2.783037 0.917924 19.044699
13 0 1 -1.179400 21.099794 14.046614 11.388258
14 0 2 0.589700 20.231569 13.744365 11.651278
15 0 2 0.589700 20.949574 14.511153 10.578844
16 0 1 -1.179400 6.921186 10.896483 3.916324
17 0 2 0.589700 6.862781 9.955635 3.734160
18 0 2 0.589700 6.335792 11.031038 4.648202
19 0 1 -1.179400 0.449966 6.224343 1.973629
20 0 2 0.589700 0.596579 7.158918 2.137951
21 0 2 0.589700 46.967514 6.160910 1.773698
22 0 1 -1.179400 1.193982 18.341568 18.294327
23 0 2 0.589700 1.604009 18.456417 19.136141
24 0 2 0.589700 1.863043 17.906847 17.773779
25 0 1 -1.179400 5.698201 16.302032 18.375595
26 0 2 0.589700 6.192771 15.770123 17.761713
27 0 2 0.589700 5.645506 15.756566 19.147627
28 0 1 -1.179400 1.362314 7.331365 17.930424
29 0 2 0.589700 2.142892 7.590604 17.449160
30 0 2 0.589700 1.528355 6.420302 18.180750
31 0 1 -1.179400 8.424205 6.624420 0.151864
32 0 2 0.589700 9.372510 6.579266 0.271779
33 0 2 0.589700 8.291435 6.418629 19.637104
34 0 1 -1.179400 5.675041 8.803084 18.744217
35 0 2 0.589700 4.822066 9.166386 18.508389
36 0 2 0.589700 5.561365 7.851457 18.677187
37 0 1 -1.179400 18.489784 11.164989 3.273979
38 0 2 0.589700 18.081770 11.446202 2.469491
39 0 2 0.589700 17.909410 11.500750 3.945363
40 0 1 -1.179400 2.131540 14.232303 18.629988
41 0 2 0.589700 1.195795 14.359689 18.783678
42 0 2 0.589700 2.464664 15.113238 18.445862
43 0 1 -1.179400 3.410706 13.034421 12.090012
44 0 2 0.589700 2.540740 13.429467 12.023996
45 0 2 0.589700 3.261375 12.191612 12.516948
46 0 1 -1.179400 1.927174 9.145177 6.824188
47 0 2 0.589700 2.359053 8.681672 7.529875
48 0 2 0.589700 1.743812 8.461409 6.188859
49 0 1 -1.179400 6.845541 18.329296 11.982655
50 0 2 0.589700 7.602418 18.662327 11.508381
51 0 2 0.589700 7.162846 18.217279 12.862592
52 0 1 -1.179400 7.346469 5.755887 9.793645
53 0 2 0.589700 7.118610 5.055009 9.190875
54 0 2 0.589700 6.521460 5.972891 10.220353
55 0 1 -1.179400 15.775193 13.183930 14.929393
56 0 2 0.589700 15.036905 12.601441 15.111686
57 0 2 0.589700 15.462904 14.058595 15.168973
58 0 1 -1.179400 22.918270 12.146083 12.664873
59 0 2 0.589700 23.230898 12.000596 11.788012
60 0 2 0.589700 22.187088 12.758393 12.568911
61 0 1 -1.179400 8.900243 18.663460 6.164976
62 0 2 0.589700 8.305621 18.860044 5.453993
63 0 2 0.589700 8.355514 18.205088 6.794469
64 0 1 -1.179400 18.611328 13.236940 9.353045
65 0 2 0.589700 18.832859 12.476370 9.884656
66 0 2 0.589700 19.307907 13.275639 8.709532
67 0 1 -1.179400 14.148820 13.378650 18.139740
68 0 2 0.589700 13.833363 12.488080 17.970564
69 0 2 0.589700 13.354081 13.893935 18.282484
70 0 1 -1.179400 20.500341 8.022314 2.305167
71 0 2 0.589700 20.863914 8.616532 2.951776
72 0 2 0.589700 19.591599 8.306431 2.205489
73 0 1 -1.179400 10.203015 4.234072 13.439876
74 0 2 0.589700 10.705557 3.796355 14.115575
75 0 2 0.589700 9.734801 3.522475 13.006814
76 0 1 -1.179400 8.636826 19.789280 2.965264
77 0 2 0.589700 9.565362 19.635563 3.137017
78 0 2 0.589700 8.560947 19.740578 2.029559
79 0 1 -1.179400 15.390670 19.226433 5.655772
80 0 2 0.589700 15.020576 18.581238 5.061595
81 0 2 0.589700 14.630289 19.613310 6.083230
82 0 1 -1.179400 8.399276 7.083880 5.966888
83 0 2 0.589700 8.968499 6.783382 6.663005
84 0 2 0.589700 8.147504 6.280008 5.515225
85 0 1 -1.179400 22.785646 1.839711 13.500478
86 0 2 0.589700 22.311138 1.336645 14.151751
87 0 2 0.589700 22.521753 2.750896 13.648419
88 0 1 -1.179400 22.200466 7.225906 10.113440
89 0 2 0.589700 23.117334 7.464725 9.978172
90 0 2 0.589700 21.954626 7.677585 10.907109
91 0 1 -1.179400 21.453449 18.159672 10.347594
92 0 2 0.589700 22.342619 17.859409 10.534248
93 0 2 0.589700 20.925488 17.814936 11.055349
94 0 1 -1.179400 14.394769 11.521688 4.331827
95 0 2 0.589700 14.192505 12.207074 3.703738
96 0 2 0.589700 14.075705 11.871851 5.149083
97 0 1 -1.179400 6.055311 13.704823 9.330896
98 0 2 0.589700 5.430187 13.306039 8.735536
99 0 2 0.589700 6.826432 13.889226 8.804088
100 0 1 -1.179400 11.321066 10.239158 4.004955
101 0 2 0.589700 10.861736 9.415834 3.827708
102 0 2 0.589700 11.759568 10.088740 4.827348
103 0 1 -1.179400 6.820887 4.658720 12.565290
104 0 2 0.589700 6.770111 4.734302 13.500927
105 0 2 0.589700 7.592098 5.174118 12.329099
106 0 1 -1.179400 5.618550 1.073766 6.165505
107 0 2 0.589700 4.701068 1.301030 6.015963
108 0 2 0.589700 5.722210 1.118793 7.098817
109 0 1 -1.179400 23.414932 2.239056 20.183430
110 0 2 0.589700 23.209755 3.150434 19.964106
111 0 2 0.589700 24.291073 2.278538 0.165959
112 0 1 -1.179400 24.706041 0.961230 2.875184
113 0 2 0.589700 24.545574 1.896236 2.726414
114 0 2 0.589700 25.362226 0.940887 3.559169
115 0 1 -1.179400 25.720758 4.154504 5.253682
116 0 2 0.589700 25.530914 5.039860 5.567805
117 0 2 0.589700 25.480343 3.576708 5.966588
118 0 1 -1.179400 18.875425 18.901627 4.173285
119 0 2 0.589700 19.737423 18.486572 4.126859
120 0 2 0.589700 19.003775 19.772125 3.795788
121 0 1 -1.179400 24.568062 5.692302 1.332184
122 0 2 0.589700 24.366993 4.971259 1.921235
123 0 2 0.589700 24.328163 6.485983 1.806739
124 0 1 -1.179400 24.035900 3.652544 3.074645
125 0 2 0.589700 23.170958 3.838875 3.433601
126 0 2 0.589700 24.649654 3.987120 3.717361
127 0 1 -1.179400 22.615461 15.793385 13.558830
128 0 2 0.589700 22.247452 15.347246 12.808922
129 0 2 0.589700 21.958225 15.675366 14.232307
130 0 1 -1.179400 19.370035 10.370633 19.185219
131 0 2 0.589700 20.078657 10.856236 18.768543
132 0 2 0.589700 18.717442 10.246617 18.508429
133 0 1 -1.179400 15.016898 18.216007 1.862243
134 0 2 0.589700 14.932873 19.147108 1.645170
135 0 2 0.589700 15.067069 17.769505 1.031460
136 0 1 -1.179400 26.562260 0.269771 4.785149
137 0 2 0.589700 26.446856 0.760403 5.585289
138 0 2 0.589700 26.194592 19.667931 4.966229
139 0 1 -1.179400 12.927126 15.398781 1.093096
140 0 2 0.589700 12.325226 14.699225 1.349746
141 0 2 0.589700 12.465575 16.211779 1.306652
142 0 1 -1.179400 26.061293 2.320717 0.367351
143 0 2 0.589700 26.453295 3.099009 -0.027209
144 0 2 0.589700 26.657602 2.091657 1.067590
145 0 1 -1.179400 29.570433 2.294810 20.357723
146 0 2 0.589700 29.266600 1.695078 19.686720
147 0 2 0.589700 29.428883 3.171803 19.999657
148 0 1 -1.179400 31.315201 1.331073 3.212601
149 0 2 0.589700 31.320930 2.251971 2.944324
150 0 2 0.589700 31.261524 0.835391 2.409159
151 0 1 -1.179400 32.749142 4.596261 5.632683
152 0 2 0.589700 32.233906 4.087523 6.248966
153 0 2 0.589700 32.745106 5.490593 5.976378
154 0 1 -1.179400 28.267511 3.938584 3.554793
155 0 2 0.589700 27.688581 3.839288 4.296947
156 0 2 0.589700 27.770517 4.481451 2.952075
157 0 1 -1.179400 31.567198 6.271415 1.354266
158 0 2 0.589700 32.524357 6.267540 1.361368
159 0 2 0.589700 31.319590 5.625525 2.006286
160 0 1 -1.179400 30.942274 4.242605 3.222244
161 0 2 0.589700 31.228256 4.230570 4.119113
162 0 2 0.589700 29.986340 4.253238 3.269323
163 0 1 -1.179400 27.386728 5.747041 1.658499
164 0 2 0.589700 26.572432 5.648981 1.173872
165 0 2 0.589700 27.358870 6.647130 1.986390
166 0 1 -1.179400 29.308811 0.645554 4.869517
167 0 2 0.589700 28.516148 0.370169 4.416722
168 0 2 0.589700 29.902693 0.933888 4.188500
169 0 1 -1.179400 29.170485 5.187534 6.594111
170 0 2 0.589700 29.839163 5.449438 7.215919
171 0 2 0.589700 29.251518 4.231745 6.539074
172 0 1 -1.179400 33.145821 0.659230 5.115261
173 0 2 0.589700 32.794674 20.063335 5.347808
174 0 2 0.589700 32.561047 0.977368 4.439366
175 0 1 -1.179400 27.925385 1.588145 2.106967
176 0 2 0.589700 28.511829 1.835419 1.404623
177 0 2 0.589700 28.043324 2.278937 2.749935
178 0 1 -1.179400 32.396881 2.466928 0.258774
179 0 2 0.589700 31.452133 2.340219 0.172338
180 0 2 0.589700 32.780090 1.858329 20.030352
181 0 1 -1.179400 36.179367 2.325798 20.321182
182 0 2 0.589700 35.698166 2.094120 0.707409
183 0 2 0.589700 37.081165 2.058986 0.103755
184 0 1 -1.179400 37.722458 1.295630 3.418819
185 0 2 0.589700 37.006218 1.081464 4.006086
186 0 2 0.589700 37.715496 0.585467 2.785725
187 0 1 -1.179400 39.196495 4.325403 5.720502
188 0 2 0.589700 38.489323 4.267069 5.089669
189 0 2 0.589700 39.154785 3.494163 6.190208
190 0 1 -1.179400 34.555187 4.163108 3.579479
191 0 2 0.589700 35.468319 4.272148 3.840400
192 0 2 0.589700 34.049232 4.401794 4.342400
193 0 1 -1.179400 37.768726 6.167965 1.704175
194 0 2 0.589700 37.598423 6.755913 2.428519
195 0 2 0.589700 38.720119 6.183595 1.601940
196 0 1 -1.179400 37.492229 4.098465 3.507334
197 0 2 0.589700 37.619583 3.204792 3.185414
198 0 2 0.589700 37.813171 4.663936 2.815861
199 0 1 -1.179400 34.230209 6.286403 1.858511
200 0 2 0.589700 34.712799 5.951480 1.115877
201 0 2 0.589700 34.395958 5.643641 2.537929
202 0 1 -1.179400 35.861614 0.980735 5.426125
203 0 2 0.589700 35.839397 0.215012 5.993509
204 0 2 0.589700 34.989933 1.008538 5.038770
205 0 1 -1.179400 35.795685 5.535418 6.448932
206 0 2 0.589700 36.403412 5.794277 7.129502
207 0 2 0.589700 35.691769 6.326403 5.925131
208 0 1 -1.179400 39.719826 0.446129 4.929748
209 0 2 0.589700 39.026901 0.716587 4.337753
210 0 2 0.589700 39.640633 1.049594 5.657007
211 0 1 -1.179400 34.432064 1.674098 2.075987
212 0 2 0.589700 34.501614 2.436589 2.643847
213 0 2 0.589700 33.568424 1.758703 1.679264
214 0 1 -1.179400 38.976337 2.102102 0.577052
215 0 2 0.589700 39.169102 2.914876 0.112815
216 0 2 0.589700 39.640770 2.061697 1.252449
217 0 1 -1.179400 42.787365 2.743744 0.455529
218 0 2 0.589700 43.696392 2.705978 0.747607
219 0 2 0.589700 42.676525 3.642378 0.141022
220 0 1 -1.179400 44.396259 1.097804 3.566762
221 0 2 0.589700 44.591690 0.515036 2.844530
222 0 2 0.589700 45.084492 0.914108 4.194780
223 0 1 -1.179400 45.999279 4.631538 5.872911
224 0 2 0.589700 46.618191 4.524095 5.163681
225 0 2 0.589700 46.026142 5.570299 6.071725
226 0 1 -1.179400 41.087154 4.431184 3.718369
227 0 2 0.589700 40.588184 4.440993 4.520388
228 0 2 0.589700 41.984627 4.234950 3.982848
229 0 1 -1.179400 44.847740 5.744162 1.932281
230 0 2 0.589700 44.549126 4.962998 2.394428
231 0 2 0.589700 44.255451 5.814067 1.197118
232 0 1 -1.179400 44.058121 4.001025 4.024648
233 0 2 0.589700 44.715786 4.264937 4.656881
234 0 2 0.589700 44.188988 3.055086 3.920872
235 0 1 -1.179400 40.689602 6.067452 1.645605
236 0 2 0.589700 40.939926 5.587967 2.422131
237 0 2 0.589700 41.044113 6.950619 1.771947
238 0 1 -1.179400 42.575428 0.077084 5.433336
239 0 2 0.589700 41.723930 0.213830 5.025383
240 0 2 0.589700 43.212135 0.313419 4.770714
241 0 1 -1.179400 42.774921 4.941237 6.964439
242 0 2 0.589700 43.576431 5.228873 7.394359
243 0 2 0.589700 42.807125 3.981808 7.005528
244 0 1 -1.179400 46.081841 0.475213 5.379830
245 0 2 0.589700 45.851849 1.036775 6.108295
246 0 2 0.589700 45.938515 19.846214 5.692120
247 0 1 -1.179400 40.905678 1.928755 2.363147
248 0 2 0.589700 40.910210 2.734264 2.875567
249 0 2 0.589700 41.554123 2.085878 1.689097
250 0 1 -1.179400 45.487434 2.649341 0.835225
251 0 2 0.589700 45.697838 3.584715 0.775099
252 0 2 0.589700 45.894787 2.258472 0.075480
253 0 1 -1.179400 13.053164 2.192349 2.037982
254 0 2 0.589700 13.869922 1.693364 2.082486
255 0 2 0.589700 13.250139 2.927753 1.464798
256 0 1 -1.179400 17.427498 14.403411 2.940269
257 0 2 0.589700 17.489559 15.341147 2.744432
258 0 2 0.589700 16.559677 14.147322 2.632836
259 0 1 -1.179400 14.765645 18.530811 14.191762
260 0 2 0.589700 15.037560 17.622591 14.343098
261 0 2 0.589700 14.735008 18.613451 13.255852
262 0 1 -1.179400 0.026119 16.066526 15.522255
263 0 2 0.589700 0.235166 15.153339 15.730586
264 0 2 0.589700 46.643463 16.018099 15.062313
265 0 1 -1.179400 17.551781 12.958612 17.079031
266 0 2 0.589700 16.874876 13.018565 16.417095
267 0 2 0.589700 17.516094 12.045524 17.369682
268 0 1 -1.179400 18.986332 10.933617 10.803583
269 0 2 0.589700 19.717314 10.656279 10.260809
270 0 2 0.589700 18.207071 10.614820 10.355635
271 0 1 -1.179400 0.072987 12.661052 2.050519
272 0 2 0.589700 0.829852 12.588837 1.479489
273 0 2 0.589700 0.067936 13.581415 2.320560
274 0 1 -1.179400 7.602498 4.748508 4.512060
275 0 2 0.589700 7.517605 3.867630 4.878181
276 0 2 0.589700 8.371414 4.694535 3.954792
277 0 1 -1.179400 2.214549 18.956108 0.453036
278 0 2 0.589700 2.640769 19.778856 0.206889
279 0 2 0.589700 1.475122 19.227869 0.987415
280 0 1 -1.179400 2.392381 12.744062 0.643401
281 0 2 0.589700 2.488709 11.794045 0.538829
282 0 2 0.589700 2.468403 13.095765 20.165941
283 0 1 -1.179400 5.900042 19.578264 17.162289
284 0 2 0.589700 5.633751 18.955181 16.496283
285 0 2 0.589700 6.748804 19.253277 17.458525
286 0 1 -1.179400 8.558387 2.741871 6.711639
287 0 2 0.589700 9.444155 3.101154 6.653192
288 0 2 0.589700 8.684508 1.829992 6.980865
289 0 1 -1.179400 6.587098 2.975555 1.782314
290 0 2 0.589700 6.922715 2.619272 2.590597
291 0 2 0.589700 7.258726 2.757560 1.147498
292 0 1 -1.179400 22.725008 18.900690 20.177711
293 0 2 0.589700 22.478851 19.482189 19.469591
294 0 2 0.589700 22.177927 19.184879 0.503104
295 0 1 -1.179400 16.438538 12.134986 7.804276
296 0 2 0.589700 17.210155 12.364372 8.313183
297 0 2 0.589700 15.852565 12.888348 7.900805
298 0 1 -1.179400 19.167334 2.164691 19.863668
299 0 2 0.589700 18.711226 2.985557 19.668409
300 0 2 0.589700 18.553211 1.672154 0.005994
301 0 1 -1.179400 4.214864 16.079315 9.191487
302 0 2 0.589700 4.802890 15.321167 9.183151
303 0 2 0.589700 4.309322 16.448566 10.054225
304 0 1 -1.179400 7.614684 14.848138 16.976532
305 0 2 0.589700 7.485898 13.903539 16.859440
306 0 2 0.589700 8.023628 15.140691 16.176378
307 0 1 -1.179400 10.807298 12.625896 12.857023
308 0 2 0.589700 11.510424 13.261420 12.999472
309 0 2 0.589700 11.253349 11.836894 12.547265
310 0 1 -1.179400 18.729771 6.360139 13.762074
311 0 2 0.589700 18.557547 7.123380 13.216697
312 0 2 0.589700 19.372440 6.671006 14.388726
313 0 1 -1.179400 0.170800 6.092953 8.449257
314 0 2 0.589700 0.117742 7.012131 8.718181
315 0 2 0.589700 0.472770 5.624654 9.214524
316 0 1 -1.179400 10.591229 4.060794 8.931871
317 0 2 0.589700 11.443803 4.150302 9.350064
318 0 2 0.589700 10.013979 3.724774 9.605721
319 0 1 -1.179400 9.093135 11.639182 7.934712
320 0 2 0.589700 9.146212 11.526582 7.002768
321 0 2 0.589700 8.156934 11.596224 8.125918
322 0 1 -1.179400 3.177372 16.962645 3.882604
323 0 2 0.589700 3.801680 17.590179 3.520913
324 0 2 0.589700 2.327136 17.395605 3.798675
325 0 1 -1.179400 19.058882 7.064894 4.941537
326 0 2 0.589700 18.780764 6.151008 4.842853
327 0 2 0.589700 19.969374 7.071693 4.651618
328 0 1 -1.179400 1.037658 0.763368 11.427915
329 0 2 0.589700 0.811758 1.250263 10.648583
330 0 2 0.589700 1.878889 0.351568 11.230858
331 0 1 -1.179400 9.306272 13.111932 10.678159
332 0 2 0.589700 9.980449 13.052441 11.342812
333 0 2 0.589700 9.038221 12.202147 10.529172
334 0 1 -1.179400 1.495296 4.686766 19.438692
335 0 2 0.589700 1.539367 4.282224 18.587269
336 0 2 0.589700 0.563285 4.854931 19.575861
337 0 1 -1.179400 17.625914 2.470853 12.389424
338 0 2 0.589700 17.118910 2.194829 13.139517
339 0 2 0.589700 18.158205 1.704068 12.171086
340 0 1 -1.179400 23.063581 4.504387 13.942694
341 0 2 0.589700 23.993790 4.496389 14.164157
342 0 2 0.589700 23.047478 4.641672 13.012594
343 0 1 -1.179400 6.915649 8.312447 2.955982
344 0 2 0.589700 6.427778 8.756782 2.274078
345 0 2 0.589700 6.680915 7.385565 2.864859
346 0 1 -1.179400 8.956444 9.468464 20.116074
347 0 2 0.589700 8.640043 8.605193 -0.006168
348 0 2 0.589700 9.880157 9.476483 -0.031642
349 0 1 -1.179400 13.530979 1.812405 13.404582
350 0 2 0.589700 13.434959 1.013977 12.890219
351 0 2 0.589700 14.348287 1.684776 13.877601
352 0 1 -1.179400 22.950283 9.041514 6.417334
353 0 2 0.589700 23.779625 8.782092 6.812094
354 0 2 0.589700 22.283403 8.773193 7.038385
355 0 1 -1.179400 4.292535 9.887143 14.907412
356 0 2 0.589700 4.453342 9.543957 14.043841
357 0 2 0.589700 3.366261 10.129393 14.905472
358 0 1 -1.179400 18.504829 8.729270 12.127161
359 0 2 0.589700 18.568714 9.553447 11.648044
360 0 2 0.589700 17.584015 8.477136 12.056084
361 0 1 -1.179400 16.770481 9.508253 9.651384
362 0 2 0.589700 17.109325 8.612363 9.582292
363 0 2 0.589700 16.071865 9.552044 9.010316
364 0 1 -1.179400 24.186853 7.767910 3.066065
365 0 2 0.589700 23.394543 7.478138 3.510792
366 0 2 0.589700 24.888670 7.637680 3.692373
367 0 1 -1.179400 26.207844 10.963066 5.233657
368 0 2 0.589700 25.548700 10.789763 4.573549
369 0 2 0.589700 26.123558 11.902215 5.414422
370 0 1 -1.179400 19.172203 7.557252 19.633080
371 0 2 0.589700 19.157780 7.382325 18.709017
372 0 2 0.589700 19.495024 8.458888 19.704599
373 0 1 -1.179400 24.777416 12.280116 1.048975
374 0 2 0.589700 23.896412 11.971203 0.839843
375 0 2 0.589700 24.636084 13.072213 1.562624
376 0 1 -1.179400 24.220011 10.512218 3.216505
377 0 2 0.589700 24.334599 9.570746 3.065878
378 0 2 0.589700 24.586510 10.931066 2.450988
379 0 1 -1.179400 20.758537 15.184237 15.504531
380 0 2 0.589700 20.351635 14.350951 15.260785
381 0 2 0.589700 20.068827 15.662810 15.957963
382 0 1 -1.179400 22.631504 4.856187 6.738285
383 0 2 0.589700 21.800791 5.063286 7.158989
384 0 2 0.589700 22.775307 3.925368 6.923999
385 0 1 -1.179400 17.196323 18.564960 9.960202
386 0 2 0.589700 17.551504 17.678162 9.863489
387 0 2 0.589700 17.876410 19.047709 10.423311
388 0 1 -1.179400 25.840460 7.062126 5.339085
389 0 2 0.589700 25.741934 7.732937 6.005034
390 0 2 0.589700 26.760950 7.115264 5.086603
391 0 1 -1.179400 17.214682 10.325747 17.555189
392 0 2 0.589700 17.502811 9.872473 16.776245
393 0 2 0.589700 16.571230 9.733050 17.940018
394 0 1 -1.179400 25.096676 9.110939 0.333092
395 0 2 0.589700 24.192034 8.797884 0.356985
396 0 2 0.589700 25.491201 8.643733 20.002899
397 0 1 -1.179400 29.080479 9.260837 0.187913
398 0 2 0.589700 28.598835 8.910170 0.924159
399 0 2 0.589700 28.891653 8.647544 19.882536
400 0 1 -1.179400 30.758163 8.091431 3.390493
401 0 2 0.589700 30.887857 7.692895 2.544804
402 0 2 0.589700 30.741182 9.036898 3.223591
403 0 1 -1.179400 32.296974 11.392344 5.287393
404 0 2 0.589700 32.410549 10.766498 5.991805
405 0 2 0.589700 31.701992 10.951428 4.690683
406 0 1 -1.179400 28.309828 10.514965 3.484602
407 0 2 0.589700 27.736771 10.585938 4.234221
408 0 2 0.589700 27.975063 11.172182 2.882880
409 0 1 -1.179400 31.579748 12.845016 1.212897
410 0 2 0.589700 31.145552 13.441037 1.814335
411 0 2 0.589700 32.513885 12.965248 1.380861
412 0 1 -1.179400 30.916983 10.718823 3.104495
413 0 2 0.589700 29.985529 10.727593 3.320810
414 0 2 0.589700 31.016027 11.415742 2.464786
415 0 1 -1.179400 27.541191 12.285070 1.354721
416 0 2 0.589700 26.607405 12.219754 1.158265
417 0 2 0.589700 27.972914 12.243390 0.516865
418 0 1 -1.179400 28.660326 7.376091 5.014351
419 0 2 0.589700 29.438089 7.449767 4.471261
420 0 2 0.589700 28.718592 6.496542 5.388458
421 0 1 -1.179400 29.534954 12.139808 6.476623
422 0 2 0.589700 29.409504 11.192582 6.377756
423 0 2 0.589700 30.216324 12.221771 7.131852
424 0 1 -1.179400 32.559002 7.642055 5.398815
425 0 2 0.589700 31.931530 7.662471 4.689330
426 0 2 0.589700 32.391640 8.452658 5.876006
427 0 1 -1.179400 27.096815 8.419290 2.007028
428 0 2 0.589700 26.436111 8.836118 1.462729
429 0 2 0.589700 27.414207 9.127081 2.561054
430 0 1 -1.179400 31.794449 9.455163 0.302802
431 0 2 0.589700 32.027946 10.124377 20.062513
432 0 2 0.589700 30.854156 9.322409 0.184238
433 0 1 -1.179400 36.263779 9.550999 20.276363
434 0 2 0.589700 35.636375 9.487053 0.589417
435 0 2 0.589700 35.993420 8.866433 19.672592
436 0 1 -1.179400 37.684227 8.075041 3.775095
437 0 2 0.589700 37.770771 9.022640 3.644509
438 0 2 0.589700 36.775391 7.953259 4.044934
439 0 1 -1.179400 39.121780 11.139687 6.066683
440 0 2 0.589700 39.131306 12.047312 6.375126
441 0 2 0.589700 39.142895 10.606722 6.848461
442 0 1 -1.179400 34.556919 10.801280 3.864394
443 0 2 0.589700 33.780655 11.089322 4.336630
444 0 2 0.589700 34.253845 10.057484 3.349120
445 0 1 -1.179400 37.895592 12.594263 1.804594
446 0 2 0.589700 37.728107 11.896020 2.428990
447 0 2 0.589700 37.815826 13.407394 2.299222
448 0 1 -1.179400 37.319309 10.843639 3.914252
449 0 2 0.589700 37.702869 10.901549 4.773507
450 0 2 0.589700 36.374184 10.848459 4.062951
451 0 1 -1.179400 34.221657 12.872888 2.227058
452 0 2 0.589700 34.557236 12.241459 2.854228
453 0 2 0.589700 34.717228 12.690840 1.442915
454 0 1 -1.179400 35.257595 7.883730 5.102464
455 0 2 0.589700 34.317471 7.704742 5.078526
456 0 2 0.589700 35.383175 8.403174 5.883498
457 0 1 -1.179400 35.976364 12.190523 6.969128
458 0 2 0.589700 35.821503 12.904995 6.359324
459 0 2 0.589700 36.835236 12.383672 7.338538
460 0 1 -1.179400 39.302872 7.392093 5.834965
461 0 2 0.589700 39.267326 6.431879 5.829713
462 0 2 0.589700 38.595741 7.662842 5.259522
463 0 1 -1.179400 34.273224 9.130851 1.682644
464 0 2 0.589700 33.502525 9.223416 1.132651
465 0 2 0.589700 34.296021 8.197321 1.904212
466 0 1 -1.179400 38.913292 8.929295 0.343063
467 0 2 0.589700 37.959373 9.004642 0.367727
468 0 2 0.589700 39.201454 9.699536 20.251579
469 0 1 -1.179400 42.836731 9.234950 0.214109
470 0 2 0.589700 42.817284 10.195106 0.245573
471 0 2 0.589700 42.173489 8.959025 0.835727
472 0 1 -1.179400 44.306370 7.976636 3.444521
473 0 2 0.589700 43.633045 7.632441 4.021508
474 0 2 0.589700 44.369137 7.323079 2.758291
475 0 1 -1.179400 46.070469 11.717674 5.455437
476 0 2 0.589700 45.269817 11.484166 4.993756
477 0 2 0.589700 46.778225 11.384858 4.912817
478 0 1 -1.179400 41.165871 10.598248 4.202224
479 0 2 0.589700 40.899250 11.250339 3.563470
480 0 2 0.589700 40.542583 10.708382 4.907354
481 0 1 -1.179400 44.695221 12.544547 2.065229
482 0 2 0.589700 44.522560 11.902452 2.743591
483 0 2 0.589700 45.618973 12.419018 1.851757
484 0 1 -1.179400 44.011791 10.787412 3.962313
485 0 2 0.589700 44.237339 9.881135 3.742043
486 0 2 0.589700 43.113556 10.736056 4.283164
487 0 1 -1.179400 40.749878 12.697776 2.242224
488 0 2 0.589700 39.855728 12.620980 1.915292
489 0 2 0.589700 40.947834 13.636185 2.186783
490 0 1 -1.179400 42.127998 7.233541 5.220171
491 0 2 0.589700 42.305130 6.406459 5.665872
492 0 2 0.589700 41.179249 7.238562 5.095702
493 0 1 -1.179400 42.712669 11.914774 6.794831
494 0 2 0.589700 42.141903 12.074058 7.533073
495 0 2 0.589700 42.657051 10.967165 6.648978
496 0 1 -1.179400 46.093163 7.389810 5.373001
497 0 2 0.589700 45.766758 7.733313 4.555835
498 0 2 0.589700 47.030518 7.260242 5.230936
499 0 1 -1.179400 40.992157 8.740903 2.167131
500 0 2 0.589700 40.092697 8.782799 1.848273
501 0 2 0.589700 41.017124 9.374332 2.873455
502 0 1 -1.179400 45.746742 9.435847 0.412972
503 0 2 0.589700 45.712067 10.287165 -0.021565
504 0 2 0.589700 44.835190 9.144767 0.447197
505 0 1 -1.179400 0.807723 11.271006 17.621216
506 0 2 0.589700 0.405961 10.567722 17.116703
507 0 2 0.589700 0.588866 12.075826 17.154871
508 0 1 -1.179400 6.515060 0.735823 8.723201
509 0 2 0.589700 6.504035 1.112460 9.587799
510 0 2 0.589700 7.415773 0.434445 8.603721
511 0 1 -1.179400 1.855068 13.741491 4.722610
512 0 2 0.589700 1.828953 12.986554 5.303504
513 0 2 0.589700 2.292751 14.430515 5.217037
514 0 1 -1.179400 0.023912 19.442150 2.094195
515 0 2 0.589700 0.120800 0.118526 2.252342
516 0 2 0.589700 0.091829 19.040106 2.945237
517 0 1 -1.179400 17.940838 4.741178 19.104782
518 0 2 0.589700 17.003828 4.777803 18.916147
519 0 2 0.589700 18.351446 5.229984 18.403198
520 0 1 -1.179400 5.258015 17.691542 15.438004
521 0 2 0.589700 5.010088 16.779825 15.268185
522 0 2 0.589700 6.156006 17.761311 15.119827
523 0 1 -1.179400 11.232851 5.255442 17.239683
524 0 2 0.589700 11.279950 4.837838 18.084892
525 0 2 0.589700 12.136758 5.258390 16.930475
526 0 1 -1.179400 17.188938 8.172073 6.464570
527 0 2 0.589700 17.893072 7.863808 5.903834
528 0 2 0.589700 17.328955 7.705347 7.274543
529 0 1 -1.179400 8.260253 19.919962 0.307776
530 0 2 0.589700 7.489949 19.706497 20.184402
531 0 2 0.589700 8.945389 20.108593 20.071901
532 0 1 -1.179400 8.341807 12.168715 19.644779
533 0 2 0.589700 8.563391 11.246588 19.794777
534 0 2 0.589700 7.400584 12.219641 19.808338
535 0 1 -1.179400 0.324792 15.489467 2.334056
536 0 2 0.589700 -0.234508 15.900151 1.685672
537 0 2 0.589700 1.192170 15.461788 1.937488
538 0 1 -1.179400 17.802053 4.637669 4.537121
539 0 2 0.589700 17.885361 4.275455 3.670429
540 0 2 0.589700 18.219614 3.985318 5.092199
541 0 1 -1.179400 15.294976 0.681796 2.223203
542 0 2 0.589700 16.114676 0.657009 1.738467
543 0 2 0.589700 15.567856 0.747198 3.121802
544 0 1 -1.179400 1.213854 0.752995 17.850414
545 0 2 0.589700 1.284381 20.061157 17.816315
546 0 2 0.589700 1.029141 1.013998 16.964247
547 0 1 -1.179400 19.047375 13.153566 13.040263
548 0 2 0.589700 19.402693 13.016492 13.902624
549 0 2 0.589700 18.355844 12.494540 12.957930
550 0 1 -1.179400 3.599136 0.310562 10.644949
551 0 2 0.589700 3.964154 19.922832 10.056499
552 0 2 0.589700 4.140589 0.242781 11.417162
553 0 1 -1.179400 10.022669 16.853594 17.167173
554 0 2 0.589700 10.785406 17.294920 17.536118
555 0 2 0.589700 10.389310 16.232161 16.547262
556 0 1 -1.179400 20.229567 5.282284 0.875196
557 0 2 0.589700 20.544617 5.898923 1.526252
558 0 2 0.589700 19.967243 5.838505 0.153378
559 0 1 -1.179400 20.889921 12.438749 2.619045
560 0 2 0.589700 21.301083 12.540103 3.461985
561 0 2 0.589700 19.978111 12.221224 2.810133
562 0 1 -1.179400 0.477631 17.732166 4.206732
563 0 2 0.589700 0.110260 17.042185 3.661050
564 0 2 0.589700 0.043406 17.614805 5.036431
565 0 1 -1.179400 5.567780 12.199188 20.184937
566 0 2 0.589700 5.348350 12.106488 19.274593
567 0 2 0.589700 5.323472 13.102607 0.002983
568 0 1 -1.179400 15.552984 8.486373 18.798061
569 0 2 0.589700 14.789518 8.942432 19.147917
570 0 2 0.589700 15.986770 8.107925 19.549675
571 0 1 -1.179400 15.252170 9.808773 7.327917
572 0 2 0.589700 15.924110 9.296452 6.884140
573 0 2 0.589700 15.597175 10.704983 7.340769
574 0 1 -1.179400 3.388245 1.741366 4.287185
575 0 2 0.589700 2.649726 1.298571 4.699412
576 0 2 0.589700 2.998342 2.500549 3.856638
577 0 1 -1.179400 5.245819 8.687806 12.678747
578 0 2 0.589700 5.767411 9.489032 12.595831
579 0 2 0.589700 5.815095 8.075211 13.139045
580 0 1 -1.179400 5.340619 2.734114 18.893311
581 0 2 0.589700 5.065596 3.422095 19.491308
582 0 2 0.589700 4.759530 1.994594 19.079271
583 0 1 -1.179400 5.381474 9.813535 0.908393
584 0 2 0.589700 5.630579 9.381154 0.105477
585 0 2 0.589700 5.479352 10.751844 0.730079
586 0 1 -1.179400 10.928779 16.726398 13.119998
587 0 2 0.589700 11.325418 17.256142 13.800589
588 0 2 0.589700 11.256165 17.113726 12.322191
589 0 1 -1.179400 14.811218 5.317780 13.231560
590 0 2 0.589700 15.121721 4.575940 12.717851
591 0 2 0.589700 13.973006 5.557508 12.842999
592 0 1 -1.179400 22.729307 19.929909 4.093470
593 0 2 0.589700 23.540905 0.112206 3.856440
594 0 2 0.589700 22.962013 19.405146 4.846923
595 0 1 -1.179400 15.257701 16.476185 20.119036
596 0 2 0.589700 14.602950 15.922284 0.145165
597 0 2 0.589700 16.022804 15.907076 20.023640
598 0 1 -1.179400 16.077646 0.857852 8.287534
599 0 2 0.589700 16.895189 1.021730 8.749342
600 0 2 0.589700 15.881829 1.690428 7.859512
601 0 1 -1.179400 11.847754 16.919456 10.557296
602 0 2 0.589700 12.372049 17.493971 10.007249
603 0 2 0.589700 11.477691 16.268398 9.969254
604 0 1 -1.179400 18.918966 3.184187 6.658608
605 0 2 0.589700 19.687199 2.733390 6.312309
606 0 2 0.589700 19.272173 3.967763 7.077726
607 0 1 -1.179400 17.380785 14.739308 19.123678
608 0 2 0.589700 18.222265 14.710136 19.570730
609 0 2 0.589700 17.421831 14.014015 18.508495
610 0 1 -1.179400 13.185915 2.562439 4.704471
611 0 2 0.589700 12.578863 3.241097 5.000142
612 0 2 0.589700 12.987598 2.458722 3.790603
613 0 1 -1.179400 23.066792 16.135807 0.179564
614 0 2 0.589700 22.840956 17.065943 0.099085
615 0 2 0.589700 22.480701 15.803978 0.848023
616 0 1 -1.179400 24.209955 14.256268 3.012169
617 0 2 0.589700 23.580471 13.794339 3.557310
618 0 2 0.589700 24.027821 15.187709 3.158235
619 0 1 -1.179400 25.682716 17.942732 5.352850
620 0 2 0.589700 25.544355 17.166153 5.889442
621 0 2 0.589700 26.458296 17.732512 4.841839
622 0 1 -1.179400 21.371948 10.574437 9.314564
623 0 2 0.589700 22.085989 10.505157 9.936821
624 0 2 0.589700 21.735550 11.098288 8.612172
625 0 1 -1.179400 24.783285 18.684057 1.840334
626 0 2 0.589700 24.452730 18.659086 0.958618
627 0 2 0.589700 24.608484 19.581041 2.130398
628 0 1 -1.179400 23.681864 16.803932 3.827267
629 0 2 0.589700 24.397558 16.821306 4.451149
630 0 2 0.589700 23.942575 17.435804 3.167079
631 0 1 -1.179400 18.424023 4.727137 9.722820
632 0 2 0.589700 18.885111 4.676909 10.544999
633 0 2 0.589700 18.336639 3.812672 9.447243
634 0 1 -1.179400 17.695694 11.574186 0.708847
635 0 2 0.589700 17.963257 11.143949 20.304575
636 0 2 0.589700 16.861622 11.994509 0.500019
637 0 1 -1.179400 22.307520 4.767942 11.367134
638 0 2 0.589700 21.414242 4.446797 11.491081
639 0 2 0.589700 22.204096 5.580474 10.875799
640 0 1 -1.179400 25.943535 13.796056 5.272200
641 0 2 0.589700 25.500656 13.998281 4.462799
642 0 2 0.589700 26.873442 13.919099 5.084672
643 0 1 -1.179400 21.443979 6.400866 14.991530
644 0 2 0.589700 21.647141 7.155005 14.444308
645 0 2 0.589700 21.846567 5.652679 14.553876
646 0 1 -1.179400 25.802959 15.641500 0.133318
647 0 2 0.589700 25.674103 15.193237 19.705667
648 0 2 0.589700 24.921209 15.890346 0.406299