LAMMPS data file via write_data, version 23 Jun 2022, timestep = 400000

972 atoms
2 atom types

0.03428801720274599 19.95676498279925 xlo xhi
-0.030499841534844307 20.021552841534387 ylo yhi
0.2491622599712091 20.551609740029917 zlo zhi

Masses

1 1.008
2 15.999

Atoms # full

2 0 2 0 2.3084920508751257 1.8923123109323738 1.0151417600184165 0 0 0
31 0 1 0 0.9405155333046442 1.7589990654228225 1.9943982231956763 0 0 0
32 0 2 0 0.8246642906746577 0.7965131648972373 2.1252016071498394 0 0 0
33 0 2 0 1.0132612015359626 2.1777170670116974 2.8931237429653858 0 0 0
5 0 2 0 3.4690756654806902 1.269753360182269 3.8407790887232873 0 0 0
18 0 2 0 4.045606022478737 3.4192586498006277 3.3836106234174257 0 0 0
4 0 1 0 4.217534697061589 1.5093383816693826 3.2912239065672533 0 0 0
35 0 2 0 4.660494713067787 2.6288481417749012 0.492006889951081 0 0 0
6 0 2 0 4.997934501708877 1.3294499350923328 3.8768920377370755 0 0 0
10 0 1 0 1.1484841614558114 3.777550734431126 3.710601495563506 0 0 0
34 0 1 0 5.646052106825847 2.6591265653940894 0.2851220569253935 0 0 0
36 0 2 0 6.2275669601462615 2.437796126485321 1.0442508510756612 0 0 0
67 0 1 0 7.672978071026672 2.2499238228202763 1.9840833588707494 0 0 0
272 0 2 0 7.420875651603562 0.6481428318329733 2.233636803912657 0 1 0
68 0 2 0 7.678384000791196 3.0956841489618663 2.509089822089299 0 0 0
69 0 2 0 8.303193964955797 2.4238428197920263 1.2325318975279203 0 0 0
41 0 2 0 10.158598316638509 1.3121011407301788 3.7723535990344765 0 0 0
40 0 1 0 10.994420105095518 1.4542459216264079 3.319491341829834 0 0 0
54 0 2 0 10.695072773566093 3.5151967347779998 3.614264793396114 0 0 0
42 0 2 0 11.658437099351548 1.3358817594143668 4.016287783400008 0 0 0
70 0 1 0 12.056772370208702 2.6384929979595197 0.4902080873830944 0 0 0
266 0 2 0 11.168604417359624 0.020688847842325553 2.242157617075809 0 1 0
72 0 2 0 12.729734552248635 2.4679631542893135 1.1662866457407373 0 0 0
103 0 1 0 14.351829170694197 2.0530156368666153 2.1854762922379387 0 0 0
105 0 2 0 14.291217026888045 0.9819249631559126 2.294508095478201 0 0 0
84 0 2 0 14.23946514814856 3.628189696508959 3.2982409309299734 0 0 0
104 0 2 0 15.139088616538306 2.122165141183544 1.5961922801986204 0 0 0
108 0 2 0 19.240523058501694 2.1155287770449855 1.179288344719865 0 0 0
76 0 1 0 17.70510545996696 1.667429868446581 3.756205953639796 0 0 0
89 0 2 0 17.48300411809891 3.2314879399801377 3.8405436090515495 0 0 0
107 0 2 0 17.819585018575815 2.5187104699034775 0.4931674654617707 0 0 0
77 0 2 0 17.83755775677733 0.9756023698209422 3.0660343038405844 0 0 0
106 0 1 0 18.76523017093576 2.3374334979012947 0.3589556792371398 0 0 0
16 0 1 0 4.119186224158303 4.304598026614478 3.7369977237475607 0 0 0
12 0 2 0 2.005791433414003 4.070710167993355 3.850140568728874 0 0 0
20 0 2 0 0.8506279452913456 5.1625314831177125 2.6193757461431484 0 0 0
19 0 1 0 0.6875779304612221 5.680918857728463 1.830527988652391 0 0 0
21 0 2 0 0.7805161043131598 6.5983329292898665 2.099274054755991 0 0 0
675 0 2 0 2.1254467843835214 5.12498268655521 0.580382956175386 0 0 1
131 0 2 0 3.2560199086672212 7.562038283627949 4.113590796783482 0 0 0
17 0 2 0 4.501421718158856 4.861999506141658 3.0366440447495684 0 0 0
14 0 2 0 4.373993004560321 5.435088081216181 0.7846452577874329 0 0 0
114 0 2 0 4.576946404527549 7.490398350734383 2.1700396056709494 0 0 0
13 0 1 0 4.898548871469313 5.767144860724765 1.5357138874145304 0 0 0
46 0 1 0 7.661824825202322 4.3254293281679805 3.866111674595936 0 0 0
47 0 2 0 8.575484356266786 4.39593850919192 4.242528521538844 0 0 0
113 0 2 0 5.2296273650561425 7.6222924539935 3.5804872504541563 0 0 0
15 0 2 0 5.871408535593727 5.722022953896773 1.3416688583532461 0 0 0
55 0 1 0 7.502924740879455 6.039250235716388 1.7946457878378277 0 0 0
177 0 2 0 7.9680892304814925 7.939019665745986 2.3378394041262434 0 0 0
56 0 2 0 7.523417136772049 5.528488646903941 2.6060692997618213 0 0 0
57 0 2 0 8.183379442801943 5.694485694202797 1.1492965276600782 0 0 0
52 0 1 0 10.380593587546866 4.38887580374408 3.943535057693499 0 0 0
51 0 2 0 11.110426894805734 5.3819247826310805 2.5584365044340713 0 0 0
149 0 2 0 10.216906711479652 7.889904114934184 3.7273821858136316 0 0 0
49 0 1 0 11.452719021441084 5.905548828762383 1.8501858273041656 0 0 0
50 0 2 0 10.789811879665326 5.879376479758512 1.1248510894193164 0 0 0
150 0 2 0 11.33484712486007 7.541896203502465 2.598925847233888 0 0 0
83 0 2 0 14.115497531231307 5.106713297583431 3.193041538517242 0 0 0
82 0 1 0 14.242266912544187 4.387174164611165 3.874662280870325 0 0 0
91 0 1 0 14.19084503058201 6.168819562739682 1.7127200780691585 0 0 0
92 0 2 0 14.295802060628949 7.085616589095227 1.9403936877944494 0 0 0
93 0 2 0 13.259391966504218 6.014117578114757 1.4780536614418223 0 0 0
204 0 2 0 15.904631154525958 7.889972931166624 4.271620676990025 0 0 0
747 0 2 0 15.219140800655628 5.496347706016844 0.7475166651853149 0 0 1
88 0 1 0 17.337793265106043 4.236160511750956 3.935518807594068 0 0 0
90 0 2 0 16.386881923211213 4.303887489607134 3.9904798356408904 0 0 0
86 0 2 0 17.976788308944414 5.0837840017669365 2.589647841528503 0 0 0
85 0 1 0 17.89156211354606 5.728751701599456 1.8947653737274877 0 0 0
87 0 2 0 18.797671413210338 5.952217257116609 1.5919206171928348 0 0 0
185 0 2 0 17.405649435927096 7.190705967943238 2.6977718192689246 0 0 0
184 0 1 0 17.222703322201916 7.963809547854899 3.2729511727721943 0 0 0
746 0 2 0 16.765538633451584 5.307617219464718 0.3975689310796539 0 0 1
139 0 1 0 1.1257108520006067 8.425624550578918 2.342825912817841 0 0 0
141 0 2 0 1.8595524006142088 8.596200043836959 1.7379906172968016 0 0 0
119 0 2 0 1.7264085514588492 9.601974617753664 3.4389805261427875 0 0 0
110 0 2 0 3.701115045953779 8.990557975822481 0.6305740500200145 0 0 0
140 0 2 0 0.31270170914434847 8.823151006169113 2.0264061531714566 0 0 0
120 0 2 0 2.947717500429798 10.510364256503784 4.091036477635106 0 0 0
118 0 1 0 1.962043779524468 10.380961104923694 4.007196365636693 0 0 0
112 0 1 0 4.577235549416001 8.063845364872437 2.9742782403787937 0 0 0
126 0 2 0 4.946449251636103 9.785732322910125 3.3583960412706917 0 0 0
122 0 2 0 4.570378026449173 11.744805509835373 2.2200735681537087 0 0 0
124 0 1 0 4.6809387078812295 10.737621823680609 3.4984192826115894 0 0 0
129 0 2 0 1.0854598805841273 11.695349951683204 2.893191366274103 0 0 0
109 0 1 0 2.782237688785334 9.084132745969168 0.34330985726518776 0 0 0
176 0 2 0 7.064535872276 9.047649513323591 1.9654968373371817 0 0 0
175 0 1 0 7.89179391754086 8.881294142108228 2.467840177366048 0 0 0
142 0 1 0 5.927960423771709 9.333674131270472 0.5696880171753698 0 0 0
125 0 2 0 5.2671217559292 11.031177430592528 4.259267147786141 0 0 0
143 0 2 0 5.988434829924398 10.309195030423375 0.3690440324908384 0 0 0
155 0 2 0 8.147482015323169 10.44897993072805 3.3884037862992833 0 0 0
147 0 2 0 9.040269960104212 9.312648961006314 1.0661118284289093 0 0 0
156 0 2 0 7.86003429378193 11.876346733100009 3.3038958183865708 0 0 0
154 0 1 0 8.095524551137718 11.23438725025255 3.947514275221591 0 0 0
161 0 2 0 9.858670004049952 11.245383592623169 4.170675087418416 0 0 0
148 0 1 0 10.992401442036028 8.234696805081535 3.2112783478140066 0 0 0
179 0 2 0 11.039431544946392 9.790384561900346 0.6542209049030017 0 0 0
162 0 2 0 10.667613755778937 9.959395187208498 3.8925712722163324 0 0 0
178 0 1 0 12.082769162117225 9.605989514282287 0.6720873292438753 0 0 0
160 0 1 0 10.806043857441678 10.902237030645642 4.066799089618955 0 0 0
158 0 2 0 11.06082741792785 11.798574738494931 2.358016180687312 0 0 0
211 0 1 0 14.046353278568324 8.78289419389869 2.395916284792751 0 0 0
212 0 2 0 14.24101825007502 9.507268782222651 3.111909280473115 0 0 0
213 0 2 0 13.260262614276648 9.189138722869831 2.0060560629949036 0 0 0
191 0 2 0 14.89314459401087 11.578052715632738 3.66370042472098 0 0 0
190 0 1 0 14.912461955917214 10.62708425088603 3.9983581753748445 0 0 0
183 0 2 0 15.335565160445105 9.138407418399126 1.1052462775222067 0 0 0
181 0 1 0 15.975753336322855 9.386080669884947 0.36244984867934554 0 0 0
192 0 2 0 15.867418969441609 10.510878995599588 4.2555187757492385 0 0 0
186 0 2 0 17.454414085776527 8.817795816379544 2.8828747696738866 0 0 0
216 0 2 0 17.91909866359063 9.126579583335705 0.8451421645925907 0 0 0
214 0 1 0 18.890381421915215 9.274912628086263 0.8798267289489389 0 0 0
196 0 1 0 17.50968789946738 10.69614331209255 4.057703410844607 0 0 0
197 0 2 0 17.702567066105857 11.47689040722295 3.5164339419725525 0 0 0
853 0 1 0 15.759679053190949 11.992432950800303 0.30109841898622475 0 0 1
215 0 2 0 19.24215114314927 8.609251587045977 0.29855083568145874 0 0 0
782 0 2 0 2.077491458745458 12.207186317921243 0.7199173268330266 0 0 1
249 0 2 0 0.8111002719655487 14.027986702945329 2.610283861969029 0 0 0
127 0 1 0 0.919921206850222 12.358660600562366 2.1704006486059786 0 0 0
221 0 2 0 3.222767219607426 14.536556696315973 3.8937826543494127 0 0 0
220 0 1 0 3.9868348761568893 14.573320385080073 3.331738140632212 0 0 0
222 0 2 0 4.0364366369688085 13.7770036074047 2.7731750448541375 0 0 0
123 0 2 0 4.495517605944052 12.176489827370949 0.7208394941394913 0 0 0
247 0 1 0 0.7750841839328232 15.04589471495201 2.542623603256779 0 0 0
218 0 2 0 1.6630532645403493 15.54378006733234 1.3431861757277008 0 0 0
121 0 1 0 4.585638705107233 12.560109197908357 1.613415461702707 0 0 0
251 0 2 0 4.058820290947071 15.86437066786136 0.8895902957944969 0 0 0
217 0 1 0 2.261568119452415 15.949978172061245 0.6026815139839088 0 0 0
163 0 1 0 7.28913986986938 13.182011368962506 2.0162056979146055 0 0 0
164 0 2 0 7.428387607236132 14.137989107101763 2.168591632894881 0 0 0
165 0 2 0 6.442054990857249 13.094601177618872 1.5666524101553576 0 0 0
283 0 1 0 7.418543260696841 15.829665914278152 2.2252233934891157 0 0 0
284 0 2 0 6.66767654026746 15.82947023421985 1.6389189272257534 0 0 0
258 0 2 0 9.7426708192954 14.491041022325627 3.853172781819022 0 0 0
819 0 2 0 8.364390733043106 12.794280482846291 0.8265569129952665 0 0 1
818 0 2 0 9.892444428092313 12.424365217884263 0.522738184249582 0 0 1
285 0 2 0 8.164649378074829 15.951271650014288 1.6430361888127523 0 0 0
157 0 1 0 11.321528837108104 12.583568910800935 1.8243176496799003 0 0 0
159 0 2 0 10.897176402213061 13.288094218619925 2.3633850311756133 0 0 0
256 0 1 0 10.57734676723364 14.672728780785738 3.4018530647371925 0 0 0
257 0 2 0 10.641602866010718 15.657380498531714 3.3567153173069215 0 0 0
200 0 2 0 13.038046370720542 12.668294364782403 2.2983560620262957 0 0 0
199 0 1 0 13.96776978371236 12.82702634210508 2.6061767696612397 0 0 0
201 0 2 0 14.140055392518647 13.734994768763858 2.4569555485743675 0 0 0
319 0 1 0 14.19929746009524 15.585645922262692 2.1497032827653033 0 0 0
320 0 2 0 13.369240136989857 15.741183900857271 1.6077636727509537 0 0 0
286 0 1 0 11.972721325354089 15.855202409660881 0.47424679589222174 0 0 0
294 0 2 0 16.519342148359932 14.68128372172614 4.0876215799723035 0 0 0
128 0 2 0 19.902946506921403 12.265382750605516 1.9136507135732115 -1 0 0
195 0 2 0 17.279857372589326 12.452391618999501 1.0732488663648825 0 0 0
193 0 1 0 17.890254332473454 12.778650710922665 1.7395044223089937 0 0 0
194 0 2 0 17.488483877867715 13.555855873658999 2.1556465818656854 0 0 0
292 0 1 0 17.37983587565062 15.008374171959831 3.6883489382292187 0 0 0
248 0 2 0 19.864164584456006 15.285956193093481 2.094024700554058 -1 0 0
293 0 2 0 17.383659730799543 15.95390071640272 3.642192829256819 0 0 0
322 0 1 0 18.64007119851282 15.737603696048085 0.6820117175597958 0 0 0
855 0 2 0 15.274616264526198 12.089720173258279 1.1480843616883127 0 0 1
230 0 2 0 4.291196020984105 19.99609391294131 2.30669886188766 0 0 0
227 0 2 0 1.1508864000213554 16.488258132965008 3.5673113224093056 0 0 0
235 0 1 0 0.7318496050267288 18.908808251938645 1.9795768483890674 0 0 0
236 0 2 0 1.0264170888669357 18.419321115382086 2.7425387915743102 0 0 0
237 0 2 0 1.3546403926682031 18.70398935202608 1.2315690662020664 0 0 0
226 0 1 0 1.414404085101466 17.309135280668915 4.018436429961776 0 0 0
228 0 2 0 2.3951859480663997 17.44624762699721 3.8897101330813793 0 0 0
891 0 2 0 3.523062998614063 18.756519486179116 0.4409271101365631 0 0 1
232 0 1 0 4.053880395911019 17.338309763837916 3.684644188318683 0 0 0
233 0 2 0 4.157594503840302 16.360126856806417 3.446271815996036 0 0 0
234 0 2 0 4.356524699571889 17.868363389747778 2.896451547186295 0 0 0
229 0 1 0 4.600146922109836 19.199442003368933 1.8241333119237615 0 0 0
250 0 1 0 5.015700394153575 16.037545744785554 0.8031987579235562 0 0 0
231 0 2 0 5.537700987695598 19.412508221999627 1.5920262291940799 0 0 0
271 0 1 0 7.201151179000905 19.79568919298956 2.139549498223227 0 0 0
273 0 2 0 7.407625166033011 19.278255208617114 2.931207407422892 0 0 0
263 0 2 0 7.398214293056236 16.997107166300847 3.6036864607190937 0 0 0
262 0 1 0 7.479866279139142 17.865501321697426 4.124554981886494 0 0 0
927 0 2 0 8.253131658864655 19.109391428699713 0.9557929567315839 0 0 1
253 0 1 0 9.23296434140445 16.229755670245552 0.3463155136588001 0 0 0
252 0 2 0 5.206104754258566 16.910901718839504 0.376835243376044 0 0 0
925 0 1 0 9.034693542733024 18.841911386963204 0.4454517493418798 0 0 1
926 0 2 0 9.047522087444001 17.817613288086488 0.36881194119855093 0 0 1
255 0 2 0 10.20456407104513 16.02105632881408 0.5441244012159157 0 0 0
265 0 1 0 11.290544331163057 19.285681926730877 1.72520688704113 0 0 0
267 0 2 0 10.554322428646241 19.081874119828694 1.2052130344208583 0 0 0
268 0 1 0 10.411493654159385 17.46737743426962 3.5396472227829276 0 0 0
269 0 2 0 10.689227732865843 18.084730089833354 2.8360118478752567 0 0 0
270 0 2 0 10.904436162759389 17.715240102581642 4.306044039878483 0 0 0
321 0 2 0 14.033190969136013 16.27108219626289 2.8022208437121594 0 0 0
307 0 1 0 13.952353701916348 19.34221662927506 2.16063548260858 0 0 0
308 0 2 0 13.02280463167741 19.231259179095645 1.8196291303279712 0 0 0
309 0 2 0 14.050795649296791 18.72027558872794 2.924376304348946 0 0 0
298 0 1 0 14.408515488708936 17.517153502189817 4.131729924516774 0 0 0
291 0 2 0 15.358370380987385 16.090514877469683 0.9555195845844687 0 0 0
963 0 2 0 15.285064936243877 18.996637677302427 0.7582808188549014 0 0 1
300 0 2 0 15.388244938960502 17.64913398867985 4.23152281235382 0 0 0
301 0 1 0 18.087970727772536 19.711849649408624 2.037630127606322 0 0 0
302 0 2 0 17.581487733813617 19.326290860495437 1.3207350015058616 0 0 0
303 0 2 0 18.96754842421447 19.255637370483353 2.05452875958059 0 0 0
306 0 2 0 17.356286659870044 18.39797526964652 3.253301661479981 0 0 0
304 0 1 0 17.249595679347586 17.737371434104777 3.9891107093463543 0 0 0
289 0 1 0 16.039165635806825 16.143229527530078 0.2674843407994416 0 0 0
290 0 2 0 16.962824112648725 16.041523760811504 0.5353503678732899 0 0 0
323 0 2 0 19.054125044158717 16.548326813323616 0.3387259367204082 0 0 0
22 0 1 0 2.0636220333181887 1.0948502111189957 4.967247874730693 0 0 0
101 0 2 0 0.2871889395095979 0.955682212898423 5.5490171904893995 1 0 0
24 0 2 0 2.415924046044921 0.2972266907882681 5.459138134500186 0 0 0
23 0 2 0 2.3237307732845003 1.817239723657228 5.566880293145228 0 0 0
325 0 1 0 2.6668805628121186 2.669349670924093 7.142843296229292 0 0 0
326 0 2 0 3.618327859050698 2.727241441413636 7.368695650741395 0 0 0
327 0 2 0 2.3683228534415166 3.604677168004186 6.983493854122217 0 0 0
356 0 2 0 1.7287786110859371 2.0303592059475046 8.295210215208472 0 0 0
29 0 2 0 6.732256097224829 0.9859259511306269 5.118946732935267 0 0 0
28 0 1 0 5.762794650188779 1.004445625756579 5.307965304749162 0 0 0
58 0 1 0 8.77362829029351 1.1604146752951658 5.112245368075727 0 0 0
358 0 1 0 5.449229263226779 2.744671837608957 7.428343096364213 0 0 0
359 0 2 0 5.440868515503755 2.0527817621440443 6.731197708405255 0 0 0
360 0 2 0 6.079312506295741 2.3694180230508337 8.06529202090931 0 0 0
59 0 2 0 8.80927116732746 1.959480670028701 5.695213042260299 0 0 0
363 0 2 0 9.42899465744087 3.8115732939304214 6.698323191530037 0 0 0
361 0 1 0 9.244553643405421 2.9400531149258806 7.114428808405022 0 0 0
30 0 2 0 5.606857781737432 0.06835069646825234 5.621778696015496 0 0 0
60 0 2 0 8.817738850531018 0.3913713905686706 5.723282238110273 0 0 0
362 0 2 0 10.13454262155432 2.639920913226814 7.3249394232688125 0 0 0
394 0 1 0 11.800850233935135 2.5424228175022505 7.260585012063614 0 0 0
396 0 2 0 12.212656377424555 3.274954045362471 6.771507133994699 0 0 0
66 0 2 0 12.46243317018666 1.2152477357352682 6.156572941215764 0 0 0
65 0 2 0 13.599636231894822 0.9013259514916844 5.294413820837806 0 0 0
64 0 1 0 12.698744242104107 0.6935309193372461 5.396825860444906 0 0 0
395 0 2 0 12.323360588360872 2.357331929959703 8.082161910185786 0 0 0
94 0 1 0 15.361500579944332 0.9575270535345392 5.210711591208337 0 0 0
78 0 2 0 18.26734273331141 1.319673042881904 4.513293606240842 0 0 0
96 0 2 0 15.968468751494038 1.010358105054753 4.453098317994974 0 0 0
95 0 2 0 15.65603803935021 1.614630040828369 5.885041618672546 0 0 0
399 0 2 0 15.76733284663859 3.533243393293076 6.718177893792302 0 0 0
397 0 1 0 15.892079455789265 2.6714731276034906 7.121707056970918 0 0 0
100 0 1 0 19.280007999843797 0.7578044425860057 5.769858470653859 0 0 0
398 0 2 0 16.789603868861136 2.836252002492226 7.394204310856279 0 0 0
430 0 1 0 18.713844535148645 2.9523411529561967 7.670014485072621 0 0 0
431 0 2 0 18.72222342306692 2.1706391705562513 7.05292294297883 0 0 0
432 0 2 0 18.901979913486954 3.746952100113871 7.173412033462079 0 0 0
11 0 2 0 0.5320738487191858 4.090115070473668 4.474782702936647 0 0 0
132 0 2 0 1.7287596660259843 7.618918390869227 4.358015013178184 0 0 0
130 0 1 0 2.5835710917675057 7.450751604558648 4.8225480811756904 0 0 0
9 0 2 0 5.004042917216725 4.475535682863914 5.214030742116812 0 0 0
25 0 1 0 2.5022727255820687 5.396359382942955 6.667839142687496 0 0 0
26 0 2 0 2.466980642687799 6.063768403455544 5.925857602124497 0 0 0
27 0 2 0 3.2228520955288578 5.649793909495422 7.240918269060342 0 0 0
344 0 2 0 1.2564365229804346 5.805744819934344 7.926465712044177 0 0 0
337 0 1 0 4.9808384992406145 6.036853181025262 8.177065733047561 0 0 0
48 0 2 0 7.104734928537525 4.368650668237138 4.625983418305794 0 0 0
138 0 2 0 7.355128108169621 7.099758043879579 4.807327876143529 0 0 0
166 0 1 0 9.063307213610052 7.541937845680775 5.116937795422468 0 0 0
8 0 2 0 5.695897309985128 4.19123072273969 6.614995607250509 0 0 0
7 0 1 0 5.7899711514059735 4.723723904727825 5.77117029897519 0 0 0
136 0 1 0 6.358538790713331 7.173586799526678 4.850264772234843 0 0 0
137 0 2 0 6.001774989481418 6.335849311495876 5.2200799733097885 0 0 0
339 0 2 0 5.930004722740774 5.884338444919072 8.287107301548442 0 0 0
63 0 2 0 8.819528242002379 6.002038179520338 7.387976701226193 0 0 0
61 0 1 0 9.555240537927377 5.672394032843773 6.822757871823723 0 0 0
167 0 2 0 9.68715559641509 7.007791024637136 5.617902987136004 0 0 0
53 0 2 0 11.083621025169904 4.570949226944688 4.666523985788383 0 0 0
44 0 2 0 13.04877717302005 4.617304325418226 5.275631143617011 0 0 0
173 0 2 0 12.189737858962365 7.794136291218077 4.565399509796274 0 0 0
62 0 2 0 10.353467439932587 5.566217877618045 7.435265826848535 0 0 0
43 0 1 0 12.3023171380055 4.736360536770999 5.900117993840357 0 0 0
174 0 2 0 13.631664317931873 7.6255885997496815 4.982644273760754 0 0 0
45 0 2 0 12.159027348694949 5.680171268915854 5.933763283094333 0 0 0
416 0 2 0 14.755216697979007 5.7217932776778735 7.882807888317065 0 0 0
172 0 1 0 12.712134461978735 7.4518631898861845 5.271919106206506 0 0 0
202 0 1 0 15.473202858285958 7.6582969453706085 5.13582748577092 0 0 0
81 0 2 0 18.42274247333834 4.781125035936919 5.072217578989773 0 0 0
209 0 2 0 18.658814999205404 7.6101055584771276 4.757255250769373 0 0 0
79 0 1 0 19.36573674361655 4.855273871722959 5.507730323950258 0 0 0
99 0 2 0 16.025262063858897 6.095930513084989 5.777081433878948 0 0 0
97 0 1 0 15.995227244382345 5.310026420531234 6.383429446334309 0 0 0
80 0 2 0 19.44751175776058 5.8346303515993325 5.616684818053031 0 0 0
98 0 2 0 16.807356326287206 5.456490342581769 6.901147040169057 0 0 0
208 0 1 0 19.402449672265 7.517930168500003 5.395896482880809 0 0 0
410 0 2 0 18.85807536288243 5.654834075369326 8.283009126910917 0 0 0
409 0 1 0 17.898684397363745 5.563292557499363 8.265208165710012 0 0 0
189 0 2 0 0.7647293076433324 10.660825662328739 5.466824810182099 1 0 0
433 0 1 0 2.707089551458863 9.261552984139858 7.04437131126884 0 0 0
435 0 2 0 2.4398975877212705 8.857063968839482 6.197538872931123 0 0 0
434 0 2 0 3.640211987844131 9.132109541811628 7.174379562017118 0 0 0
135 0 2 0 2.7959861905113237 11.042308140344492 6.919348907519454 0 0 0
188 0 2 0 0.056837417252375885 11.982836439327933 5.510737638516194 1 0 0
116 0 2 0 7.062258904067871 11.201835302866288 5.216703339035166 0 0 0
466 0 1 0 5.563649867362021 8.904448495492451 7.025605001862236 0 0 0
468 0 2 0 5.727819340537998 8.213869448860239 6.3355319319829695 0 0 0
467 0 2 0 5.757769906890412 9.749846589059022 6.601341621477356 0 0 0
115 0 1 0 6.18610428407184 11.342412432667611 5.558790872867298 0 0 0
168 0 2 0 8.952973525493757 8.375016917371312 5.548591954921462 0 0 0
469 0 1 0 9.237775673939318 9.647520102660492 6.98503521678581 0 0 0
470 0 2 0 9.155912106387431 10.60958460889136 6.842008901564185 0 0 0
152 0 2 0 12.127439980753172 10.91307166023456 5.441028524396474 0 0 0
153 0 2 0 13.65970808436607 11.084276557183374 5.698155104974051 0 0 0
471 0 2 0 10.15627571045316 9.438036026601244 7.175649630180519 0 0 0
502 0 1 0 11.824502490854924 9.0049189259503 7.626340438559308 0 0 0
503 0 2 0 12.075462339501808 8.39234315567551 6.87778720938348 0 0 0
504 0 2 0 12.288611555067929 9.774540255252704 7.332772164752153 0 0 0
151 0 1 0 12.74508291577802 11.124653073752707 6.112248359074657 0 0 0
198 0 2 0 18.203371378915172 10.682385578516788 4.766261832243234 0 0 0
210 0 2 0 19.110496607539083 8.057061576354208 6.103928072832565 0 0 0
203 0 2 0 15.603346580801475 8.370819063425815 5.790485139966611 0 0 0
507 0 2 0 15.194465718224752 9.380984331884394 8.059241895552958 0 0 0
505 0 1 0 15.90759562602641 9.626695682983753 7.44991170768297 0 0 0
506 0 2 0 16.72026157172632 9.24347369730871 7.771561592677546 0 0 0
538 0 1 0 18.66867639933176 9.374631015287532 7.4367951621209 0 0 0
539 0 2 0 19.19242159164896 9.07459280353435 8.199629107585693 0 0 0
207 0 2 0 15.680256149526976 11.538509607420263 6.6989526290744426 0 0 0
540 0 2 0 19.270180207293237 10.049303207436857 7.068567920234216 0 0 0
187 0 1 0 19.80869656754237 11.05536271385525 5.616374979907632 0 0 0
239 0 2 0 1.2766960637477014 14.072548168788254 5.085379109491886 0 0 0
238 0 1 0 2.208698891761996 14.319088767145871 5.297703535262563 0 0 0
240 0 2 0 2.4225671443918744 13.502375048642415 5.70489125954395 0 0 0
133 0 1 0 2.783178130015344 12.008931400657499 6.932523644114036 0 0 0
134 0 2 0 3.697686478243716 12.187256515492614 7.240063997979281 0 0 0
542 0 2 0 2.3731157138661283 15.798379107252266 6.352303524947124 0 0 0
453 0 2 0 1.61142171760384 12.527660281443753 8.267285356915908 0 0 0
246 0 2 0 5.125104434603702 14.30957402163781 4.85773451179381 0 0 0
117 0 2 0 6.0042563133125855 12.252913338822133 5.656607733217983 0 0 0
244 0 1 0 5.544745659564085 13.991308225073361 5.638075141614304 0 0 0
276 0 2 0 7.527810935694589 14.451066588738088 4.89132291345576 0 0 0
274 0 1 0 8.47320099421942 14.57554850662107 5.083601019700606 0 0 0
245 0 2 0 5.342611586533381 14.587475615989097 6.33501911048757 0 0 0
489 0 2 0 8.114136122885458 12.540123067717122 7.935365802593643 0 0 0
169 0 1 0 9.544360309432681 12.256812111891344 6.729351984257362 0 0 0
170 0 2 0 9.269077031499169 13.063685086355154 6.303551494407337 0 0 0
275 0 2 0 8.50646782359716 15.443038462316709 5.5724602748509255 0 0 0
281 0 2 0 11.563108795858215 14.03735427750492 4.667213252238078 0 0 0
171 0 2 0 10.363334300775863 12.465411972504725 7.252462943573816 0 0 0
611 0 2 0 11.108524683560848 15.814260611945251 7.509786689952759 0 0 0
612 0 2 0 12.197823141439564 15.038376889223668 6.728755866698445 0 0 0
311 0 2 0 14.212270657284101 13.75893546410968 4.685959120332527 0 0 0
280 0 1 0 12.248830189794504 13.927882248328988 5.368969055311926 0 0 0
282 0 2 0 12.182185269901716 13.06453094297616 5.7955505590863465 0 0 0
610 0 1 0 12.090674278313944 15.726291480077855 7.4086588013570305 0 0 0
310 0 1 0 15.091406790525317 14.035946536561857 4.850454987406443 0 0 0
318 0 2 0 19.010722274378388 14.20722676389514 4.369817431205358 0 0 0
316 0 1 0 19.385459833177812 13.768869975354738 5.142789899207777 0 0 0
206 0 2 0 15.216962722683443 12.612108688749316 7.6803090055458245 0 0 0
312 0 2 0 15.423211017583721 13.399661687740561 5.457080347122747 0 0 0
614 0 2 0 15.325218473247697 15.36631295508965 6.110152940822225 0 0 0
613 0 1 0 15.799929247813079 15.91584661328554 6.740473395366335 0 0 0
205 0 1 0 15.630000223664519 12.466351637956967 6.8059632647621635 0 0 0
518 0 2 0 17.540508451934386 12.628218438889354 7.496721875638306 0 0 0
317 0 2 0 19.234947037744618 14.416507844630129 5.866324966461878 0 0 0
519 0 2 0 18.909667177060264 12.653723262732422 8.277381659681822 0 0 0
517 0 1 0 17.960411239678415 12.6276808024018 8.369562950660681 0 0 0
646 0 1 0 18.54267718357392 15.530545429965954 7.113941824800463 0 0 0
648 0 2 0 18.782929203355913 15.495717663724534 8.067841720560516 0 0 0
647 0 2 0 17.578716484002513 15.545893872046786 6.9838091063666585 0 0 0
297 0 2 0 0.2800180277057829 17.661313649937764 5.1921527518453265 1 0 0
224 0 2 0 4.969634210159206 17.980947358924134 5.179089810162048 0 0 0
543 0 2 0 3.5704161723458983 16.328154565897766 7.306616073560051 0 0 0
541 0 1 0 2.564941571512906 16.348039271649967 7.144296781298737 0 0 0
241 0 1 0 2.34705778411507 19.01228279317096 6.700547748122538 0 0 0
242 0 2 0 2.3836350655607013 18.037822033095754 6.54363420842617 0 0 0
243 0 2 0 3.179374698248295 19.173967621582598 7.210037948144999 0 0 0
560 0 2 0 1.1383959646230624 19.02527290030289 7.960636152867721 0 0 0
553 0 1 0 4.410724984338518 19.365316356291004 8.339774156336558 0 0 0
225 0 2 0 6.427960495622354 18.195977335746417 5.1575502546781875 0 0 0
264 0 2 0 8.387437712666507 17.975412094686067 4.440480582538847 0 0 0
575 0 2 0 5.939082385152821 16.050909685721372 8.07927463569351 0 0 0
574 0 1 0 5.18245587978703 16.259499915668307 7.535827533024966 0 0 0
578 0 2 0 8.750752179883552 16.018375824567112 7.540261575021735 0 0 0
577 0 1 0 9.38734525183387 16.322153532526507 6.858460116603093 0 0 0
223 0 1 0 5.627470713649742 18.400484108989254 5.723024937087481 0 0 0
576 0 2 0 5.53380919295055 17.006839199243885 7.0599115078692405 0 0 0
597 0 2 0 6.3651719422775255 18.884620777544296 8.246218920373792 0 0 0
278 0 2 0 8.00996665081787 18.880662065477825 7.103115536594283 0 0 0
277 0 1 0 8.808831926989372 18.914498230202973 6.5390713562839675 0 0 0
579 0 2 0 9.147249871684808 17.24146737089198 6.739472218496541 0 0 0
279 0 2 0 9.43348222384802 19.20315263745066 7.245103802832033 0 0 0
299 0 2 0 13.878549345482861 17.781867509924183 4.934025767997369 0 0 0
261 0 2 0 12.335264333645535 17.38534020399462 6.468574681059077 0 0 0
259 0 1 0 12.203655135409397 17.98059077857223 5.683809835767989 0 0 0
260 0 2 0 12.37676843134812 18.86645046699733 5.936684154037657 0 0 0
315 0 2 0 14.77983224944769 18.81105672837053 7.517481654411648 0 0 0
305 0 2 0 17.99378699910018 17.74443357052411 4.628443266507822 0 0 0
314 0 2 0 15.592265194251496 19.21971223868802 6.349638793612288 0 0 0
313 0 1 0 15.625144219097315 18.5839564293233 7.041745152212479 0 0 0
615 0 2 0 15.57541247134656 16.809793052957797 6.584983900924821 0 0 0
102 0 2 0 19.32311246577769 19.816492405280297 5.686440236148418 0 -1 0
295 0 1 0 19.439474317239807 17.958065973310646 5.760636581707679 0 0 0
296 0 2 0 19.355908381271583 17.21644937371899 6.417775756703517 0 0 0
627 0 2 0 17.2543024680077 19.364931527375433 7.846353226821699 0 0 0
626 0 2 0 18.75529189845855 19.32689138484615 8.131840026223863 0 0 0
355 0 1 0 0.9883902498463546 1.8673103938692968 8.905939553751708 0 0 0
335 0 2 0 1.3840889554267009 2.8145034076636604 10.505668915394326 0 0 0
357 0 2 0 0.25335765279767786 2.4814065559503797 8.610878404995642 0 0 0
329 0 2 0 4.079197884920958 2.203038063612261 9.91937335084185 0 0 0
328 0 1 0 3.975510477080045 1.2263503781730845 10.04253263965634 0 0 0
561 0 2 0 0.7439613696957925 0.31445914568876493 8.551577563654497 0 1 0
554 0 2 0 4.169007129097693 0.2699313441238385 8.491235067294397 0 1 0
347 0 2 0 2.4404709962130497 0.7530682330624384 11.067727672403858 0 0 0
348 0 2 0 1.035645895270156 0.7364840896223689 11.906117518887154 0 0 0
346 0 1 0 2.0181318405736564 0.6627405614608521 11.965754359563288 0 0 0
334 0 1 0 1.4960632000014806 3.7879667621014192 10.740743160462326 0 0 0
330 0 2 0 4.616945978875588 1.0184988172155267 10.766745077099124 0 0 0
393 0 2 0 7.307704180936299 1.1184706634909483 9.286457854151102 0 0 0
391 0 1 0 7.427391446578655 2.050818446373487 9.153436108346469 0 0 0
372 0 2 0 7.759268691947371 3.625742297093286 10.221648863942782 0 0 0
392 0 2 0 8.016403486945517 2.110280329865634 8.400945538898256 0 0 0
353 0 2 0 6.743376554066026 0.7435516952115845 11.906516088472154 0 0 0
352 0 1 0 5.803316115918743 0.7864293970231363 12.022517031443531 0 0 0
382 0 1 0 8.650896117174689 0.6666918714043871 11.69903910912471 0 0 0
384 0 2 0 8.88371009903268 1.4399814898300816 12.259754050734387 0 0 0
366 0 2 0 9.880093164674772 0.9868031272446727 10.678581759989074 0 0 0
427 0 1 0 13.851345089553254 2.114469038143839 8.91785707655437 0 0 0
428 0 2 0 14.125616931802792 2.402833351168621 9.802111772459106 0 0 0
632 0 2 0 13.558989017232463 0.4083074121821938 8.862941946404382 0 1 0
429 0 2 0 14.6564654824386 2.273675983367737 8.374015568495423 0 0 0
364 0 1 0 10.757224806341581 1.153196770817583 10.270258561268147 0 0 0
378 0 2 0 11.140435448560886 2.893809611410323 10.072910141633473 0 0 0
365 0 2 0 11.359610741764882 0.866404837362117 11.027818182681447 0 0 0
376 0 1 0 11.0285649536549 3.7871987928933892 10.487249391296983 0 0 0
389 0 2 0 13.344025476384068 0.669306053724197 12.288324346751581 0 0 0