LAMMPS (23 Jun 2022)
echo both

include		in.partitions
variable        pid world 0
include		in.temp
variable        temperature equal 270
variable        tempDamp equal 0.100 # this is 0.1 ps
include		in.pressure
variable        pressure equal 6079.5
variable        pressureDamp equal 1.0 #this is 1ps
include		in.seed
variable        seed world 745823

units           metal
atom_style	full
include		in.box
read_data       iceIII.data
Reading data file ...
  orthogonal box = (0 0 0) to (19.991053 19.991053 20.800772)
  1 by 1 by 1 MPI processor grid
  reading atoms ...
  972 atoms
Finding 1-2 1-3 1-4 neighbors ...
  special bond factors lj:    0        0        0       
  special bond factors coul:  0        0        0       
     0 = max # of 1-2 neighbors
     0 = max # of 1-3 neighbors
     0 = max # of 1-4 neighbors
     1 = max # of special neighbors
  special bonds CPU = 0.001 seconds
  read_data CPU = 0.009 seconds
include 	in.setup
variable	out_freq equal 500
variable	out_freq2 equal 500

timestep        0.0005

neigh_modify    delay 7 every 1

include         in.deepmd
# This is deepMD model

# create groups ###
#group ox type 2
#group hy type 1

mass 2 15.999
mass 1 1.008

pair_style      deepmd ../graph.pb
Summary of lammps deepmd module ...
  >>> Info of deepmd-kit:
  installed to:       /u/sigbjobo/software/DEEPMD_FROM_SOURCE/deepmd-kit/install
  source:             v2.1.3
  source branch:       master
  source commit:      5a32c49
  source commit at:   2022-07-01 09:52:58 +0800
  surpport model ver.:1.1 
  build float prec:   double
  build with tf inc:  /u/sigbjobo/software/DEEPMD_FROM_SOURCE/tensorflow/install/include;/u/sigbjobo/software/DEEPMD_FROM_SOURCE/tensorflow/install/include
  build with tf lib:  /u/sigbjobo/software/DEEPMD_FROM_SOURCE/tensorflow/install/lib/libtensorflow_cc.so;/u/sigbjobo/software/DEEPMD_FROM_SOURCE/tensorflow/install/lib/libtensorflow_framework.so
  set tf intra_op_parallelism_threads: 0
  set tf inter_op_parallelism_threads: 0
  >>> Info of lammps module:
  use deepmd-kit at:  /u/sigbjobo/software/DEEPMD_FROM_SOURCE/deepmd-kit/install
  source:             v2.1.3
  source branch:      master
  source commit:      5a32c49
  source commit at:   2022-07-01 09:52:58 +0800
  build float prec:   double
  build with tf inc:  /u/sigbjobo/software/DEEPMD_FROM_SOURCE/tensorflow/install/include;/u/sigbjobo/software/DEEPMD_FROM_SOURCE/tensorflow/install/include
  build with tf lib:  /u/sigbjobo/software/DEEPMD_FROM_SOURCE/tensorflow/install/lib/libtensorflow_cc.so;/u/sigbjobo/software/DEEPMD_FROM_SOURCE/tensorflow/install/lib/libtensorflow_framework.so
pair_coeff      * *

bond_style      none
angle_style     none
dihedral_style  none
improper_style  none
neigh_modify exclude none


neighbor        2.0 bin
neigh_modify    every 10 delay 0 check no

thermo          ${out_freq}
thermo          500
thermo_style 	custom step temp pe etotal epair emol press lx ly lz xy xz yz vol pxx pyy pzz pxy pxz pyz cella cellb cellc cellalpha cellbeta cellgamma

restart 	${out_freq} restart.lmp.${pid} restart2.lmp.${pid}
restart 	500 restart.lmp.${pid} restart2.lmp.${pid}
restart 	500 restart.lmp.0 restart2.lmp.${pid}
restart 	500 restart.lmp.0 restart2.lmp.0


include         in.dump
dump            myDump all atom ${out_freq2} dump.water.${pid}
dump            myDump all atom 500 dump.water.${pid}
dump            myDump all atom 500 dump.water.0
dump            myDump2 all dcd ${out_freq2} dump.dcd
dump            myDump2 all dcd 500 dump.dcd
dump_modify     myDump append yes
dump_modify     myDump2 append yes


timer           timeout 04:55:00 every 1000
New timer settings: style=normal  mode=nosync  timeout=04:55:00

fix             2 all nph aniso ${pressure} ${pressure} ${pressureDamp}
fix             2 all nph aniso 6079.5 ${pressure} ${pressureDamp}
fix             2 all nph aniso 6079.5 6079.5 ${pressureDamp}
fix             2 all nph aniso 6079.5 6079.5 1
fix             3 all temp/csvr ${temperature} ${temperature} ${tempDamp} ${seed}
fix             3 all temp/csvr 270 ${temperature} ${tempDamp} ${seed}
fix             3 all temp/csvr 270 270 ${tempDamp} ${seed}
fix             3 all temp/csvr 270 270 0.1 ${seed}
fix             3 all temp/csvr 270 270 0.1 745823
velocity 	all create ${temperature} ${seed} dist gaussian
velocity 	all create 270 ${seed} dist gaussian
velocity 	all create 270 745823 dist gaussian

run             400000

CITE-CITE-CITE-CITE-CITE-CITE-CITE-CITE-CITE-CITE-CITE-CITE-CITE

Your simulation uses code contributions which should be cited:

- USER-DEEPMD package:

@article{Wang_ComputPhysCommun_2018_v228_p178,
  author = {Wang, Han and Zhang, Linfeng and Han, Jiequn and E, Weinan},
  doi = {10.1016/j.cpc.2018.03.016},
  url = {https://doi.org/10.1016/j.cpc.2018.03.016},
  year = 2018,
  month = {jul},
  publisher = {Elsevier {BV}},
  volume = 228,
  journal = {Comput. Phys. Commun.},
  title = {{DeePMD-kit: A deep learning package for many-body potential energy representation and molecular dynamics}},
  pages = {178--184}
}

CITE-CITE-CITE-CITE-CITE-CITE-CITE-CITE-CITE-CITE-CITE-CITE-CITE

Generated 0 of 1 mixed pair_coeff terms from geometric mixing rule
Neighbor list info ...
  update every 10 steps, delay 0 steps, check no
  max neighbors/atom: 2000, page size: 100000
  master list distance cutoff = 8
  ghost atom cutoff = 8
  binsize = 4, bins = 5 5 6
  1 neighbor lists, perpetual/occasional/extra = 1 0 0
  (1) pair deepmd, perpetual
      attributes: full, newton on
      pair build: full/bin
      stencil: full/bin/3d
      bin: standard
Per MPI rank memory allocation (min/avg/max) = 7.648 | 7.648 | 7.648 Mbytes
   Step          Temp          PotEng         TotEng         E_pair         E_mol          Press            Lx             Ly             Lz             Xy             Xz             Yz           Volume          Pxx            Pyy            Pzz            Pxy            Pxz            Pyz           Cella          Cellb          Cellc        CellAlpha       CellBeta      CellGamma   
         0   270           -175.65013     -141.762       -175.65013      0              37872.759      19.991053      19.991053      20.800772      0              0              0              8312.8663      41637.12       42137.296      29843.861     -62.932054     -1050.3132     -453.62656      19.991053      19.991053      20.800772      90             90             90           
       500   267.3582      -160.8089      -127.25235     -160.8089       0              3557.504       19.848753      19.759691      20.34128       0              0              0              7977.9564      4283.073       4581.0723      1808.3665     -272.17366     -735.1306      -1313.9389      19.848753      19.759691      20.34128       90             90             90           
      1000   278.01486     -159.63304     -124.73895     -159.63304      0              3164.2445      19.983284      19.887058      20.181407      0              0              0              8020.2673      3521.0371      3105.0125      2866.684      -1762.5316      580.17319     -202.10047      19.983284      19.887058      20.181407      90             90             90           
      1500   262.25934     -159.56789     -126.6513      -159.56789      0              13442.241      20.119403      20.012292      20.177029      0              0              0              8123.9856      10123.047      16533.713      13669.962      6.1068167      1442.7896     -1510.5343      20.119403      20.012292      20.177029      90             90             90           
      2000   266.6631      -157.537       -124.06769     -157.537        0             -367.00654      20.059978      19.979092      20.156352      0              0              0              8078.2657      3136.3895     -2336.6042     -1900.805       137.11839      303.41898      203.83144      20.059978      19.979092      20.156352      90             90             90           
      2500   281.77729     -158.31585     -122.94953     -158.31585      0              8059.5024      19.852208      20.034977      20.259724      0              0              0              8058.073       8430.196       5266.3042      10482.007      1416.7246     -247.74952      826.62117      19.852208      20.034977      20.259724      90             90             90           
      3000   267.5118      -157.00775     -123.43191     -157.00775      0              7554.2564      19.841662      20.071131      20.436839      0              0              0              8138.8608      12021.157      4494.1094      6147.503      -78.189516     -5612.7272      1580.4436      19.841662      20.071131      20.436839      90             90             90           
      3500   259.50707     -156.67903     -124.10788     -156.67903      0              749.68658      20.023758      19.886406      20.347228      0              0              0              8102.278       1268.6098     -917.27876      1897.7287     -547.16734      330.99625     -62.723132      20.023758      19.886406      20.347228      90             90             90           
      4000   273.28507     -159.26649     -124.96605     -159.26649      0              7016.0509      20.155984      19.858824      20.248442      0              0              0              8104.9279      7630.5218      7333.7626      6083.8683     -110.84262     -969.98194     -131.52055      20.155984      19.858824      20.248442      90             90             90           
      4500   285.89166     -160.43498     -124.55226     -160.43498      0              6657.6185      20.052298      19.976675      20.123389      0              0              0              8060.9921      4958.507       5662.7314      9351.6173     -173.21011      2129.0369      2366.1561      20.052298      19.976675      20.123389      90             90             90           
      5000   266.79451     -158.04669     -124.56088     -158.04669      0              8446.3787      19.934951      20.071089      20.121275      0              0              0              8050.8472      11207.006      6991.1235      7141.007      -1944.4064     -512.17357     -2841.8828      19.934951      20.071089      20.121275      90             90             90           
      5500   266.06162     -159.66035     -126.26653     -159.66035      0              9394.4905      19.905572      20.153498      20.408143      0              0              0              8187.0716      12600.072      9021.9988      6561.4006      604.21448      747.32608     -46.200303      19.905572      20.153498      20.408143      90             90             90           
      6000   272.50417     -158.19054     -123.9881      -158.19054      0              9366.2272      19.796438      19.858137      20.472623      0              0              0              8048.2049      6909.5672      13835.597      7353.5176      680.03188     -2171.943       974.83584      19.796438      19.858137      20.472623      90             90             90           
      6500   269.47925     -159.46382     -125.64105     -159.46382      0              4539.3135      19.914214      19.825891      20.419267      0              0              0              8061.8744      2143.5508      5614.0977      5860.2921     -818.44776     -2129.3763     -951.66971      19.914214      19.825891      20.419267      90             90             90           
      7000   279.3903      -158.08924     -123.02252     -158.08924      0              6766.4898      20.071508      20.102601      20.25691       0              0              0              8173.4511      7603.8993      6584.9257      6110.6444     -611.53165      1313.4123      1716.6067      20.071508      20.102601      20.25691       90             90             90           
      7500   271.83634     -156.9735      -122.85488     -156.9735       0              6239.1875      20.047123      20.184207      20.026301      0              0              0              8103.348       3475.8194      6299.1977      8942.5456      251.2158      -2980.2633      577.77875      20.047123      20.184207      20.026301      90             90             90           
      8000   267.85495     -158.17025     -124.55135     -158.17025      0              6124.6141      20.052729      19.993736      20.083324      0              0              0              8051.9865      7029.8426      2404.5615      8939.4382      227.66055      15.596407     -1544.6541      20.052729      19.993736      20.083324      90             90             90           
      8500   262.47445     -158.78292     -125.83933     -158.78292      0              4743.8811      20.157453      19.870928      20.413894      0              0              0              8176.7301      4656.4773      8313.8948      1261.2712      687.42967      4024.1406      1232.0064      20.157453      19.870928      20.413894      90             90             90           
      9000   274.91916     -157.32968     -122.82414     -157.32968      0              9432.3003      19.937627      19.763021      20.513729      0              0              0              8082.9782      8734.5069      9139.0162      10423.378      1133.7809      1508.1578      107.79447      19.937627      19.763021      20.513729      90             90             90           
      9500   268.28241     -156.56285     -122.8903      -156.56285      0              8685.5062      19.841122      19.935206      20.457943      0              0              0              8091.8707      8972.9244      8985.6662      8097.928      -890.56557      2272.7156     -1930.1532      19.841122      19.935206      20.457943      90             90             90           
     10000   279.82257     -157.65607     -122.53509     -157.65607      0              3514.6458      19.959102      20.185439      20.223565      0              0              0              8147.7355      2238.621       2511.1746      5794.1416      583.09407     -294.36839      649.96524      19.959102      20.185439      20.223565      90             90             90           
     10500   282.60382     -156.06869     -120.59863     -156.06869      0              7725.6756      20.014529      20.139038      20.028196      0              0              0              8072.8325      5962.2398      10504.393      6710.3935     -440.11298      1863.0137     -1133.7485      20.014529      20.139038      20.028196      90             90             90           
     11000   269.22303     -156.93008     -123.13946     -156.93008      0              6457.0744      20.088366      20.071757      20.132687      0              0              0              8117.6763      4145.9684      7543.1348      7682.12       -772.01303     -403.44219     -1420.4939      20.088366      20.071757      20.132687      90             90             90           
     11500   255.57601     -156.80016     -124.7224      -156.80016      0              5368.0365      20.073852      19.956899      20.346108      0              0              0              8150.8918      4419.0708      9368.5457      2316.4931      889.19803     -736.66741      1273.1597      20.073852      19.956899      20.346108      90             90             90           
     12000   271.86369     -157.30974     -123.18769     -157.30974      0              5824.9522      19.958603      19.863266      20.374967      0              0              0              8077.5137      6339.8482      6221.1652      4913.8432     -52.344106      2489.4659     -1182.1223      19.958603      19.863266      20.374967      90             90             90           
     12500   277.58586     -157.7406      -122.90036     -157.7406       0              4382.5394      20.010272      19.889252      20.336137      0              0              0              8093.5657      5489.9044      5561.1488      2096.565      -899.63235     -128.8357       3379.4178      20.010272      19.889252      20.336137      90             90             90           
     13000   274.86607     -156.2495      -121.75062     -156.2495       0              7171.5736      20.16931       20.030266      20.200433      0              0              0              8160.907       8202.8854      7364.4551      5947.3802     -666.57207      427.06455      2619.3311      20.16931       20.030266      20.200433      90             90             90           
     13500   273.14153     -158.86969     -124.58726     -158.86969      0              8183.702       20.145999      20.068708      20.079686      0              0              0              8118.3009      3886.2838      11543.911      9120.911       1890.5685     -425.026       -284.64413      20.145999      20.068708      20.079686      90             90             90           
     14000   262.57543     -157.93103     -124.97477     -157.93103      0              7755.8743      19.895108      19.966744      20.118416      0              0              0              7991.8502      5879.9472      11625.413      5762.2629     -101.10727     -35.683603      1581.2215      19.895108      19.966744      20.118416      90             90             90           
     14500   262.40661     -159.8352      -126.90012     -159.8352       0              4612.0621      19.910152      20.178313      20.51851       0              0              0              8243.3785      3586.3216      8076.3065      2173.5581     -871.02567      665.90886      1502.3699      19.910152      20.178313      20.51851       90             90             90           
     15000   277.90608     -157.77699     -122.89655     -157.77699      0              7228.019       19.907767      19.974971      20.4821        0              0              0              8144.8518      9730.1715      5784.7872      6169.0983     -246.34026     -2569.3845      1654.5262      19.907767      19.974971      20.4821        90             90             90           
     15500   268.70656     -157.13221     -123.40642     -157.13221      0              3703.9722      20.045403      19.778606      20.311258      0              0              0              8052.807       2509.544       7645.0989      957.27357      700.98276     -2468.0603      625.19461      20.045403      19.778606      20.311258      90             90             90           
     16000   276.08351     -158.20035     -123.54867     -158.20035      0              6234.0301      20.180614      19.900816      20.23297       0              0              0              8125.7768      9034.6052      3844.303       5823.1821     -1643.445      -977.73601     -255.02698      20.180614      19.900816      20.23297       90             90             90           
     16500   272.15536     -157.48351     -123.32486     -157.48351      0              6529.6856      20.120707      20.04272       20.23814       0              0              0              8161.5098      7094.4506      5300.197       7194.4091      845.89257      2682.8988     -1207.32        20.120707      20.04272       20.23814       90             90             90           
     17000   277.10103     -158.17639     -123.39699     -158.17639      0              9986.3696      19.933861      19.995618      20.174714      0              0              0              8041.4365      11668.893      6632.7159      11657.5       -256.39539      1177.4839     -82.159979      19.933861      19.995618      20.174714      90             90             90           
     17500   269.14183     -158.00228     -124.22186     -158.00228      0              5897.2218      19.974179      20.044085      20.286969      0              0              0              8122.1753      6055.1716      7214.9683      4421.5257     -403.05938     -1295.5671      2037.0241      19.974179      20.044085      20.286969      90             90             90           
     18000   271.42697     -160.00755     -125.94031     -160.00755      0              6242.126       20.037429      20.011912      20.326762      0              0              0              8150.7729      4763.6946      7923.0985      6039.5848     -1826.5234      1886.8224     -1915.9365      20.037429      20.011912      20.326762      90             90             90           
     18500   278.59892     -159.92608     -124.95869     -159.92608      0              8090.1349      20.037789      19.900892      20.25567       0              0              0              8077.3507      7457.6187      8823.8136      7988.9725      535.66027      255.85094     -752.83117      20.037789      19.900892      20.25567       90             90             90           
     19000   267.59252     -158.34067     -124.7547      -158.34067      0              3241.2119      19.983482      19.928628      20.219608      0              0              0              8052.3253      2286.6932      3161.0876      4275.8549     -2749.109      -739.22851     -476.26434      19.983482      19.928628      20.219608      90             90             90           
     19500   269.12746     -158.25161     -124.47299     -158.25161      0              6605.1684      20.076956      20.028045      20.311727      0              0              0              8167.3898      6657.7948      8593.9374      4563.773      -920.59495      709.84         73.086323      20.076956      20.028045      20.311727      90             90             90           
     20000   267.18442     -159.64464     -126.10989     -159.64464      0              6041.8083      20.107256      19.964236      20.23841       0              0              0              8124.2241      8445.111       4753.5387      4926.7752      1636.7209      2876.0159      1313.827       20.107256      19.964236      20.23841       90             90             90           
     20500   270.25502     -159.07099     -125.15085     -159.07099      0              7030.9279      20.051106      19.762946      20.134823      0              0              0              7978.8047     -46.60688       12711.761      8427.63       -661.24337     -188.0137      -369.2427       20.051106      19.762946      20.134823      90             90             90           
     21000   268.70239     -159.31073     -125.58546     -159.31073      0              5121.9766      20.124194      19.942803      20.300883      0              0              0              8147.4111      6335.3648      4673.8718      4356.6933      1112.5775     -672.34734      71.594857      20.124194      19.942803      20.300883      90             90             90           
     21500   261.39582     -159.93223     -127.12402     -159.93223      0              5469.9231      19.916171      20.092145      20.328636      0              0              0              8134.6784      6275.5047      4555.0869      5579.1775     -788.72013      1557.9041      2924.1881      19.916171      20.092145      20.328636      90             90             90           
     22000   268.39978     -158.10147     -124.41418     -158.10147      0              7647.3455      19.788379      20.081601      20.23156       0              0              0              8039.6643      5362.7588      10581.762      6997.5158      32.283168      167.80762      68.134626      19.788379      20.081601      20.23156       90             90             90           
     22500   272.64996     -158.6765      -124.45577     -158.6765       0              4265.8454      20.062847      20.049002      20.252283      0              0              0              8146.2792      7609.146       1731.1902      3457.2         538.83029      1559.6085     -36.879834      20.062847      20.049002      20.252283      90             90             90           
     23000   261.6288      -159.02477     -126.18732     -159.02477      0              3548.4808      20.206736      19.906118      20.202036      0              0              0              8126.0202      1867.5461      4573.3536      4204.5428     -1707.6032      2616.1966      216.9752       20.206736      19.906118      20.202036      90             90             90           
     23500   267.63793     -157.4311      -123.83943     -157.4311       0              10165.374      20.006239      19.91921       20.169038      0              0              0              8037.5326      11659.044      7984.3135      10852.764      235.51447     -753.75915      1643.1938      20.006239      19.91921       20.169038      90             90             90           
     24000   283.23242     -158.0107      -122.46174     -158.0107       0              9878.1252      19.92037       20.140101      20.376057      0              0              0              8174.8387      12994.246      4853.482       11786.648     -444.12672     -379.9143       18.588162      19.92037       20.140101      20.376057      90             90             90           
     24500   269.46797     -156.70183     -122.88048     -156.70183      0              7263.2619      19.943583      19.938302      20.395736      0              0              0              8110.1845      7666.2137      7211.1693      6912.4028     -2052.4499     -1503.2853      2069.7104      19.943583      19.938302      20.395736      90             90             90           
     25000   268.47669     -156.21562     -122.51868     -156.21562      0              6287.4165      20.05251       19.759926      20.303407      0              0              0              8044.9431      5793.4186      10328.535      2740.2956      811.95655     -2585.169       1829.9804      20.05251       19.759926      20.303407      90             90             90           
     25500   278.07313     -158.09719     -123.19579     -158.09719      0              2390.4917      20.135565      20.013645      20.318106      0              0              0              8187.9134      514.7432       2266.7293      4390.0027     -392.92792      449.35083     -1097.8897      20.135565      20.013645      20.318106      90             90             90           
     26000   274.93389     -156.73636     -122.22897     -156.73636      0              1351.7179      19.9378        20.192875      20.246433      0              0              0              8151.2445     -1356.9538      2665.2849      2746.8225      1454.1371     -4389.3071      3307.6356      19.9378        20.192875      20.246433      90             90             90           
     26500   276.81229     -159.60092     -124.85777     -159.60092      0              6196.7362      19.831303      20.060408      20.105022      0              0              0              7998.2608      3404.0068      6933.2545      8252.9473      2358.6219     -1817.1961      86.69633       19.831303      20.060408      20.105022      90             90             90           
     27000   277.20042     -157.21933     -122.42747     -157.21933      0              8963.0027      20.106596      19.955417      20.257915      0              0              0              8128.1949      3800.2092      13854.334      9234.4645      205.58762     -1491.3985      1800.4421      20.106596      19.955417      20.257915      90             90             90           
     27500   273.71622     -158.06206     -123.7075      -158.06206      0              2759.8095      20.21427       19.854689      20.333306      0              0              0              8160.7328     -1069.1508      6832.0291      2516.5502     -690.30578     -1932.0922     -604.92469      20.21427       19.854689      20.333306      90             90             90           
     28000   273.12985     -158.52129     -124.24033     -158.52129      0              7839.1313      20.01075       19.865417      20.184102      0              0              0              8023.6225      11470.433      4963.5664      7083.3949      895.72424      313.40251     -827.05791      20.01075       19.865417      20.184102      90             90             90           
     28500   272.85516     -157.72262     -123.47613     -157.72262      0              6849.0725      19.973455      20.152218      20.244946      0              0              0              8148.7814      7761.0038      4492.4169      8293.7969      1015.7436      88.035069      942.1146       19.973455      20.152218      20.244946      90             90             90           
     29000   274.31755     -158.33512     -123.90509     -158.33512      0              3766.7606      20.018941      20.168001      20.367551      0              0              0              8223.2363      6340.3978      2019.9917      2939.8922      1160.1957      2364.7025      115.64387      20.018941      20.168001      20.367551      90             90             90           
     29500   273.37958     -156.38335     -122.07104     -156.38335      0              9137.1857      19.892114      19.752777      20.306987      0              0              0              7979.1125      8212.9079      13550.024      5648.6249      691.02077      4556.5371      342.78652      19.892114      19.752777      20.306987      90             90             90           
     30000   283.45226     -156.31567     -120.73912     -156.31567      0              7229.1046      20.077804      19.867976      20.404523      0              0              0              8139.4731      8454.2502      6152.3745      7080.6892      978.07993     -2686.1935      1855.6557      20.077804      19.867976      20.404523      90             90             90           
     30500   272.76133     -156.4286      -122.19389     -156.4286       0              4661.3564      20.094877      20.047494      20.339376      0              0              0              8193.7568      6986.5594      3143.8012      3853.7086      515.02802      2484.5445      3738.158       20.094877      20.047494      20.339376      90             90             90           
     31000   276.67037     -156.48147     -121.75613     -156.48147      0              5646.3451      19.908344      20.094925      20.205585      0              0              0              8083.3793      6610.8109      5346.0496      4982.1749      296.57883     -563.30731     -863.62695      19.908344      20.094925      20.205585      90             90             90           
     31500   268.56171     -156.43209     -122.72448     -156.43209      0              5114.33        19.914679      20.04922       20.201793      0              0              0              8066.0462      5394.4735      5207.7912      4740.7254      284.08354     -766.02111      2743.9281      19.914679      20.04922       20.201793      90             90             90           
     32000   270.2858      -158.10891     -124.18491     -158.10891      0              3337.0399      20.084758      19.990312      20.278898      0              0              0              8141.9893      1911.4396      2379.4591      5720.221      -443.63278     -93.561237     -53.822921      20.084758      19.990312      20.278898      90             90             90           
     32500   278.26183     -157.89427     -122.96918     -157.89427      0              5940.2741      20.093006      19.843235      20.25948       0              0              0              8077.6621      9363.0466      2796.1028      5661.6729     -700.15604      737.35707      3814.9448      20.093006      19.843235      20.25948       90             90             90           
     33000   283.3779      -159.12836     -123.56115     -159.12836      0              7049.6137      20.088502      19.973107      20.35722       0              0              0              8167.9235      4292.9649      7615.4254      9240.4508      960.96126      1202.3892     -772.05836      20.088502      19.973107      20.35722       90             90             90           
     33500   272.49636     -158.33393     -124.13247     -158.33393      0              8172.0713      19.891553      20.102351      20.30698       0              0              0              8120.0905      7722.0474      7673.9768      9120.1897     -149.44571      2366.6058      1102.0885      19.891553      20.102351      20.30698       90             90             90           
     34000   268.36236     -159.57324     -125.89065     -159.57324      0              6935.7127      19.762858      20.050027      20.173229      0              0              0              7993.5581      9638.1534      5054.7971      6114.1876      397.22695      676.80367     -333.37626      19.762858      20.050027      20.173229      90             90             90           
     34500   261.16578     -159.77561     -126.99628     -159.77561      0              2870.1195      20.106931      20.048147      20.180628      0              0              0              8134.9464      1016.1558      3978.8913      3615.3116      2081.9406      951.8697       4359.8804      20.106931      20.048147      20.180628      90             90             90           
     35000   260.08332     -159.94605     -127.30257     -159.94605      0              10168.837      20.252802      19.915509      20.076578      0              0              0              8097.7845      10454.506      9389.8683      10662.135     -1188.7821     -2201.2163     -1956.7955      20.252802      19.915509      20.076578      90             90             90           
     35500   259.38436     -158.31352     -125.75777     -158.31352      0              5011.632       20.064294      19.898817      20.152375      0              0              0              8045.9512      4233.3619      5656.6384      5144.8957      962.50768      115.29978      421.36482      20.064294      19.898817      20.152375      90             90             90           
     36000   273.46594     -159.28749     -124.96434     -159.28749      0              4824.4198      19.94814       20.035249      20.356553      0              0              0              8135.8212      4371.0067      4866.7997      5235.453      -172.22623     -1214.9883     -1453.2063      19.94814       20.035249      20.356553      90             90             90           
     36500   274.61587     -158.37835     -123.91087     -158.37835      0              7685.109       19.877663      20.016467      20.347249      0              0              0              8095.7756      14496.501      4241.775       4317.0512     -732.85151      2868.6651     -305.56513      19.877663      20.016467      20.347249      90             90             90           
     37000   268.37405     -157.9328      -124.24874     -157.9328       0              6748.1578      20.072368      19.960311      20.230037      0              0              0              8105.1785      5416.008       6153.8207      8674.6447      565.77808      702.18953     -985.00711      20.072368      19.960311      20.230037      90             90             90           
     37500   264.02988     -158.04133     -124.90252     -158.04133      0              7148.3022      20.163294      20.012881      20.181062      0              0              0              8143.5751      2797.633       11364.577      7282.697      -1014.3551     -926.47588     -1389.3936      20.163294      20.012881      20.181062      90             90             90           
     38000   280.01592     -157.79697     -122.65172     -157.79697      0              4071.261       19.987967      20.003585      20.117599      0              0              0              8043.6396      4730.6422      1531.2753      5951.8654     -437.97038      910.78395      1674.1326      19.987967      20.003585      20.117599      90             90             90           
     38500   266.51561     -157.46879     -124.01799     -157.46879      0              9226.8258      19.985473      20.054803      20.381625      0              0              0              8169.0514      9904.0707      11044.048      6732.3582     -1464.9191     -1257.7052      1468.6174      19.985473      20.054803      20.381625      90             90             90           
     39000   259.82881     -157.73018     -125.11865     -157.73018      0              4141.0602      19.968889      19.946387      20.426427      0              0              0              8135.993       5816.6353      4423.8167      2182.7286      156.92423      1048.3062      861.68997      19.968889      19.946387      20.426427      90             90             90           
     39500   267.48144     -157.17165     -123.59962     -157.17165      0              9078.8166      20.022347      19.837111      20.269902      0              0              0              8050.9118      8497.5263      12209.224      6529.6996      785.27838     -822.04543     -3921.941       20.022347      19.837111      20.269902      90             90             90           
     40000   273.95152     -158.8966      -124.5125      -158.8966       0              10547.845      20.221403      19.954963      20.195352      0              0              0              8149.1749      9517.0727      11462.302      10664.16      -368.60748     -3355.3741      720.5931       20.221403      19.954963      20.195352      90             90             90           
     40500   270.24921     -158.82526     -124.90585     -158.82526      0              4182.3465      20.138161      20.038155      20.186883      0              0              0              8146.045       6259.1402      1995.7117      4292.1875     -1554.9562     -2467.3568      498.0714       20.138161      20.038155      20.186883      90             90             90           
     41000   269.40704     -158.63428     -124.82057     -158.63428      0              10018.952      19.946185      19.928579      20.231081      0              0              0              8041.8368      10124.84       12358.654      7573.3628      839.67229     -2257.5616     -839.87012      19.946185      19.928579      20.231081      90             90             90           
     41500   279.74159     -158.59296     -123.48215     -158.59296      0              9481.5061      19.978313      19.965347      20.413622      0              0              0              8142.4621      10945.606      8024.2749      9474.637      -333.70136      2509.0631      2323.7821      19.978313      19.965347      20.413622      90             90             90           
     42000   256.88223     -156.21428     -123.97258     -156.21428      0              5834.6455      20.000996      19.944297      20.443145      0              0              0              8154.8896      8610.506       5406.2164      3487.2141      939.70011      400.23636      886.88877      20.000996      19.944297      20.443145      90             90             90           
     42500   270.83825     -156.79686     -122.80352     -156.79686      0              9583.6585      19.954385      19.951326      20.281509      0              0              0              8074.4018      12434.532      7126.6493      9189.7938      47.52591      -2461.2092      62.078543      19.954385      19.951326      20.281509      90             90             90           
     43000   276.08387     -157.6574      -123.00567     -157.6574       0              7662.5951      19.981246      20.078012      20.07721       0              0              0              8054.649       8962.0353      6469.7904      7555.9597      714.08073     -158.38886     -571.86753      19.981246      20.078012      20.07721       90             90             90           
     43500   270.76753     -158.11249     -124.12803     -158.11249      0              6564.1973      20.160205      20.264906      20.078736      0              0              0              8203.0601      7089.0204      3766.2448      8837.3266     -1095.7077     -2305.4503     -1616.7687      20.160205      20.264906      20.078736      90             90             90           
     44000   272.40549     -157.99269     -123.80264     -157.99269      0              4499.5297      20.059932      19.979053      20.131783      0              0              0              8068.3844      5845.9788      4204.77        3447.8405     -155.14621     -1183.5275     -548.37045      20.059932      19.979053      20.131783      90             90             90           
     44500   259.45662     -156.56558     -124.00077     -156.56558      0              4404.9492      19.928121      19.734212      20.47689       0              0              0              8052.8597      5685.0902      5005.1898      2524.5674     -939.98512      378.54093     -164.10153      19.928121      19.734212      20.47689       90             90             90           
     45000   254.06748     -158.08899     -126.20057     -158.08899      0              4831.1887      19.98948       19.84814       20.738614      0              0              0              8228.1283      9100.1172      1738.5751      3654.8738      689.97268     -1373.1649     -94.086593      19.98948       19.84814       20.738614      90             90             90           
     45500   265.76466     -158.74881     -125.39226     -158.74881      0              7176.9831      19.956727      19.973898      20.43032       0              0              0              8143.8043      5708.4528      7339.0257      8483.4709     -86.729141     -4659.9174      3335.0712      19.956727      19.973898      20.43032       90             90             90           
     46000   268.22223     -158.58192     -124.91691     -158.58192      0              6857.2902      19.986695      20.045739      20.053307      0              0              0              8034.3186      2989.3545      9150.7296      8431.7865      1608.6914      765.65853      308.99439      19.986695      20.045739      20.053307      90             90             90           
     46500   273.213       -158.10883     -123.81743     -158.10883      0              4890.5716      20.076924      20.121224      20.051821      0              0              0              8100.3799      4900.4528      5936.4071      3834.8549      25.768428      496.66412      845.4662       20.076924      20.121224      20.051821      90             90             90           
     47000   266.8135      -157.92134     -124.43315     -157.92134      0              1735.1296      20.096946      20.018149      20.35058       0              0              0              8187.1129      355.79993      3073.0017      1776.5872     -165.81057     -852.71242     -1273.1009      20.096946      20.018149      20.35058       90             90             90           
     47500   277.46496     -157.18692     -122.36184     -157.18692      0              5462.9431      19.933265      19.833441      20.445168      0              0              0              8082.9         5186.7008      6882.0673      4320.0612     -395.52582      3594.5348      626.98098      19.933265      19.833441      20.445168      90             90             90           
     48000   280.73485     -158.20017     -122.96469     -158.20017      0              3664.1571      19.931555      19.949436      20.44825       0              0              0              8130.6998      3039.2156      4159.0223      3794.2333      1589.9501     -351.15326     -2305.0842      19.931555      19.949436      20.44825       90             90             90           
     48500   272.7779      -157.68572     -123.44893     -157.68572      0              4486.834       19.989734      20.044531      20.239783      0              0              0              8109.774       1584.9306      6957.6172      4917.9542     -1161.1332     -760.98944      251.31706      19.989734      20.044531      20.239783      90             90             90           
     49000   273.19981     -156.21578     -121.92603     -156.21578      0              3570.7255      20.126603      20.034761      20.080117      0              0              0              8096.9393     -220.07074      5373.7013      5558.5459     -568.17002      993.37606      1238.1821      20.126603      20.034761      20.080117      90             90             90           
     49500   290.08985     -155.06811     -118.65846     -155.06811      0              3112.2619      20.166813      20.014129      20.13473       0              0              0              8126.8036      2645.8175      3641.7109      3049.2572     -257.49136     -1235.0262     -2682.518       20.166813      20.014129      20.13473       90             90             90           
     50000   276.71216     -156.37866     -121.64808     -156.37866      0              6572.0761      19.966663      19.992829      20.259342      0              0              0              8087.3282      5769.331       6703.0672      7243.8301     -1198.1215     -2296.9086     -4324.1704      19.966663      19.992829      20.259342      90             90             90           
     50500   261.45727     -156.31294     -123.49702     -156.31294      0              9444.1592      19.848283      20.036454      20.483922      0              0              0              8146.2347      12975.393      8671.4589      6685.6255      618.29253     -788.52528      1728.0403      19.848283      20.036454      20.483922      90             90             90           
     51000   268.82695     -156.89506     -123.15416     -156.89506      0              5310.8809      19.854676      19.921351      20.448684      0              0              0              8088.1087      7868.306       4452.9349      3611.4018      692.22552      4027.7409     -1691.9289      19.854676      19.921351      20.448684      90             90             90           
     51500   268.65735     -157.64134     -123.92172     -157.64134      0              8119.4437      20.108167      19.948297      20.301266      0              0              0              8143.3189      8687.0535      11409.559      4261.7189     -1431.9216     -2406.1217      4155.2424      20.108167      19.948297      20.301266      90             90             90           
     52000   265.21928     -159.20785     -125.91975     -159.20785      0              4240.5261      20.201037      20.040617      20.062909      0              0              0              8122.2927      4034.509       3814.7464      4872.323       292.15538      178.78154     -1060.6128      20.201037      20.040617      20.062909      90             90             90           
     52500   269.86339     -156.98626     -123.11527     -156.98626      0              5259.1664      20.064081      20.106706      20.020693      0              0              0              8076.7993      5987.3901      3130.7281      6659.3809     -1898.9294     -2206.8772      1569.7138      20.064081      20.106706      20.020693      90             90             90           
     53000   265.35416     -158.00475     -124.69973     -158.00475      0              4694.4445      19.928348      20.138879      20.373269      0              0              0              8176.4978      3540.0487      5918.6686      4624.6161     -811.24329     -322.25672      1204.2326      19.928348      20.138879      20.373269      90             90             90           
     53500   270.44134     -157.56314     -123.61962     -157.56314      0              5162.9199      19.760722      19.823483      20.594884      0              0              0              8067.5583      9699.1772      4121.724       1667.8585     -669.09429      1412.3862      2058.7686      19.760722      19.823483      20.594884      90             90             90           
     54000   278.42945     -157.83865     -122.89252     -157.83865      0              6122.6948      19.936245      19.861193      20.599373      0              0              0              8156.4786      3316.9459      8245.0793      6806.0592     -623.62856      1187.5053     -781.77721      19.936245      19.861193      20.599373      90             90             90           
     54500   271.67739     -159.95561     -125.85694     -159.95561      0              5311.8553      20.090582      19.977088      20.25375       0              0              0              8128.8695      5027.778       2296.7377      8611.0504     -860.37163      1649.0166      1492.1748      20.090582      19.977088      20.25375       90             90             90           
     55000   271.23206     -158.47481     -124.43204     -158.47481      0              5002.7171      20.065171      20.039845      20.007887      0              0              0              8045.2297      5823.453       3478.1163      5706.5821      1007.2404      2198.1283     -1059.4331      20.065171      20.039845      20.007887      90             90             90           
     55500   257.96342     -158.79389     -126.41648     -158.79389      0              4361.2133      20.114058      20.060989      20.180155      0              0              0              8142.8517      6415.8364      1767.7506      4900.0527     -749.25058      21.524176     -321.80074      20.114058      20.060989      20.180155      90             90             90           
     56000   268.94804     -156.43804     -122.68194     -156.43804      0              6685.6895      20.035955      19.988817      20.336008      0              0              0              8144.47        2901.3756      11334.061      5821.6321      988.32278     -1407.1224      540.76229      20.035955      19.988817      20.336008      90             90             90           
     56500   265.38649     -156.94182     -123.63274     -156.94182      0              6679.0153      19.920466      19.952146      20.3687        0              0              0              8095.6631      5611.0802      7845.8726      6580.0932      2043.351      -372.80638     -1674.1416      19.920466      19.952146      20.3687        90             90             90           
     57000   276.31153     -158.57101     -123.89071     -158.57101      0              7689.4273      19.91278       19.986033      20.347188      0              0              0              8097.7229      7265.0072      9458.629       6344.6458      580.31008      991.94363      1073.8579      19.91278       19.986033      20.347188      90             90             90           
     57500   275.27977     -159.1326      -124.5818      -159.1326       0              4072.1197      20.046437      20.030541      20.303855      0              0              0              8152.8297      5111.0708      4436.4106      2668.8776     -510.43181      655.06091     -4396.9931      20.046437      20.030541      20.303855      90             90             90           
     58000   272.72839     -158.47663     -124.24606     -158.47663      0              5788.8572      20.003662      20.037961      20.103261      0              0              0              8058.0424      5936.3551      3144.7         8285.5165      261.31996      3165.6942     -1580.9659      20.003662      20.037961      20.103261      90             90             90           
     58500   276.04411     -158.64705     -124.00031     -158.64705      0              3504.3008      20.063836      20.080475      20.167077      0              0              0              8125.1414      6251.2491      628.48397      3633.1694     -3096.6728      1111.7834      439.27645      20.063836      20.080475      20.167077      90             90             90           
     59000   277.09379     -157.58087     -122.80239     -157.58087      0              5161.9549      20.054983      19.987878      20.235655      0              0              0              8111.5946      3914.3684      2948.7683      8622.7279     -115.15759      3441.7684      47.213252      20.054983      19.987878      20.235655      90             90             90           
     59500   279.10756     -158.01393     -122.98269     -158.01393      0              7960.7849      20.083641      19.930782      20.375088      0              0              0              8155.7951      8334.0636      9039.1665      6509.1246     -1382.0311     -2807.4462     -521.9          20.083641      19.930782      20.375088      90             90             90           
     60000   268.90055     -158.30506     -124.55492     -158.30506      0              5578.8183      19.864828      19.833653      20.325064      0              0              0              8007.9147      3062.7074      8746.5716      4927.1759     -1053.6101      1199.792       291.0545       19.864828      19.833653      20.325064      90             90             90           
     60500   261.09742     -158.12433     -125.35357     -158.12433      0              813.38685      19.937632      20.188014      20.381533      0              0              0              8203.5914     -858.22324      1822.3181      1476.0657      1864.2098     -2231.7837      687.67971      19.937632      20.188014      20.381533      90             90             90           
     61000   274.65784     -158.22944     -123.7567      -158.22944      0              9728.201       19.967319      20.255943      20.164957      0              0              0              8155.8558      15266.5        7317.432       6600.6709     -1328.4626      340.3912      -280.76544      19.967319      20.255943      20.164957      90             90             90           
     61500   272.55787     -157.20738     -122.9982      -157.20738      0              3795.6142      20.119593      19.954592      19.996575      0              0              0              8028.1902      6428.7216     -2007.0977      6965.2188      1969.2748     -1344.1882      1360.1398      20.119593      19.954592      19.996575      90             90             90           
     62000   271.06923     -156.70401     -122.68168     -156.70401      0              6015.4866      20.253838      19.857104      20.204804      0              0              0              8126.02       -667.26821      13560.715      5153.0128     -1274.3534      105.01815     -2019.3745      20.253838      19.857104      20.204804      90             90             90           
     62500   271.80035     -158.25596     -124.14186     -158.25596      0              7407.9001      20.032031      19.874488      20.402025      0              0              0              8122.584       3794.8927      10433.595      7995.2131      1013.9989     -103.67427     -1572.3558      20.032031      19.874488      20.402025      90             90             90           
     63000   264.40326     -154.51835     -121.33268     -154.51835      0              7339.5386      19.872423      19.998312      20.448778      0              0              0              8126.6493      5227.7505      7996.9671      8793.8982      506.89034     -172.76121     -2177.68        19.872423      19.998312      20.448778      90             90             90           
     63500   262.8265      -157.30229     -124.31451     -157.30229      0              7769.209       19.964254      19.985791      20.37304       0              0              0              8128.8717      10945.819      6633.8982      5727.9102     -716.57786      1325.5863      503.85458      19.964254      19.985791      20.37304       90             90             90           
     64000   274.27445     -157.98416     -123.55954     -157.98416      0              6108.0717      20.161438      19.973408      20.225741      0              0              0              8144.7569      6276.2548      6412.6553      5635.3051      1412.5691     -757.43165     -1434.4443      20.161438      19.973408      20.225741      90             90             90           
     64500   275.02437     -157.84756     -123.32881     -157.84756      0              8327.8162      20.169678      20.089529      20.089539      0              0              0              8140.2681      6249.8537      9467.6023      9265.9927     -449.95059      2536.8808      419.29507      20.169678      20.089529      20.089539      90             90             90           
     65000   259.47041     -158.8177      -126.25115     -158.8177       0              6976.3361      19.970917      20.098585      20.106026      0              0              0              8070.3008      6186.0791      6009.1377      8733.7917      606.10513      2151.8703      931.17329      19.970917      20.098585      20.106026      90             90             90           
     65500   268.31958     -158.74102     -125.0638      -158.74102      0              8556.4754      19.885317      19.963169      20.33503       0              0              0              8072.4768      11260.273      8220.8752      6188.2785      31.18863      -1226.3737     -1113.036       19.885317      19.963169      20.33503       90             90             90           
     66000   276.2189      -156.98532     -122.31664     -156.98532      0              3098.8294      19.999332      19.846776      20.587759      0              0              0              8171.7401      8203.7461      1266.0211     -173.27911      344.16851     -549.41174     -428.87708      19.999332      19.846776      20.587759      90             90             90           
     66500   282.07838     -157.92166     -122.51755     -157.92166      0              5805.2605      20.023992      19.807084      20.425004      0              0              0              8100.9017      8879.4817      1383.5091      7152.7906      502.23352      3315.9557      2073.9004      20.023992      19.807084      20.425004      90             90             90           
     67000   273.0857      -159.38319     -125.10776     -159.38319      0              7362.7319      20.046368      20.004795      20.132683      0              0              0              8073.6786      6926.3413      5723.8688      9437.9856     -111.67682      319.05062     -598.86682      20.046368      20.004795      20.132683      90             90             90           
     67500   265.91078     -158.14962     -124.77473     -158.14962      0              7157.9541      20.156441      20.197654      20.063907      0              0              0              8168.2741      9964.492       5251.1183      6258.2521      58.368778     -1251.4575     -329.53451      20.156441      20.197654      20.063907      90             90             90           
     68000   269.89728     -158.49585     -124.62061     -158.49585      0              5829.1159      20.018955      20.079422      20.021211      0              0              0              8047.9071      5039.0089      7296.6686      5151.6701      844.32029      1789.8333     -1370.6696      20.018955      20.079422      20.021211      90             90             90           
     68500   274.34078     -157.94698     -123.51403     -157.94698      0              5046.366       20.015475      19.942487      20.215645      0              0              0              8069.2433      7233.2768      2021.4354      5884.3857      2434.6762     -1906.2832      46.915595      20.015475      19.942487      20.215645      90             90             90           
     69000   267.97582     -159.00756     -125.37349     -159.00756      0              6737.4977      20.078949      19.915024      20.485469      0              0              0              8191.5807      6884.9409      7015.4245      6312.1276     -205.29736      279.60596     -1230.6377      20.078949      19.915024      20.485469      90             90             90           
     69500   271.94419     -159.57477     -125.44261     -159.57477      0              6218.3242      19.929338      19.895078      20.388453      0              0              0              8083.9345      9156.9693      2881.4494      6616.5539      336.81885      440.53259     -754.03212      19.929338      19.895078      20.388453      90             90             90           
     70000   270.55312     -158.87254     -124.91498     -158.87254      0              8001.4868      19.948676      20.019509      20.219861      0              0              0              8075.0582      10174.399      7464.468       6365.593      -956.45362      1453.5179      1162.8142      19.948676      20.019509      20.219861      90             90             90           
     70500   267.15848     -158.40901     -124.87753     -158.40901      0              6960.2198      20.034175      20.175317      20.135925      0              0              0              8138.857       5187.1543      6625.8955      9067.6097      586.33022     -196.26216     -2515.8257      20.034175      20.175317      20.135925      90             90             90           
     71000   260.6711      -157.73555     -125.0183      -157.73555      0              3005.5501      20.068932      20.031105      20.13752       0              0              0              8095.3412      5856.502      -426.34361      3586.4919     -1777.5287      2238.3134     -2434.5259      20.068932      20.031105      20.13752       90             90             90           
     71500   269.22331     -158.79914     -125.00849     -158.79914      0              6689.8264      20.084126      19.887712      20.306537      0              0              0              8110.9852      6833.1342      8244.2196      4992.1254      65.612142      169.62692     -309.18103      20.084126      19.887712      20.306537      90             90             90           
     72000   273.93763     -156.00489     -121.62254     -156.00489      0              7094.0185      19.973325      19.906906      20.381319      0              0              0              8103.7574      6624.3782      8087.9745      6569.7028      93.86636       1596.4053     -545.11611      19.973325      19.906906      20.381319      90             90             90           
     72500   276.60054     -158.8569      -124.14032     -158.8569       0              7007.9533      19.92788       20.168617      20.397467      0              0              0              8198.1049      8657.541       6279.1342      6087.1846      671.30374     -942.88911     -219.50702      19.92788       20.168617      20.397467      90             90             90           
     73000   261.20437     -158.06097     -125.27679     -158.06097      0              6088.6461      19.886567      20.211083      20.179871      0              0              0              8110.8767      7293.0486      5861.029       5111.8608     -467.00831      437.07935      894.91207      19.886567      20.211083      20.179871      90             90             90           
     73500   283.43427     -159.7903      -124.21601     -159.7903       0              7241.5641      20.112579      20.048571      19.969321      0              0              0              8052.1986      7424.2643      4279.7483      10020.68      -280.96091     -1279.42        198.01674      20.112579      20.048571      19.969321      90             90             90           
     74000   267.96648     -158.28947     -124.65657     -158.28947      0              4132.2029      20.313632      20.020334      20.158347      0              0              0              8198.1109      2852.2452      6721.1233      2823.2403     -1132.5942     -181.10622     -806.87755      20.313632      20.020334      20.158347      90             90             90           
     74500   270.94027     -157.80935     -123.8032      -157.80935      0              7811.4702      19.94575       19.880665      20.222899      0              0              0              8019.0825      8887.3767      4940.9412      9606.0925      91.813175     -2945.8309     -4341.988       19.94575       19.880665      20.222899      90             90             90           
     75000   271.13554     -157.63794     -123.60728     -157.63794      0              9195.1226      19.986163      20.098265      20.478556      0              0              0              8225.9738      11800.31       7820.3801      7964.6775      694.80823      357.36582      34.417556      19.986163      20.098265      20.478556      90             90             90           
     75500   280.49627     -160.36771     -125.16218     -160.36771      0              6223.8048      19.957389      19.98846       20.334634      0              0              0              8111.8407      5402.2791      6600.7881      6668.3472     -144.50102     -864.122        2106.633       19.957389      19.98846       20.334634      90             90             90           
     76000   265.12128     -156.6543      -123.37851     -156.6543       0              4753.9851      20.039688      19.895262      20.213032      0              0              0              8058.8317      7299.5316      732.21002      6230.2136     -223.79626      255.83056     -1633.9114      20.039688      19.895262      20.213032      90             90             90           
     76500   259.95962     -160.56376     -127.93581     -160.56376      0              7108.9362      20.118741      19.967006      20.178359      0              0              0              8105.8691      4545.144       9715.7498      7065.9148      1788.0299      3236.6645      246.4243       20.118741      19.967006      20.178359      90             90             90           
     77000   257.84253     -159.39467     -127.03244     -159.39467      0              4406.746       19.998115      20.05313       20.126302      0              0              0              8071.1465      911.2428       7000.9664      5308.0289      774.15478     -780.89772     -1739.6167      19.998115      20.05313       20.126302      90             90             90           
     77500   263.37555     -157.48783     -124.43114     -157.48783      0              7220.3201      19.897023      20.084329      20.255939      0              0              0              8094.6451      8283.2156      5851.4637      7526.281      -405.62625      3127.5633     -517.05041      19.897023      20.084329      20.255939      90             90             90           
     78000   276.99744     -155.7751      -121.00871     -155.7751       0              8225.0819      19.978894      19.964117      20.406041      0              0              0              8139.1739      10362.667      8887.0766      5425.5019     -419.4889       1204.4102      2902.1172      19.978894      19.964117      20.406041      90             90             90           
     78500   261.67029     -158.79225     -125.94959     -158.79225      0              3516.9118      20.13177       19.807502      20.375619      0              0              0              8124.9833      72.208762      7957.6475      2520.8791     -155.2094       268.74132      1343.6676      20.13177       19.807502      20.375619      90             90             90           
     79000   266.69388     -158.88285     -125.40967     -158.88285      0              8041.4644      20.143337      19.83069       20.17531       0              0              0              8059.1541      8211.3496      7935.2251      7977.8185     -64.725362      267.15831      1454.9516      20.143337      19.83069       20.17531       90             90             90           
     79500   268.4927      -157.34248     -123.64353     -157.34248      0              3740.78        20.026091      20.042014      20.123435      0              0              0              8076.806       3189.9082      2574.3346      5458.097       492.34835     -1969.6828     -210.98579      20.026091      20.042014      20.123435      90             90             90           
     80000   270.63218     -156.7281      -122.76062     -156.7281       0              4249.7542      19.925053      20.220628      20.169731      0              0              0              8126.3259      5327.1253      2663.9763      4758.1609     -286.60025      165.58213      2173.124       19.925053      20.220628      20.169731      90             90             90           
     80500   270.46358     -157.97747     -124.03115     -157.97747      0              6699.3541      19.907396      20.108557      20.307381      0              0              0              8129.2277      7065.7348      7377.9069      5654.4206      453.73661      2175.992      -406.77774      19.907396      20.108557      20.307381      90             90             90           
     81000   268.53003     -157.61866     -123.91502     -157.61866      0              9328.4043      19.974012      19.765785      20.30322       0              0              0              8015.7523      6201.5802      11918.376      9865.2567     -28.775783      2326.5178      4675.4814      19.974012      19.765785      20.30322       90             90             90           
     81500   261.25909     -157.67443     -124.88339     -157.67443      0              5809.2163      20.165877      19.894798      20.376963      0              0              0              8175.1568      5474.2305      7362.3307      4591.0878      2778.8834      3201.5191      340.79581      20.165877      19.894798      20.376963      90             90             90           
     82000   267.47862     -158.88523     -125.31356     -158.88523      0              8967.1974      19.923696      20.000092      20.208219      0              0              0              8052.4855      9942.9243      7410.4485      9548.2194      564.76035     -3097.8443      1230.7399      19.923696      20.000092      20.208219      90             90             90           
     82500   273.45739     -155.56379     -121.24172     -155.56379      0              3830.5161      19.929308      20.05378       20.186041      0              0              0              8067.5121      5438.4099      1345.2112      4707.9272     -1747.8241      1779.8532     -1958.4457      19.929308      20.05378       20.186041      90             90             90           
     83000   258.29682     -155.25138     -122.83213     -155.25138      0              7206.1191      20.131279      19.872254      20.26353       0              0              0              8106.5042      1659.5804      11492.451      8466.3256     -1769.5368     -1912.0572      1077.1262      20.131279      19.872254      20.26353       90             90             90           
     83500   262.61086     -156.49056     -123.52985     -156.49056      0              5207.64        20.189168      19.810684      20.343848      0              0              0              8136.7504      2908.182       10429.826      2284.9123      615.44026      1147.9397      1831.3987      20.189168      19.810684      20.343848      90             90             90           
     84000   281.30684     -156.95186     -121.64458     -156.95186      0              9382.8774      19.966671      20.040635      20.268465      0              0              0              8110.3201      5975.5577      9670.9549      12502.12       2169.7794      2890.3316      1515.2538      19.966671      20.040635      20.268465      90             90             90           
     84500   274.47324     -157.84162     -123.39205     -157.84162      0              5975.0029      19.80092       20.26547       20.168017      0              0              0              8092.9202      6985.9964      6342.0839      4596.9284     -434.38123     -1907.3959     -582.75839      19.80092       20.26547       20.168017      90             90             90           
     85000   260.68312     -157.3056      -124.58684     -157.3056       0              3664.8969      19.934241      20.254262      20.280023      0              0              0              8188.1274      2133.1484      6460.4664      2401.0758     -474.01865      1646.8885      3253.6807      19.934241      20.254262      20.280023      90             90             90           
     85500   280.48108     -157.32038     -122.11675     -157.32038      0              6339.6012      20.036682      19.811718      20.283467      0              0              0              8051.7472      7890.7325      5991.0695      5137.0016      1342.9904      655.49082      1974.2025      20.036682      19.811718      20.283467      90             90             90           
     86000   279.71219     -158.65818     -123.55105     -158.65818      0              6308.1935      20.104525      19.736347      20.351497      0              0              0              8075.268       2860.3766      10056.401      6007.8031      1359.2268     -3587.9226      585.89721      20.104525      19.736347      20.351497      90             90             90           
     86500   264.27239     -158.35674     -125.18749     -158.35674      0              4652.7885      20.086595      20.016559      20.343251      0              0              0              8179.2995      3230.9433      2602.8353      8124.587       28.678106      1920.3941     -1525.3034      20.086595      20.016559      20.343251      90             90             90           
     87000   257.73643     -157.74927     -125.40036     -157.74927      0              8362.6189      19.927198      19.998398      20.162901      0              0              0              8035.1589      9967.4147      6099.6624      9020.7796      2225.1863     -801.76038      1017.6704      19.927198      19.998398      20.162901      90             90             90           
     87500   265.23317     -158.50775     -125.21791     -158.50775      0              6110.0118      20.008848      20.012619      20.249583      0              0              0              8108.5294      9414.6031      5283.8291      3631.603       418.46461     -791.25734      1009.2397      20.008848      20.012619      20.249583      90             90             90           
     88000   271.56138     -157.92692     -123.84282     -157.92692      0              4986.4814      20.112855      20.069105      20.302209      0              0              0              8194.9257      7336.6185      1565.691       6057.1348     -1433.6748     -1353.7086     -663.12179      20.112855      20.069105      20.302209      90             90             90           
     88500   259.51081     -157.32154     -124.74993     -157.32154      0              7868.1605      19.985511      19.960714      20.193499      0              0              0              8055.6931      8958.0414      10394.287      4252.1533     -284.94417      190.801       -1933.0714      19.985511      19.960714      20.193499      90             90             90           
     89000   253.9656      -158.83682     -126.96119     -158.83682      0              5922.8792      19.901591      20.018753      20.26331       0              0              0              8073.0046      3060.4228      9640.7559      5067.4591     -105.85526      273.82429     -248.17542      19.901591      20.018753      20.26331       90             90             90           
     89500   258.50852     -159.86045     -127.41463     -159.86045      0              7064.8246      19.910946      20.05495       20.257465      0              0              0              8089.0695      9035.4625      4627.7818      7531.2295      1155.8788     -79.130378     -4.7486918      19.910946      20.05495       20.257465      90             90             90           
     90000   267.37221     -159.96957     -126.41126     -159.96957      0              5316.8363      20.075453      20.018444      20.281843      0              0              0              8150.8533      1755.6774      9085.1853      5109.6461     -90.666202      1229.5795      2442.5839      20.075453      20.018444      20.281843      90             90             90           
     90500   275.05464     -158.24775     -123.7252      -158.24775      0              6450.5608      20.050624      19.775501      20.227773      0              0              0              8020.5374      9385.9759      2009.8777      7955.8288     -268.47525     -141.2844      -1191.2125      20.050624      19.775501      20.227773      90             90             90           
     91000   278.87197     -159.53003     -124.52836     -159.53003      0              6118.6338      20.102033      19.907513      20.461706      0              0              0              8188.3958      4367.3329      8615.3366      5373.2319      1776.6719     -1090.5003      930.61883      20.102033      19.907513      20.461706      90             90             90           
     91500   258.08441     -159.65874     -127.26615     -159.65874      0              7370.8318      19.967461      20.030853      20.428784      0              0              0              8170.8043      4251.9825      10343.278      7517.2348     -616.81883      985.73339     -2103.8756      19.967461      20.030853      20.428784      90             90             90           
     92000   270.33172     -158.95489     -125.02512     -158.95489      0              7121.455       19.813272      19.995518      20.119381      0              0              0              7970.8286      4091.8216      7631.5726      9640.9708      694.12867      2620.5846      306.29407      19.813272      19.995518      20.119381      90             90             90           
     92500   269.67687     -159.55201     -125.70443     -159.55201      0              3506.1785      20.124375      20.149347      20.227163      0              0              0              8201.9733     -644.117        7351.4539      3811.1986      1406.6538      1123.1492     -2228.3512      20.124375      20.149347      20.227163      90             90             90           
     93000   263.00423     -157.63471     -124.62463     -157.63471      0              5316.2345      20.159345      20.020687      20.221132      0              0              0              8161.3285      2917.9842      6306.9217      6723.7976     -690.69795      144.17383     -536.34006      20.159345      20.020687      20.221132      90             90             90           
     93500   273.10806     -159.3222      -125.04397     -159.3222       0              5074.6093      19.977978      19.844402      20.215648      0              0              0              8014.5146      4154.4477      4276.9749      6792.4053      995.67597      702.04022     -796.96111      19.977978      19.844402      20.215648      90             90             90           
     94000   265.10143     -159.27436     -126.00106     -159.27436      0              6115.2722      20.031871      19.977539      20.370532      0              0              0              8152.0318      7365.9849      6098.2695      4881.5621     -1836.5489     -2673.6256     -3329.8476      20.031871      19.977539      20.370532      90             90             90           
     94500   272.6403      -159.207       -124.98748     -159.207        0              5948.5487      20.066104      20.030138      20.383231      0              0              0              8192.5675      6543.3639      3830.6145      7471.6676     -671.0174       12.391794      2423.229       20.066104      20.030138      20.383231      90             90             90           
     95000   253.5277      -158.81137     -126.9907      -158.81137      0              8448.3714      19.948896      19.92189       20.238822      0              0              0              8043.3067      11324.272      7134.7101      6886.1323     -350.40407      208.60235     -3341.7398      19.948896      19.92189       20.238822      90             90             90           
[...]
    377000   265.11359     -158.56195     -125.28712     -158.56195      0              5798.667       19.926472      19.833615      20.564892      0              0              0              8127.5329      7042.818       6523.1459      3830.0372      1088.1968     -2024.364      -1743.6342      19.926472      19.833615      20.564892      90             90             90           
    377500   263.55602     -158.03041     -124.95107     -158.03041      0              4893.3735      19.993513      19.844539      20.446656      0              0              0              8112.4572      5474.7758      5649.5594      3555.7854     -512.1595       1215.0782     -602.74435      19.993513      19.844539      20.446656      90             90             90           
    378000   262.2552      -156.4984      -123.58233     -156.4984       0              6655.8859      20.156921      19.926284      20.241556      0              0              0              8130.072       8544.3749      4355.7644      7067.5182     -579.81038     -1722.6465     -18.681311      20.156921      19.926284      20.241556      90             90             90           
    378500   268.2062      -159.27662     -125.61363     -159.27662      0              6341.8102      20.202592      20.020265      20.161914      0              0              0              8154.7131      5698.2918      7592.4987      5734.6403     -406.21383      78.008209      570.7829       20.202592      20.020265      20.161914      90             90             90           
    379000   272.45052     -157.85215     -123.65645     -157.85215      0              6131.7472      20.03674       20.094012      20.160452      0              0              0              8116.9705      6432.9709      4083.3645      7878.9061     -360.69303     -2603.8316      457.46365      20.03674       20.094012      20.160452      90             90             90           
    379500   263.27559     -157.61403     -124.56989     -157.61403      0              7108.7833      19.832731      20.099098      20.330385      0              0              0              8104.0982      5019.0788      7179.7865      9127.4846     -1514.6551     -559.31631     -587.47591      19.832731      20.099098      20.330385      90             90             90           
    380000   260.38787     -158.00907     -125.32737     -158.00907      0              5485.8297      19.881021      20.021736      20.580145      0              0              0              8191.9794      7964.3515      3006.6703      5486.4673      162.70834      356.42566      501.68508      19.881021      20.021736      20.580145      90             90             90           
    380500   270.31237     -159.70608     -125.77874     -159.70608      0              3095.2745      19.895758      19.767954      20.401806      0              0              0              8023.9983     -1298.9518      8145.9649      2438.8103      378.99736     -3473.2012     -21.820647      19.895758      19.767954      20.401806      90             90             90           
    381000   258.50076     -157.39448     -124.94964     -157.39448      0              6382.0646      20.230412      19.937267      20.197716      0              0              0              8146.5292      5959.3362      5458.3675      7728.49        493.39646     -480.99774     -494.6107       20.230412      19.937267      20.197716      90             90             90           
    381500   274.45387     -155.46092     -121.01378     -155.46092      0              5435.9552      20.255203      20.161332      20.033869      0              0              0              8181.2685      4385.7424      1529.0934      10393.03       603.79351      157.44784     -101.56352      20.255203      20.161332      20.033869      90             90             90           
    382000   276.03223     -158.06239     -123.41715     -158.06239      0              2834.2508      20.044777      20.145343      20.108702      0              0              0              8120.0728      3364.316       3089.6966      2048.7397     -987.88291      1932.4015      2254.8353      20.044777      20.145343      20.108702      90             90             90           
    382500   278.08046     -155.97448     -121.07215     -155.97448      0              9227.9172      19.859074      19.876178      20.360895      0              0              0              8036.9034      8958.2182      10073.512      8652.0214     -1041.6306      1448.9702     -577.70549      19.859074      19.876178      20.360895      90             90             90           
    383000   273.97752     -157.36979     -122.98243     -157.36979      0              2729.4841      19.998379      19.8989        20.642307      0              0              0              8214.5185      6732.1972     -2348.2352      3804.4904     -704.93905      188.4492       152.42862      19.998379      19.8989        20.642307      90             90             90           
    383500   288.08069     -157.21819     -121.06073     -157.21819      0              7471.0816      19.987345      19.956017      20.474042      0              0              0              8166.4355      4796.1483      11131.983      6485.1133      805.07313      2473.788       1736.8195      19.987345      19.956017      20.474042      90             90             90           
    384000   269.04595     -158.13098     -124.36259     -158.13098      0              5663.5373      19.993593      20.039306      20.249241      0              0              0              8113.015       7966.3524      4079.8849      4944.3748     -771.46084      170.41269      3936.0716      19.993593      20.039306      20.249241      90             90             90           
    384500   261.32164     -157.33431     -124.53541     -157.33431      0              5655.1742      20.065683      19.984814      20.119806      0              0              0              8068.2226      5667.1714      6083.8125      5214.5388     -20.157462      110.20132      1636.1929      20.065683      19.984814      20.119806      90             90             90           
    385000   255.57781     -157.93068     -125.8527      -157.93068      0              6017.8225      20.185499      19.935811      20.193923      0              0              0              8126.3231      6872.4821      4946.9888      6233.9966      812.85834     -2799.9232      141.5246       20.185499      19.935811      20.193923      90             90             90           
    385500   264.87765     -159.07219     -125.82697     -159.07219      0              3660.4523      20.03048       19.909742      20.348138      0              0              0              8114.8719      3253.5244      5245.9239      2481.9086     -299.73892      1637.2045     -2104.9075      20.03048       19.909742      20.348138      90             90             90           
    386000   269.42843     -158.18077     -124.36438     -158.18077      0              6281.8286      19.896692      19.956096      20.462215      0              0              0              8124.7334      8245.5182      6550.1565      4049.8111      3326.0255      2262.2894     -2489.2871      19.896692      19.956096      20.462215      90             90             90           
    386500   273.71354     -157.70301     -123.34878     -157.70301      0              7303.3715      19.961497      20.084855      20.439665      0              0              0              8194.7479      8021.5365      5712.6409      8175.9371     -234.99519      513.28663     -796.85417      19.961497      20.084855      20.439665      90             90             90           
    387000   274.88179     -158.47726     -123.9764      -158.47726      0              7494.328       19.987636      20.049991      20.275955      0              0              0              8125.6277      9104.7439      6027.2081      7351.0321      1392.9948      728.87599      360.94024      19.987636      20.049991      20.275955      90             90             90           
    387500   271.01865     -157.6487      -123.63271     -157.6487       0              7058.3927      20.144176      19.972268      20.205691      0              0              0              8129.2521      5892.2125      7717.2285      7565.737      -21.313682      875.66438      532.74526      20.144176      19.972268      20.205691      90             90             90           
    388000   272.55811     -160.61956     -126.41036     -160.61956      0              4249.429       20.166921      19.849842      20.185132      0              0              0              8080.3143      468.92264      7015.581       5263.7833     -1648.834       1812.8799     -1556.5         20.166921      19.849842      20.185132      90             90             90           
    388500   261.89512     -159.31028     -126.4394      -159.31028      0              5840.4947      20.008264      19.966694      20.359977      0              0              0              8133.7882      8604.2347      3453.1388      5464.1106      1077.7947      1023.6043     -592.42072      20.008264      19.966694      20.359977      90             90             90           
    389000   258.63077     -158.46932     -126.00816     -158.46932      0              6721.2987      19.801399      20.085293      20.434323      0              0              0              8127.0753      8380.7688      6307.1037      5476.0238     -1604.0136      916.55101      730.02823      19.801399      20.085293      20.434323      90             90             90           
    389500   266.14682     -158.69657     -125.29206     -158.69657      0              5189.2856      19.862067      20.072443      20.211491      0              0              0              8057.9214      3614.5205      6535.1323      5418.204       625.87001     -686.22272      894.15919      19.862067      20.072443      20.211491      90             90             90           
    390000   255.47943     -158.87028     -126.80464     -158.87028      0              7746.5556      20.25386       20.064985      20.090565      0              0              0              8164.6727      7853.5942      7297.5832      8088.4895     -240.85078      2008.1664     -743.35331      20.25386       20.064985      20.090565      90             90             90           
    390500   267.78968     -157.00836     -123.39765     -157.00836      0              6616.6624      20.214754      19.932164      20.018713      0              0              0              8066.0154      5185.1715      5487.0479      9177.7679     -849.71604     -105.14661      15.473534      20.214754      19.932164      20.018713      90             90             90           
    391000   274.18384     -157.08135     -122.6681      -157.08135      0              3770.9474      20.099619      20.032532      20.356342      0              0              0              8196.4052      6336.0534      627.86703      4348.9217     -290.68529      2443.3828      1280.7895      20.099619      20.032532      20.356342      90             90             90           
    391500   282.8938      -155.49822     -119.99177     -155.49822      0              7226.9099      19.835496      19.978472      20.462969      0              0              0              8109.1248      6656.0319      8667.321       6357.3767     -247.43479     -1019.2093     -1112.0846      19.835496      19.978472      20.462969      90             90             90           
    392000   263.27033     -159.82405     -126.78057     -159.82405      0              5297.3703      19.854121      19.992323      20.44595       0              0              0              8115.6107      13933.973      64.881014      1893.2563      1003.6722     -926.5499       3180.2912      19.854121      19.992323      20.44595       90             90             90           
    392500   263.28982     -159.19724     -126.15132     -159.19724      0              4894.1347      20.056546      20.029134      20.280724      0              0              0              8147.076       1613.0944      6369.4396      6699.87       -1083.7902     -3063.2704     -75.586157      20.056546      20.029134      20.280724      90             90             90           
    393000   279.05921     -158.09565     -123.07048     -158.09565      0              3325.6616      20.155751      20.033693      20.088925      0              0              0              8111.7903      3483.711       3565.418       2927.8556      1510.875      -15.356063     -3300.2294      20.155751      20.033693      20.088925      90             90             90           
    393500   284.61077     -156.4728      -120.75085     -156.4728       0              3940.2449      20.214469      20.075767      20.16854       0              0              0              8184.8162      5592.2532      1198.3562      5030.1254     -2639.2017      1276.6916      831.01052      20.214469      20.075767      20.16854       90             90             90           
    394000   258.71121     -156.9955      -124.52424     -156.9955       0              7986.8511      19.996104      19.840366      20.322585      0              0              0              8062.5799      7032.5666      10325.098      6602.8882      641.08827     -676.32184      474.1798       19.996104      19.840366      20.322585      90             90             90           
    394500   264.51022     -158.53785     -125.33875     -158.53785      0              8137.9942      19.925205      19.881791      20.570573      0              0              0              8149.0066      8774.5526      8215.1666      7424.2636      1287.939      -927.4593       3286.9329      19.925205      19.881791      20.570573      90             90             90           
    395000   267.35178     -156.85628     -123.30053     -156.85628      0              6862.3491      19.8637        20.011625      20.446589      0              0              0              8127.6198      8163.4753      5955.0075      6468.5644     -1450.5729      1043.9892     -1423.1547      19.8637        20.011625      20.446589      90             90             90           
    395500   255.42647     -157.76898     -125.71        -157.76898      0              4055.5164      19.948537      20.14263       20.118274      0              0              0              8083.8443      3813.4396      3024.7408      5328.3688      1100.9698      2765.9278      350.0362       19.948537      20.14263       20.118274      90             90             90           
    396000   270.33883     -159.37236     -125.4417      -159.37236      0              6847.1332      20.109756      20.097473      20.012613      0              0              0              8088.203       7628.8931      5314.9326      7597.5738     -2424.3799      2162.9323     -1197.9261      20.109756      20.097473      20.012613      90             90             90           
    396500   267.16877     -159.89009     -126.35731     -159.89009      0              8384.5474      20.089522      20.013599      20.136984      0              0              0              8096.349       8464.3398      7728.8416      8960.4608      1446.0339      2403.26        738.48379      20.089522      20.013599      20.136984      90             90             90           
    397000   272.78861     -158.67875     -124.44062     -158.67875      0              4467.8238      20.002996      20.021733      20.421878      0              0              0              8178.853       5068.702       3988.4501      4346.3194     -934.81296      753.45611     -1613.2854      20.002996      20.021733      20.421878      90             90             90           
    397500   266.17918     -157.1922      -123.78362     -157.1922       0              5344.2025      19.879711      19.860823      20.530162      0              0              0              8105.8709      7096.7439      5572.692       3363.1714      709.18284     -1115.1939     -1831.3305      19.879711      19.860823      20.530162      90             90             90           
    398000   266.43173     -157.39577     -123.9555      -157.39577      0              4431.3838      19.97291       19.777588      20.430133      0              0              0              8070.2293      6574.9323      4775.8969      1943.3222      358.93859     -444.49131     -1238.3321      19.97291       19.777588      20.430133      90             90             90           
    398500   275.90492     -157.97        -123.34073     -157.97         0              4703.1676      20.157623      19.994655      20.210211      0              0              0              8145.6184      3606.4109      5777.3274      4725.7644     -594.73803     -1025.8379      3242.6336      20.157623      19.994655      20.210211      90             90             90           
    399000   261.07925     -160.2317      -127.46322     -160.2317       0              4236.9151      20.073897      20.12977       19.911842      0              0              0              8046.0354      2728.1839      2818.7591      7163.8023      835.43852      57.096133      1564.7135      20.073897      20.12977       19.911842      90             90             90           
    399500   259.17836     -157.57415     -125.04426     -157.57415      0              3947.6256      20.068389      20.282745      19.997598      0              0              0              8139.8624      80.010962      6442.0354      5320.8303      1618.8047      1681.069       584.61704      20.068389      20.282745      19.997598      90             90             90           
    400000   269.42482     -160.38597     -126.57003     -160.38597      0              4311.0656      19.922477      20.052053      20.302447      0              0              0              8110.5549      1285.2304      6287.6088      5360.3575      517.72429      1228.9384      384.61073      19.922477      20.052053      20.302447      90             90             90           
Loop time of 1596.87 on 1 procs for 400000 steps with 972 atoms

Performance: 10.821 ns/day, 2.218 hours/ns, 250.490 timesteps/s
92.7% CPU use with 1 MPI tasks x no OpenMP threads

MPI task timing breakdown:
Section |  min time  |  avg time  |  max time  |%varavg| %total
---------------------------------------------------------------
Pair    | 1062.8     | 1062.8     | 1062.8     |   0.0 | 66.56
Bond    | 0.026412   | 0.026412   | 0.026412   |   0.0 |  0.00
Neigh   | 236.46     | 236.46     | 236.46     |   0.0 | 14.81
Comm    | 10.341     | 10.341     | 10.341     |   0.0 |  0.65
Output  | 265.93     | 265.93     | 265.93     |   0.0 | 16.65
Modify  | 20.086     | 20.086     | 20.086     |   0.0 |  1.26
Other   |            | 1.203      |            |       |  0.08

Nlocal:            972 ave         972 max         972 min
Histogram: 1 0 0 0 0 0 0 0 0 0
Nghost:           4660 ave        4660 max        4660 min
Histogram: 1 0 0 0 0 0 0 0 0 0
Neighs:              0 ave           0 max           0 min
Histogram: 1 0 0 0 0 0 0 0 0 0
FullNghs:       249542 ave      249542 max      249542 min
Histogram: 1 0 0 0 0 0 0 0 0 0

Total # of neighbors = 249542
Ave neighs/atom = 256.73045
Ave special neighs/atom = 0
Neighbor list builds = 40000
Dangerous builds not checked

unfix		3
unfix		2

write_data	data.final.${pid}
write_data	data.final.0
System init for write_data ...
Generated 0 of 1 mixed pair_coeff terms from geometric mixing rule

write_restart   restart.lmp.${pid}
write_restart   restart.lmp.0
System init for write_restart ...
Generated 0 of 1 mixed pair_coeff terms from geometric mixing rule
Total wall time: 0:26:58
