LAMMPS data file via write_data, version 29 Sep 2021, timestep = 400000

972 atoms
2 atom types

-0.17482585646873616 20.165878856470023 xlo xhi
-0.11323175296168309 20.10428475296337 ylo yhi
0.1450312063597572 20.655740793639275 zlo zhi

Masses

1 1.008
2 15.999

Atoms # full

2 0 2 0 2.2160303160004107 1.8003571696503706 1.1510662707705073 0 0 0
31 0 1 0 0.5385516929373547 1.6825780770310403 2.204436196874933 0 0 0
32 0 2 0 0.7184951176877153 0.8343474276415437 2.5895425881175798 0 0 0
33 0 2 0 0.6472879985664931 2.3396552464172737 2.935895017175309 0 0 0
5 0 2 0 3.5605936741018165 0.9380722003389006 3.8370606798746443 0 0 0
1 0 1 0 2.9048777054284103 1.98044273769269 0.4230712132603451 0 0 0
18 0 2 0 3.8502850279028316 3.082135953762123 3.4247847897975774 0 0 0
10 0 1 0 0.7433376452746371 3.680342437029766 3.893405682536114 0 0 0
12 0 2 0 1.6901462870973716 3.8057941111868097 4.02732578166278 0 0 0
4 0 1 0 4.2566052368162275 1.2023310711348378 3.223508953798134 0 0 0
35 0 2 0 4.453050981751618 2.3285433440670618 0.7519499453137077 0 0 0
36 0 2 0 5.883343889004587 2.1906629717527197 1.3647140454418796 0 0 0
34 0 1 0 5.384990605994659 2.6234135067015782 0.6530329514710632 0 0 0
6 0 2 0 5.024249113617586 0.8059509729354116 3.6352021981696607 0 0 0
67 0 1 0 7.498737779274562 1.8112693666252733 2.2544933023199785 0 0 0
68 0 2 0 7.575739031111073 2.35686415554985 3.0539892654761265 0 0 0
272 0 2 0 7.641313201084357 0.15611313727633075 2.2680969120653587 0 1 0
46 0 1 0 7.7240375796441265 3.7611720812970155 4.165009900989774 0 0 0
69 0 2 0 8.059973562373528 2.33220198829399 1.640999826962419 0 0 0
40 0 1 0 10.979219400790276 1.29068713521457 3.114946734501051 0 0 0
54 0 2 0 10.458173159356786 3.259719316374496 3.6501218793601304 0 0 0
41 0 2 0 10.228856278525825 0.775508414917171 3.533968202168844 0 0 0
70 0 1 0 11.884698630706305 2.6870115029569543 0.6696429387808501 0 0 0
42 0 2 0 11.697202959317172 1.189584269144219 3.743167486575451 0 0 0
39 0 2 0 10.126008594250285 2.6281065070595204 0.28509120777102837 0 0 0
37 0 1 0 9.165303513170663 2.7741834772883047 0.2747790106361398 0 0 0
72 0 2 0 12.370104769164712 2.630793606002781 1.5218519559828751 0 0 0
103 0 1 0 14.240641637707574 2.010489979409806 2.2685129497729477 0 0 0
105 0 2 0 14.33168040481232 1.0631784905972248 2.5705849589515144 0 0 0
104 0 2 0 15.01802260858603 2.0824859339936412 1.689920922703475 0 0 0
84 0 2 0 14.473736298404093 3.1681195980348806 3.4757884485159085 0 0 0
71 0 2 0 12.174393860205136 3.5391096935945674 0.3930120735201671 0 0 0
108 0 2 0 19.516813204714317 1.9411019341967175 0.9672610289564944 0 0 0
76 0 1 0 17.707692481726557 1.227632423312911 3.593653290892608 0 0 0
89 0 2 0 17.603683008177835 3.0137299075937367 3.3685639131648406 0 0 0
77 0 2 0 17.84631665729662 0.6651903693473892 2.856023869946405 0 0 0
106 0 1 0 18.99163527742371 2.3085362755325867 0.24359205949107623 0 0 0
107 0 2 0 18.057190044989998 2.3485411596623327 0.4308699086724163 0 0 0
78 0 2 0 18.426601364646416 1.0418062737424498 4.223669550077943 0 0 0
75 0 2 0 16.13343990230662 3.508710598660889 0.16637607363476548 0 0 0
73 0 1 0 16.09808108413446 2.541736914803603 0.3013830949233409 0 0 0
20 0 2 0 0.5457650163467409 5.2852496718805755 2.264462916171052 0 0 0
19 0 1 0 0.46037975580665735 5.810021473806926 1.4814561464447287 0 0 0
21 0 2 0 0.5516557537459487 6.6783566774266525 1.7890092679067622 0 0 0
675 0 2 0 1.7811799091955505 5.258608436148726 0.41756131527116724 0 0 1
112 0 1 0 3.869543392175758 7.833242154209592 3.5495841180625685 0 0 0
16 0 1 0 3.5283045081801565 3.99576979696442 3.672149069725737 0 0 0
17 0 2 0 3.7972132412741857 4.572930091578822 2.890228930958372 0 0 0
114 0 2 0 3.943612129789696 7.2789819957367285 2.7877093847687684 0 0 0
14 0 2 0 4.244904858987996 5.662016985621839 0.724548887783772 0 0 0
13 0 1 0 4.596240087513091 5.723468296797283 1.6000129936739136 0 0 0
15 0 2 0 5.5594443309370885 5.49556485170117 1.622784941040849 0 0 0
56 0 2 0 7.404671537730638 5.052200183256016 2.7637909542088828 0 0 0
113 0 2 0 4.5813201815790485 7.555728593676488 4.123789957237438 0 0 0
55 0 1 0 7.241310812448714 5.6410667332811135 1.9399475907297279 0 0 0
177 0 2 0 7.5549698705869 7.487916893893825 2.214100877825294 0 0 0
57 0 2 0 7.872089195430489 5.47015572377708 1.2378395932942952 0 0 0
52 0 1 0 10.411970458808991 4.112613074270861 4.114189000989101 0 0 0
51 0 2 0 10.556527869701167 5.1301008288245065 2.56153099976125 0 0 0
49 0 1 0 10.970289126365296 5.736700324594911 1.920940585878105 0 0 0
50 0 2 0 10.401765458246524 5.684557027775675 1.1083601990776373 0 0 0
150 0 2 0 10.880721447487854 7.120808556118629 2.7859702114734555 0 0 0
149 0 2 0 9.933470651654059 7.76657429141234 3.8897661947567443 0 0 0
148 0 1 0 10.792677992742645 7.882047065375639 3.39319235542734 0 0 0
82 0 1 0 14.806687254405517 4.035878595710403 3.89499166197486 0 0 0
83 0 2 0 14.656776273696599 4.74123653175528 3.238098432564774 0 0 0
91 0 1 0 13.96411908231823 5.681078273587363 1.9081020704164762 0 0 0
92 0 2 0 14.003798136714948 6.555380252827457 2.3509580317835876 0 0 0
93 0 2 0 13.014309052230939 5.446604333415207 1.734185452217331 0 0 0
747 0 2 0 15.105135100320469 5.54475200210152 0.6199123565033262 0 0 1
204 0 2 0 16.09065027063363 7.2302919269150125 4.216823282950104 0 0 0
90 0 2 0 16.490461084136108 4.019084574030065 3.683247880625992 0 0 0
88 0 1 0 17.43191610917844 3.9549815650816393 3.4151690013342537 0 0 0
86 0 2 0 17.890492570318415 4.867131742386246 2.0196874762914807 0 0 0
85 0 1 0 18.00872101337894 5.512030710574989 1.3258847720330134 0 0 0
87 0 2 0 18.839400454805997 5.377663911901607 0.922821998181642 0 0 0
746 0 2 0 16.623036046677257 5.422589752762956 0.2156734496447863 0 0 1
185 0 2 0 17.462746361756054 7.1522309902929475 2.5184742808820384 0 0 0
184 0 1 0 17.568876735249322 7.713551452841708 3.2969920248578464 0 0 0
139 0 1 0 0.6519200766126626 8.543462882563748 1.883830250612388 0 0 0
141 0 2 0 1.4127532192539207 8.858535158458755 1.3359561308042531 0 0 0
119 0 2 0 0.8892362986587268 9.628308856013081 3.4077565441546493 0 0 0
118 0 1 0 1.0152291114259022 10.384979326054154 3.976174985526325 0 0 0
120 0 2 0 1.9611054431446666 10.474176534709814 4.130880702042605 0 0 0
110 0 2 0 3.6421732811510235 8.85867349313294 0.20313345582629552 0 0 0
124 0 1 0 3.74131397788526 10.515874583948394 4.000847614511499 0 0 0
140 0 2 0 -0.10733914381097232 9.056062513583539 1.510555152762458 0 0 0
129 0 2 0 0.5149894140207413 11.795095639267092 2.7963815023830363 0 0 0
782 0 2 0 1.2505929682410628 11.75830373674612 0.7176031540218651 0 0 1
123 0 2 0 3.662591962799755 11.864852438437017 1.2248227233756828 0 0 0
783 0 2 0 2.330569894310261 10.769171602499375 0.23154610009700494 0 0 1
781 0 1 0 2.109086573044795 11.724656993089631 0.3128485619025644 0 0 1
126 0 2 0 3.934816472716891 9.596289571510622 3.8104468663947424 0 0 0
175 0 1 0 7.657959052696876 8.41930710105241 2.114509766949772 0 0 0
176 0 2 0 6.861988456143857 8.655923319240065 1.5912496176760482 0 0 0
142 0 1 0 5.478563436241391 8.99775356767057 0.3395696456959193 0 0 0
156 0 2 0 7.829488636024429 11.240248174842918 3.3089391965679007 0 0 0
155 0 2 0 7.7424296356053945 9.709611296453648 3.3570318021519787 0 0 0
122 0 2 0 4.089877630393087 11.518530395202536 2.6822699063276088 0 0 0
143 0 2 0 5.450698111807005 9.933441497170321 0.1970229961874761 0 0 0
154 0 1 0 7.981263101133221 10.50860764740841 3.868756050244127 0 0 0
147 0 2 0 8.844952419491573 8.63676214924924 1.0062288921212503 0 0 0
162 0 2 0 10.8394852299464 9.68378132400861 3.4445097982889434 0 0 0
179 0 2 0 11.06628188864726 8.919652457827308 0.8242204587870764 0 0 0
160 0 1 0 10.79752541481262 10.640248315966806 3.4256090135813815 0 0 0
161 0 2 0 9.839102746369552 10.815990349086581 3.6016405934807314 0 0 0
158 0 2 0 11.057770439640262 11.865302940259754 2.1301037009163184 0 0 0
145 0 1 0 9.372007090047155 8.931960377835956 0.20666392659404442 0 0 0
178 0 1 0 12.01942391212916 9.061355683929431 0.693810900294556 0 0 0
146 0 2 0 9.287734503052466 9.919338485285266 0.22659638484919245 0 0 0
211 0 1 0 14.046468258013489 8.493990046032698 2.2277530116201354 0 0 0
212 0 2 0 14.194628008722027 9.398226832109808 2.5594507751409945 0 0 0
213 0 2 0 13.267115930622191 8.619871968750369 1.646393242207764 0 0 0
183 0 2 0 15.290070731855216 9.21521265307527 1.0198877791998364 0 0 0
191 0 2 0 14.49553503572981 11.725006466769383 3.2315249262812515 0 0 0
190 0 1 0 14.657634074238217 10.854908001256385 3.649579565624161 0 0 0
192 0 2 0 15.575376592305496 10.694650534764394 3.8627657129547592 0 0 0
181 0 1 0 15.931049928505999 9.414130456161162 0.3035385520370496 0 0 0
186 0 2 0 17.488722340452597 8.621752602816356 3.079879836770185 0 0 0
196 0 1 0 17.44645649517165 10.347561880694274 3.63389000687131 0 0 0
197 0 2 0 17.608503820594088 10.917118276215014 2.858972336063249 0 0 0
214 0 1 0 18.709029705650998 9.341339320404735 0.260803257492422 0 0 0
216 0 2 0 17.68609333456585 9.276151769579918 0.35562775608329267 0 0 0
249 0 2 0 0.3634300398205843 14.078277024417712 2.3620552956205447 0 0 0
127 0 1 0 0.16431287821180945 12.168893126180354 1.9558179113149508 0 0 0
247 0 1 0 0.45610346293355086 15.044532840485891 2.474278313765677 0 0 0
221 0 2 0 3.142598233040535 14.274929242350701 4.065966757673794 0 0 0
218 0 2 0 1.9616517738833332 15.823922885413483 1.168838330955222 0 0 0
222 0 2 0 3.881116901416446 13.455636130548351 2.8535348458018657 0 0 0
220 0 1 0 3.885173328608138 14.311799612093854 3.372826428282535 0 0 0
165 0 2 0 6.155028987674771 12.143192562689308 2.0232777571637506 0 0 0
121 0 1 0 4.28638741798426 12.115240741052915 1.8841778301286713 0 0 0
163 0 1 0 7.109673526403068 12.451591318947433 2.127623425452038 0 0 0
164 0 2 0 6.971329332281672 13.38162095097411 2.389291563093783 0 0 0
283 0 1 0 7.376443083263541 15.266585372425856 2.0427140377057764 0 0 0
284 0 2 0 6.528466365208529 15.6597144441002 1.668430311629201 0 0 0
285 0 2 0 7.88240909973185 15.179388152952548 1.2499637758912452 0 0 0
250 0 1 0 5.342527075702758 15.922214437405723 0.36836640450205804 0 0 0
251 0 2 0 4.381850792425136 15.834134115126195 0.5991079595294742 0 0 0
818 0 2 0 9.6887808796488 12.321573206037874 0.37331141280467833 0 0 1
819 0 2 0 8.240395963788494 12.099323976873311 0.700451068472099 0 0 1
157 0 1 0 11.307229292188646 12.68876464558466 1.5585620311138435 0 0 0
258 0 2 0 10.012965691898604 14.499638910467098 3.641438490696319 0 0 0
159 0 2 0 11.17625474260498 13.490077611694055 1.9922201009551128 0 0 0
256 0 1 0 10.873665580303218 14.859104641517892 3.34731175769024 0 0 0
257 0 2 0 10.81374544461243 15.857851384088061 3.501999516653793 0 0 0
286 0 1 0 11.653716311141189 15.869932970395826 0.3937589457593932 0 0 0
855 0 2 0 14.880513984026742 12.323130927783017 0.7354265056468455 0 0 1
200 0 2 0 12.981315173374117 12.756464670413129 1.953548761092097 0 0 0
199 0 1 0 13.95147799866918 12.869915237305591 2.090350305922623 0 0 0
201 0 2 0 14.076496047392974 13.784356744945853 2.427524560016649 0 0 0
319 0 1 0 14.148170557521 15.624927959642886 2.1848249473060544 0 0 0
291 0 2 0 15.384819941285688 15.96270253053592 0.9513359323396108 0 0 0
320 0 2 0 13.241477516002835 15.793725930875473 2.022118229347396 0 0 0
248 0 2 0 20.110921891164843 15.425822273633104 1.9514614986967609 -1 0 0
195 0 2 0 17.094546579268336 12.527353653586808 1.3218743345648063 0 0 0
128 0 2 0 19.53711062870875 12.095053942520252 1.8833406419168408 -1 0 0
193 0 1 0 17.894260175926295 12.474459774585892 1.829624809300221 0 0 0
194 0 2 0 17.812154438797247 13.203042837079892 2.4452160730019457 0 0 0
292 0 1 0 17.60238952394986 15.089858236092974 3.670439699132338 0 0 0
294 0 2 0 16.816742548259814 14.691450589941956 3.9629177049957813 0 0 0
322 0 1 0 18.9307237416729 16.05831807923029 0.6410487086064685 0 0 0
290 0 2 0 16.89957480563505 15.906370997706992 0.7628234051816999 0 0 0
217 0 1 0 2.5746129116886496 16.078697584897377 0.4452040332185827 0 0 0
227 0 2 0 1.203862419986894 16.522683146811445 3.427208865102871 0 0 0
235 0 1 0 0.6685469587373516 19.10765693832691 1.7055179641693152 0 0 0
236 0 2 0 1.0277541303542472 18.395128874182944 2.3101142925467317 0 0 0
237 0 2 0 1.32539015825206 19.130520136442094 0.988263519125331 0 0 0
228 0 2 0 2.1088542739236655 17.542780450149614 4.024239550159136 0 0 0
226 0 1 0 1.1737065254207226 17.369233552013057 3.886899530545736 0 0 0
232 0 1 0 3.690400277400037 17.112171183924723 3.550910936557099 0 0 0
233 0 2 0 3.8018751685967187 16.14356368308396 3.3584558889349734 0 0 0
230 0 2 0 4.472577467740288 20.04395274362409 1.6848078680769245 0 0 0
234 0 2 0 3.966186232348014 17.577502504525604 2.7136416845970737 0 0 0
229 0 1 0 4.811533287649827 19.182346654159375 1.3684534424707262 0 0 0
231 0 2 0 5.7712869878668345 19.29411559668074 1.246049937689956 0 0 0
271 0 1 0 7.593089354433066 19.46370673680225 1.8633408143442085 0 0 0
273 0 2 0 7.739560601173711 18.853558519048207 2.5711251533583477 0 0 0
263 0 2 0 7.813993291468209 16.743951170093624 3.125462980565156 0 0 0
266 0 2 0 11.215643868315896 20.040368767347182 1.9379678253270511 0 0 0
262 0 1 0 8.00706110619982 17.53762410866674 3.6547645178389265 0 0 0
265 0 1 0 11.290651941497078 19.214469241843915 1.4319145685204189 0 0 0
267 0 2 0 10.475618068980795 19.1246411168704 0.9188904708342902 0 0 0
268 0 1 0 10.775294559775016 17.516081204481587 3.4708279879119375 0 0 0
269 0 2 0 11.080898920573766 18.024206113502387 2.7086419596250875 0 0 0
927 0 2 0 8.607179371820102 18.75765283619775 0.5450415831388207 0 0 1
264 0 2 0 8.992910091150662 17.43694066732818 3.5994013811603587 0 0 0
287 0 2 0 11.988212546504052 16.764706379059945 0.14737283682291644 0 0 0
321 0 2 0 14.333641571646767 16.270638092280983 2.8964210594083264 0 0 0
307 0 1 0 14.076540971733595 19.461794510891792 2.1047477841961806 0 0 0
308 0 2 0 13.171874964087007 19.353280080580106 1.9217518077555338 0 0 0
309 0 2 0 14.27162945425554 18.811237922697096 2.746540333969499 0 0 0
963 0 2 0 15.207720930454755 19.211101757529306 0.8021224250488733 0 0 1
298 0 1 0 14.785880594672319 17.649441792078555 4.022580968581852 0 0 0
289 0 1 0 16.080094583264447 16.262763679987714 0.3307934427279111 0 0 0
293 0 2 0 17.48699185436323 16.064669811890212 3.5474370951430894 0 0 0
301 0 1 0 18.297061570385075 19.75183208809581 1.4017853385753982 0 0 0
302 0 2 0 17.775548616866967 19.65905844043585 0.6062160651783675 0 0 0
303 0 2 0 19.211026083500375 19.46806757595685 1.231298136775741 0 0 0
306 0 2 0 17.80951067309665 18.466636550068962 2.8240605524717686 0 0 0
304 0 1 0 17.615567881889742 17.901685299764296 3.568505646092831 0 0 0
305 0 2 0 18.333714933856875 18.052645831806295 4.181969804080482 0 0 0
323 0 2 0 19.277376899659966 16.952101541612755 0.5050134591892206 0 0 0
22 0 1 0 1.9809101037679016 0.6870210413281469 4.860306407306731 0 0 0
23 0 2 0 2.0779556492775173 1.343179216102151 5.578128883596407 0 0 0
325 0 1 0 2.6668857963223354 2.522663055378234 6.74803934694232 0 0 0
327 0 2 0 2.527694808940874 3.464270314698199 6.685357363786264 0 0 0
101 0 2 0 0.16061856392882462 0.9323392863621203 5.209498423551034 1 0 0
326 0 2 0 3.6303687916094685 2.3795887124415156 6.647288021399688 0 0 0
356 0 2 0 1.2858348250388663 2.303152989689157 8.336062389908484 0 0 0
29 0 2 0 7.235579139061054 0.36471560931230856 4.559465850486251 0 0 0
28 0 1 0 6.266105192762101 0.3103308930131304 4.72266439384945 0 0 0
358 0 1 0 5.503992668431 2.0028348777757294 6.731605537076995 0 0 0
359 0 2 0 5.676825725873906 1.3697960043594004 5.950204930825721 0 0 0
360 0 2 0 6.082532637945349 1.7679098610939257 7.4620221298327145 0 0 0
392 0 2 0 7.895173107047738 1.6865286690160242 8.07660638435503 0 0 0
8 0 2 0 5.514444994353816 3.683727827733014 6.146854577380364 0 0 0
58 0 1 0 9.117846068097483 0.0992798887732762 4.802463069179615 0 0 0
59 0 2 0 9.167539472140138 0.7742920773963833 5.527289949263999 0 0 0
361 0 1 0 9.290383438072991 2.1723746975306284 6.906710742974643 0 0 0
363 0 2 0 9.340434293277806 3.04538669910222 6.498036282587538 0 0 0
362 0 2 0 10.246321971589605 2.0200628707754507 7.1799047054184015 0 0 0
394 0 1 0 12.09957103062333 2.618598013699262 7.219879705775455 0 0 0
396 0 2 0 12.347604874564649 3.48303261882517 6.846431101611198 0 0 0
66 0 2 0 12.509385777597643 1.3455990859669924 6.015558736751878 0 0 0
65 0 2 0 13.621068931780325 0.5687920489227801 5.166010968670624 0 0 0
64 0 1 0 12.690269598972227 0.769071719649369 5.229358271320859 0 0 0
395 0 2 0 12.840202432683704 2.491780152332271 7.858681854252689 0 0 0
94 0 1 0 15.504565878206185 0.5852569713989966 5.150646480602527 0 0 0
95 0 2 0 15.728970334865757 1.3658278839788311 5.671214778217464 0 0 0
96 0 2 0 16.1753020899031 0.6046461413572625 4.4206361247241635 0 0 0
397 0 1 0 16.323561754142013 2.6564489309849786 6.886890797186121 0 0 0
100 0 1 0 19.589253193526982 0.7371487598028029 5.555316725565278 0 0 0
398 0 2 0 17.26882441972922 2.6652804474368215 7.183189636803013 0 0 0
430 0 1 0 18.94927284812924 2.6993329800872856 7.523138904582696 0 0 0
431 0 2 0 19.096197623471465 1.9014968004148751 6.97771462145985 0 0 0
432 0 2 0 18.987650737736146 3.4077746523883685 6.787266450908052 0 0 0
399 0 2 0 16.110112518090208 3.5696160708858633 6.658627190044367 0 0 0
131 0 2 0 2.235587775406455 7.440360493925424 4.550740214602536 0 0 0
11 0 2 0 0.24806227473960357 4.041351295718533 4.697002188239018 0 0 0
25 0 1 0 1.9777044052036707 5.147298843580251 7.0849323968344455 0 0 0
26 0 2 0 1.7011211270022761 5.693264066655203 6.30542977217083 0 0 0
27 0 2 0 2.7938583960074435 5.603170274008769 7.355887121577515 0 0 0
130 0 1 0 1.6880184304905572 7.141669949669398 5.315748929244632 0 0 0
132 0 2 0 0.7593920146508455 7.404733647427517 5.149270334002219 0 0 0
48 0 2 0 7.165674473844572 4.214928927719971 4.802709786374261 0 0 0
9 0 2 0 4.879896909161598 4.328191240317994 4.858301141087678 0 0 0
7 0 1 0 5.563353558676628 4.479416209360968 5.50439119679139 0 0 0
136 0 1 0 5.815248734543091 7.267431264748276 5.661413474807096 0 0 0
137 0 2 0 5.6455786714674625 6.340112211183749 5.6774154861008075 0 0 0
138 0 2 0 6.739008507223756 7.325941802201616 5.415039349995886 0 0 0
339 0 2 0 5.479926942591479 5.909761091660291 8.110075917124696 0 0 0
337 0 1 0 4.505304770847474 5.929883033663114 8.30269364336144 0 0 0
47 0 2 0 8.634807462841836 3.931041752493959 4.513984165427207 0 0 0
53 0 2 0 11.281955389765727 4.16341585500512 4.523039036584791 0 0 0
63 0 2 0 8.357170533943727 5.274601771037036 7.411782579841998 0 0 0
61 0 1 0 9.125868468150836 5.259763002300125 6.861732974983247 0 0 0
167 0 2 0 8.733604624634415 6.722685784059296 5.5468736942948995 0 0 0
166 0 1 0 8.377012357714081 7.469716158549987 5.035251850451572 0 0 0
62 0 2 0 9.914743959691629 5.339365346515833 7.490264639368219 0 0 0
173 0 2 0 12.40464600473458 7.7996812891469425 4.437777515103889 0 0 0
44 0 2 0 13.489938079925425 4.7361278736385515 5.004460867867842 0 0 0
43 0 1 0 12.662272313214633 4.767867152077389 5.483226577278891 0 0 0
172 0 1 0 12.688621670939678 7.522762278023409 5.327210463710481 0 0 0
45 0 2 0 12.503188355937374 5.704329166371716 5.579823797741821 0 0 0
174 0 2 0 13.644146903927927 7.700993466193294 5.229674015998457 0 0 0
416 0 2 0 14.643972107557405 5.828902355131324 7.727083975598979 0 0 0
97 0 1 0 16.078813068707603 5.29191333408087 6.802611934530796 0 0 0
202 0 1 0 15.569405052055211 7.226433172251676 5.1058383932187015 0 0 0
203 0 2 0 15.944467804892831 7.9014481583511635 5.660700789560377 0 0 0
99 0 2 0 16.105665570489794 5.907567872500634 6.060487716101122 0 0 0
81 0 2 0 18.423103903692652 4.495989230037876 5.014217425636193 0 0 0
79 0 1 0 19.14739494200782 4.550418659974778 5.693284546545956 0 0 0
98 0 2 0 16.85153980849133 5.507808602076982 7.3794198591190865 0 0 0
80 0 2 0 19.382035777219677 5.496623279085695 5.72589918983891 0 0 0
208 0 1 0 19.36840346039839 7.21899053115871 5.417711041220696 0 0 0
209 0 2 0 18.870102917763482 7.462391090124621 4.678613580739535 0 0 0
210 0 2 0 19.12565266413577 7.850513289760547 6.101536922658514 0 0 0
435 0 2 0 2.2225226953727084 8.834720941147284 6.325554009210515 0 0 0
433 0 1 0 2.390022514871847 9.147562926709572 7.1918872946512025 0 0 0
135 0 2 0 2.3503301855503036 11.055056906180612 6.956414174906928 0 0 0
434 0 2 0 3.3579629344199806 9.311782158170846 7.263618342614572 0 0 0
189 0 2 0 -0.15415178650705905 11.279068865197397 5.1014665635156415 1 0 0
133 0 1 0 2.5811063890690003 11.981142623092918 7.157772420598291 0 0 0
134 0 2 0 3.4245850088552943 11.92980897883912 7.6502998070617405 0 0 0
125 0 2 0 4.4565333902217334 10.767001371411782 4.585270263054581 0 0 0
468 0 2 0 5.366077739158081 8.429330383016667 7.17312881813382 0 0 0
466 0 1 0 5.063296990228935 9.245234913023847 7.532288505545126 0 0 0
467 0 2 0 5.310170172330379 9.811992046463212 6.811014812961922 0 0 0
115 0 1 0 5.912303511214544 10.93482070860123 5.5292597254350095 0 0 0
116 0 2 0 6.658472844302785 10.808734542521517 4.91429880461321 0 0 0
117 0 2 0 5.985192479224725 11.872513549776468 5.842027637930257 0 0 0
168 0 2 0 8.504422628145031 8.21859783327023 5.655313179254745 0 0 0
469 0 1 0 8.887743244708345 9.364835214056138 6.993362130624073 0 0 0
471 0 2 0 9.824305290870944 9.136751738327641 7.068403499649659 0 0 0
470 0 2 0 8.801688079491846 10.325467734753222 6.863904490966612 0 0 0
502 0 1 0 11.79251771571871 9.251360723610404 7.3320722971004715 0 0 0
503 0 2 0 12.01831793197883 8.593924816062378 6.642090001212765 0 0 0
500 0 2 0 8.074310692681214 8.658550975560447 8.345927712539572 0 0 0
152 0 2 0 11.88170096723507 11.018069749627125 4.859028075325527 0 0 0
504 0 2 0 11.74537028134869 10.048679304769554 6.837728594554539 0 0 0
151 0 1 0 12.610709020654118 11.174920359948386 5.503050292282628 0 0 0
153 0 2 0 13.437167870323306 10.908001561961184 5.042263215123297 0 0 0
507 0 2 0 15.622369467769232 8.907020263844455 7.689238750535608 0 0 0
207 0 2 0 16.28182807279087 10.876357495420404 6.58230022927386 0 0 0
505 0 1 0 16.24211179119683 9.15351417113094 6.954053169548457 0 0 0
198 0 2 0 17.950103623698347 10.781037738675787 4.359828142022725 0 0 0
506 0 2 0 17.127248212466867 9.1036408751271 7.3282395302162735 0 0 0
538 0 1 0 19.06454727035058 9.298885437823738 7.294724403933465 0 0 0
540 0 2 0 19.195840925891908 10.137446036493442 6.8342327118065915 0 0 0
187 0 1 0 19.3517057937593 11.349351025481482 5.534128746017204 0 0 0
539 0 2 0 19.73162005608255 9.174519297032116 8.005915834508862 0 0 0
205 0 1 0 16.585742893863568 11.805661502675301 6.627707721512675 0 0 0
238 0 1 0 1.849325358878374 14.07963895930189 5.366410321880914 0 0 0
239 0 2 0 0.9071157740083384 14.296337490720905 5.319632867103259 0 0 0
240 0 2 0 1.9410798391754072 13.161423294848591 5.733236206074396 0 0 0
542 0 2 0 2.4774897536334874 15.30635221408587 6.5595538277819845 0 0 0
543 0 2 0 3.40600265046123 16.054517510964388 7.579530365890348 0 0 0
541 0 1 0 2.486099482676492 15.94072344729013 7.344708436208968 0 0 0
246 0 2 0 5.1221568292731074 14.018382873918304 4.408249182581449 0 0 0
244 0 1 0 5.789560647505548 13.831448578335058 5.074994273063015 0 0 0
245 0 2 0 5.503229694232852 14.393244711540785 5.823149308033323 0 0 0
276 0 2 0 7.64460221383551 13.975400439013946 4.805203428809771 0 0 0
574 0 1 0 5.390595905035023 15.974288784905761 7.431128557898231 0 0 0
575 0 2 0 6.0765146485628625 15.700382999187042 8.049185546731746 0 0 0
169 0 1 0 9.42639042402566 12.109214541447924 6.635551790607114 0 0 0
489 0 2 0 8.006289051624565 12.605676190210279 8.086886075308616 0 0 0
171 0 2 0 10.233271712234911 12.532529824003776 6.998028501069035 0 0 0
274 0 1 0 8.58571024273839 14.118264850956303 4.851100895019466 0 0 0
170 0 2 0 9.16370365963159 12.69409339343031 5.896123567738319 0 0 0
275 0 2 0 8.735656789692566 14.72881186325362 5.605996439788399 0 0 0
611 0 2 0 11.023928917281575 15.609239819571071 7.159912043401407 0 0 0
610 0 1 0 12.000192641522508 15.664969172666892 7.057678338384117 0 0 0
578 0 2 0 8.723928048614301 15.688781065616778 7.772033769012917 0 0 0
577 0 1 0 9.427673797133627 15.80270345922298 7.1208388219974985 0 0 0
481 0 1 0 11.579732777021379 12.799346976136494 8.319231344470424 0 0 0
281 0 2 0 12.060247617980831 14.109557585835525 4.487425928367674 0 0 0
612 0 2 0 12.211765441571949 15.063297366100919 6.308305265708385 0 0 0
206 0 2 0 15.807282665170709 12.192145195692438 7.146207457927612 0 0 0
282 0 2 0 12.450941294519676 12.949036597190064 5.427401206858126 0 0 0
280 0 1 0 12.723863241479386 13.841946204033366 5.168131268826212 0 0 0
311 0 2 0 14.556251987204098 13.963569197966182 4.809822442832793 0 0 0
310 0 1 0 15.503136968200637 13.873278623656798 4.813990873012504 0 0 0
312 0 2 0 15.720499674585911 12.986554520036172 5.117256798257586 0 0 0
645 0 2 0 14.809905393075242 16.031103012888536 7.864734613451538 0 0 0
524 0 2 0 13.455521638631287 13.213623212716096 7.86812546352341 0 0 0
644 0 2 0 13.395557012970812 15.920138243690841 8.310581808700736 0 0 0
523 0 1 0 14.352716690689912 13.15332573988795 8.240553738866703 0 0 0
614 0 2 0 16.169526383939097 15.16988527963894 6.179461048258324 0 0 0
318 0 2 0 19.06941839885456 14.519727087856465 4.843363554940219 0 0 0
188 0 2 0 19.246275073967553 12.314528634434676 5.795140387419262 0 0 0
518 0 2 0 17.90847771102647 12.521391232488417 7.869116948783308 0 0 0
316 0 1 0 19.5947919404155 14.255304870883347 5.602156168218908 0 0 0
317 0 2 0 19.441114497656784 14.9827547969633 6.306985012626626 0 0 0
613 0 1 0 16.327729153543725 15.897563096093341 6.781827917688368 0 0 0
24 0 2 0 2.0359263617357573 20.024217314514708 5.23422590777357 0 -1 0
241 0 1 0 2.1321510422049617 18.634163373964633 6.767191113241005 0 0 0
242 0 2 0 2.1182327466448108 17.66155574068725 6.9436916868387994 0 0 0
243 0 2 0 2.879022906178732 18.885562702464497 7.3464238170653395 0 0 0
560 0 2 0 0.952069022707472 19.22916414050342 7.877900220869395 0 0 0
297 0 2 0 0.034576420317633305 17.73978531207868 5.079717270937307 1 0 0
30 0 2 0 6.179539219414771 19.559323062699256 4.988090695628509 0 -1 0
224 0 2 0 5.104208956011191 17.582282310248743 4.827179271011781 0 0 0
223 0 1 0 5.892829106414228 17.742851760707268 5.4167693002385935 0 0 0
225 0 2 0 6.658837530083562 17.699701079236007 4.7718287660524075 0 0 0
576 0 2 0 5.620398606273361 16.82144121714927 6.969426053407163 0 0 0
60 0 2 0 9.020203584700552 19.492694331492416 5.316440483453949 0 -1 0
270 0 2 0 11.234354866845052 17.84437986522542 4.275873997230087 0 0 0
278 0 2 0 8.188084120775732 18.645311282449377 7.146846630418293 0 0 0
277 0 1 0 8.976438487099127 18.448504488598417 6.653614251471335 0 0 0
579 0 2 0 9.195015497023384 16.599211151198965 6.643173687963668 0 0 0
279 0 2 0 9.68453167202262 18.526120868863103 7.278256938312761 0 0 0
300 0 2 0 15.697579408862078 17.831727455442802 4.307871063273661 0 0 0
261 0 2 0 12.059390974528526 17.66864504485188 6.148579356941339 0 0 0
259 0 1 0 12.30095903805179 18.213008240906348 5.383385498668842 0 0 0
260 0 2 0 12.061359468746119 19.154707731925015 5.575637212998908 0 0 0
299 0 2 0 14.205062147038145 17.891818139846585 4.773950148205219 0 0 0
315 0 2 0 15.112298782270436 18.724842900014814 7.441106231655215 0 0 0
313 0 1 0 15.883979100962897 18.51396151062353 6.856208425000243 0 0 0
314 0 2 0 15.933857015885518 19.232719081621767 6.2549819506618105 0 0 0
631 0 1 0 13.73298787173599 19.622896835085164 8.302683348354153 0 0 0
615 0 2 0 16.230354227529418 16.803361484968143 6.435813245467407 0 0 0
647 0 2 0 18.08485827397987 16.164172386738166 7.484283111868547 0 0 0
646 0 1 0 19.029248276174428 16.278895477159985 7.362481977180561 0 0 0
102 0 2 0 19.448101089627905 20.001648699342446 5.543222251886992 0 -1 0
295 0 1 0 19.615773063318553 18.195087806382404 5.529076745241292 0 0 0
296 0 2 0 19.36471398490218 17.578173329801572 6.309716766306103 0 0 0
627 0 2 0 17.54974093857516 19.11628449838266 7.741483296728957 0 0 0
648 0 2 0 19.538296835399 16.213745257516273 8.210184152982643 0 0 0
626 0 2 0 19.105086343625395 19.101305945592927 8.305710469075557 0 0 0
355 0 1 0 0.6922219774462289 2.0664411488521917 9.062462313545545 0 0 0
335 0 2 0 1.0544123334956992 3.3056765403775774 10.264967574606164 0 0 0
347 0 2 0 2.8412793209934373 0.6991492960950203 11.21565873547362 0 0 0
348 0 2 0 1.4004784643748784 0.5075296403079098 11.752013882583551 0 0 0
346 0 1 0 2.311016595821755 0.5319112645737047 11.999146764950767 0 0 0
561 0 2 0 0.7242992047801713 0.21502723432183074 8.800705943903306 0 1 0
328 0 1 0 3.8806510653664263 1.4226976075343083 10.000591735852556 0 0 0
329 0 2 0 3.951196285319525 2.395911674807058 9.78920232123452 0 0 0
330 0 2 0 4.674179634804531 1.2581683287263883 10.526281130867886 0 0 0
391 0 1 0 7.311895516320082 1.2818884483844022 8.7806109245907 0 0 0
393 0 2 0 7.20825792539865 0.29813521886287725 8.54739109136421 0 0 0
353 0 2 0 6.805666261621278 1.3129596407692965 11.725251831577145 0 0 0
352 0 1 0 5.911102553457941 1.0393567013091534 12.054087485238643 0 0 0
372 0 2 0 7.702781344432121 2.8083720539066404 10.100663192372268 0 0 0
370 0 1 0 7.868071684196327 3.646327536187705 10.543938841850014 0 0 0
554 0 2 0 3.900994236168195 0.05339398317071206 8.78964802290971 0 1 0
366 0 2 0 9.86559214573589 1.0094523994304454 10.247856541070925 0 0 0
364 0 1 0 10.679418414052732 1.039291874073918 9.835958458001585 0 0 0
378 0 2 0 10.981979449130238 2.771285155717135 10.166722159002514 0 0 0
365 0 2 0 11.292598479431703 0.7283524144374725 10.523876979608993 0 0 0
382 0 1 0 8.676967636025502 1.0503777244984565 11.8819500164025 0 0 0
376 0 1 0 10.928014299783044 3.7436505213640032 10.219221285949661 0 0 0
371 0 2 0 8.852369454322774 3.6809706833071054 10.551487254957816 0 0 0
383 0 2 0 8.751612452800579 0.19904347942311845 12.236835553279036 0 0 0
429 0 2 0 15.215278862437003 2.2677110599336743 8.549512170838833 0 0 0
427 0 1 0 14.433667066295888 1.993280841441456 9.104665085113952 0 0 0
428 0 2 0 14.426669090804138 2.499924974479335 9.961628827582867 0 0 0