LAMMPS (29 Sep 2021 - Update 2)
  using 1 OpenMP thread(s) per MPI task
echo both

include		in.partitions
variable        pid world 0
include		in.temp
variable        temperature equal 255
variable        tempDamp equal 0.100 # this is 0.1 ps
include		in.pressure
variable        pressure equal 2026.5
variable        pressureDamp equal 1.0 #this is 1ps
include		in.seed
variable        seed world 745823

units           metal
atom_style	full
include		in.box
read_data       iceIII.data
Reading data file ...
  orthogonal box = (0.0000000 0.0000000 0.0000000) to (19.991053 19.991053 20.800772)
  1 by 1 by 1 MPI processor grid
  reading atoms ...
  972 atoms
Finding 1-2 1-3 1-4 neighbors ...
  special bond factors lj:    0        0        0       
  special bond factors coul:  0        0        0       
     0 = max # of 1-2 neighbors
     0 = max # of 1-3 neighbors
     0 = max # of 1-4 neighbors
     1 = max # of special neighbors
  special bonds CPU = 0.000 seconds
  read_data CPU = 0.040 seconds
include 	in.setup
variable	out_freq equal 500
variable	out_freq2 equal 500

timestep        0.0005

neigh_modify    delay 7 every 1

include         in.deepmd
# This is deepMD model

# create groups ###
#group ox type 2
#group hy type 1

mass 2 15.999
mass 1 1.008

pair_style      deepmd ../graph.pb
pair_coeff      * *

bond_style      none
angle_style     none
dihedral_style  none
improper_style  none
neigh_modify exclude none


neighbor        2.0 bin
neigh_modify    every 10 delay 0 check no

thermo          ${out_freq}
thermo          500
thermo_style 	custom step temp pe etotal epair emol press lx ly lz xy xz yz vol pxx pyy pzz pxy pxz pyz cella cellb cellc cellalpha cellbeta cellgamma

restart 	${out_freq} restart.lmp.${pid} restart2.lmp.${pid}
restart 	500 restart.lmp.${pid} restart2.lmp.${pid}
restart 	500 restart.lmp.0 restart2.lmp.${pid}
restart 	500 restart.lmp.0 restart2.lmp.0


include         in.dump
dump            myDump all atom ${out_freq2} dump.water.${pid}
dump            myDump all atom 500 dump.water.${pid}
dump            myDump all atom 500 dump.water.0
dump            myDump2 all dcd ${out_freq2} dump.dcd
dump            myDump2 all dcd 500 dump.dcd
dump_modify     myDump append yes
dump_modify     myDump2 append yes


timer           timeout 04:55:00 every 1000
New timer settings: style=normal  mode=nosync  timeout=04:55:00

fix             2 all nph aniso ${pressure} ${pressure} ${pressureDamp}
fix             2 all nph aniso 2026.5 ${pressure} ${pressureDamp}
fix             2 all nph aniso 2026.5 2026.5 ${pressureDamp}
fix             2 all nph aniso 2026.5 2026.5 1
fix             3 all temp/csvr ${temperature} ${temperature} ${tempDamp} ${seed}
fix             3 all temp/csvr 255 ${temperature} ${tempDamp} ${seed}
fix             3 all temp/csvr 255 255 ${tempDamp} ${seed}
fix             3 all temp/csvr 255 255 0.1 ${seed}
fix             3 all temp/csvr 255 255 0.1 745823
velocity 	all create ${temperature} ${seed} dist gaussian
velocity 	all create 255 ${seed} dist gaussian
velocity 	all create 255 745823 dist gaussian

run             400000

CITE-CITE-CITE-CITE-CITE-CITE-CITE-CITE-CITE-CITE-CITE-CITE-CITE

Your simulation uses code contributions which should be cited:

- USER-DEEPMD package:

@article{Wang_ComputPhysCommun_2018_v228_p178,
  author = {Wang, Han and Zhang, Linfeng and Han, Jiequn and E, Weinan},
  doi = {10.1016/j.cpc.2018.03.016},
  url = {https://doi.org/10.1016/j.cpc.2018.03.016},
  year = 2018,
  month = {jul},
  publisher = {Elsevier {BV}},
  volume = 228,
  journal = {Comput. Phys. Commun.},
  title = {{DeePMD-kit: A deep learning package for many-body potential energy representation and molecular dynamics}},
  pages = {178--184}
}

CITE-CITE-CITE-CITE-CITE-CITE-CITE-CITE-CITE-CITE-CITE-CITE-CITE

Neighbor list info ...
  update every 10 steps, delay 0 steps, check no
  max neighbors/atom: 2000, page size: 100000
  master list distance cutoff = 8
  ghost atom cutoff = 8
  binsize = 4, bins = 5 5 6
  1 neighbor lists, perpetual/occasional/extra = 1 0 0
  (1) pair deepmd, perpetual
      attributes: full, newton on
      pair build: full/bin
      stencil: full/bin/3d
      bin: standard
Per MPI rank memory allocation (min/avg/max) = 7.648 | 7.648 | 7.648 Mbytes
Step Temp PotEng TotEng E_pair E_mol Press Lx Ly Lz Xy Xz Yz Volume Pxx Pyy Pzz Pxy Pxz Pyz Cella Cellb Cellc CellAlpha CellBeta CellGamma 
       0          255   -175.65013   -143.64467   -175.65013            0    37630.855    19.991053    19.991053    20.800772            0            0            0    8312.8663    41406.567    41870.306     29615.69   -62.790736   -1049.5753   -448.09673    19.991053    19.991053    20.800772           90           90           90 
     500     249.7389   -162.49297   -131.14784   -162.49297            0   -2340.5137    20.181969     20.08846    20.664499            0            0            0    8377.8973   -2242.3475   -1377.5197    -3401.674   -535.76511   -805.79942   -762.36382    20.181969     20.08846    20.664499           90           90           90 
    1000     259.4796   -160.95699   -128.38929   -160.95699            0    597.38648    20.299131    20.169864    20.453595            0            0            0      8374.33     332.8248    1144.5481    314.78658   -1302.8491     183.7925    248.80996    20.299131    20.169864    20.453595           90           90           90 
    1500    248.58541   -161.09586   -129.89551   -161.09586            0    8836.0432    20.323228    20.216036    20.416886            0            0            0     8388.382    5489.3648    12279.902    8738.8629     1680.646   -923.27001   -410.19612    20.323228    20.216036    20.416886           90           90           90 
    2000    249.31922   -159.09387   -127.80141   -159.09387            0   -2625.1587    20.228695    20.169326    20.417535            0            0            0    8330.3366   -1042.5103    -1360.028   -5472.9377     626.1904   -332.15584    464.00816    20.228695    20.169326    20.417535           90           90           90 
    2500    257.09226   -159.15321   -126.88515   -159.15321            0    4862.4144    20.127057    20.262094     20.56932            0            0            0    8388.5047    4791.0589    4109.5049    5686.6793    583.28631    1736.7135    949.32113    20.127057    20.262094     20.56932           90           90           90 
    3000     261.3993   -159.84577   -127.03713   -159.84577            0     822.5002    20.146911     20.28456    20.812933            0            0            0    8505.6466    2912.6071   -736.54678    291.44032   -829.20087   -1744.8768   -8.5718003    20.146911     20.28456    20.812933           90           90           90 
    3500     260.7281   -160.53975   -127.81535   -160.53975            0    2489.1948    20.191369    19.995685    20.710864            0            0            0      8361.81    5089.9365   -553.85257    2931.5005    1020.3824    2085.2121     834.3506    20.191369    19.995685    20.710864           90           90           90 
    4000    256.51625   -160.63143   -128.43566   -160.63143            0    4727.1989    20.351006    20.018242    20.649606            0            0            0    8412.4712    2288.8261    7397.9021    4494.8686   -1528.0706   -423.79936   -46.721248    20.351006    20.018242    20.649606           90           90           90 
    4500    254.81506   -160.48676   -128.50452   -160.48676            0    3684.2034    20.262833    20.201163    20.552945            0            0            0    8412.9943    2976.1843    2816.4758    5259.9501    2256.0688   -22.351279    4081.4723    20.262833    20.201163    20.552945           90           90           90 
    5000    249.83259   -159.51393   -128.15704   -159.51393            0    3471.8082    20.170089    20.282027    20.527384            0            0            0    8397.5533    4252.0068    3890.2136    2273.2041   -1613.2735   -565.37985    -693.4407    20.170089    20.282027    20.527384           90           90           90 
    5500    250.52557   -161.08473   -129.64086   -161.08473            0    5529.4705    20.056439      20.2189    20.457063            0            0            0    8295.7306    7520.2237    2737.6962    6330.4917    299.64487     167.6218   -1148.8288    20.056439      20.2189    20.457063           90           90           90 
    6000    264.52652   -161.21636   -128.01521   -161.21636            0    1078.8906    20.188305    20.377445    20.618193            0            0            0    8482.0373    4673.2804   -495.61916   -940.98939   -1175.6759   -658.30863     1643.711    20.188305    20.377445    20.618193           90           90           90 
    6500     255.8699   -160.80306   -128.68842   -160.80306            0    5673.9226    20.174308    20.160379     20.50007            0            0            0    8337.8232    7701.6981    3165.1844    6154.8853    311.59035   -453.64486    -1897.733    20.174308    20.160379     20.50007           90           90           90 
    7000    255.87043   -159.06619   -126.95148   -159.06619            0   -248.88462    20.327286    20.038225    20.527259            0            0            0    8361.2194   -957.69843    555.79637   -344.75179    1982.8523     682.8034   -1220.0054    20.327286    20.038225    20.527259           90           90           90 
    7500    263.20865   -159.69061   -126.65487   -159.69061            0    627.33612     20.36449    20.155007    20.575909            0            0            0    8445.3084    2380.4742   -386.99481   -111.47102   -744.43142   -695.53174     415.9022     20.36449    20.155007    20.575909           90           90           90 
    8000    248.12705   -159.37704   -128.23422   -159.37704            0    4734.6272    20.146792    20.281751    20.577873            0            0            0    8408.3704    5532.0806    3618.9426    5052.8583    1254.9318    356.98006    2855.2931    20.146792    20.281751    20.577873           90           90           90 
    8500    255.17268   -161.16867   -129.14154   -161.16867            0    636.12864    19.978031    20.368615    20.646657            0            0            0    8401.6377   -583.43334    1219.3039    1272.5153    73.389106    685.07937    2768.6094    19.978031    20.368615    20.646657           90           90           90 
    9000    264.37696   -159.52985   -126.34747   -159.52985            0    7612.9084    20.054589    20.228367    20.662831            0            0            0    8382.3232    8086.0482    6741.1768    8011.5001   -468.34084   -1319.6809    788.30614    20.054589    20.228367    20.662831           90           90           90 
    9500    258.05054   -159.04572   -126.65738   -159.04572            0    1745.2276    20.385035    20.090581    20.728808            0            0            0    8489.4256    927.53773    2008.5778    2299.5672    1197.1246   -2827.9317   -2.2437576    20.385035    20.090581    20.728808           90           90           90 
   10000    260.95897    -158.8188   -126.06543    -158.8188            0    364.48926    20.352505    19.993347    20.600714            0            0            0    8382.7336   -1379.8202    2502.5906   -29.302667    -1941.511    8.0146339    261.99814    20.352505    19.993347    20.600714           90           90           90 
   10500    255.50767   -156.35108    -124.2819   -156.35108            0    714.02092     20.22758    20.208499    20.562315            0            0            0    8405.2376   -4086.6086    2369.2908    3859.3805    2428.5598    649.67139    566.29358     20.22758    20.208499    20.562315           90           90           90 
   11000    254.79291    -158.5066   -126.52713    -158.5066            0    4352.9663      20.1438    20.283192    20.612868            0            0            0     8422.017    2572.3028    8879.6049    1606.9913    -1067.126    -472.4068    1059.7799      20.1438    20.283192    20.612868           90           90           90 
   11500    253.11723   -159.69397   -127.92482   -159.69397            0   -1347.6613    20.229535    20.157805    20.645905            0            0            0    8419.0494    -2602.539    -2688.445    1248.0002    1493.6429    502.98932    -437.9897    20.229535    20.157805    20.645905           90           90           90 
   12000    250.69733   -158.07313    -126.6077   -158.07313            0    3109.6467    20.276624    20.045702    20.619169            0            0            0    8380.8501    601.08086    6756.8623    1970.9968   -15.196515   -2173.8247   -131.57619    20.276624    20.045702    20.619169           90           90           90 
   12500    263.10422   -159.45527   -126.43264   -159.45527            0   -286.26113    20.252516    20.248708     20.73074            0            0            0    8501.4128    293.64813   -362.33605   -790.09548   -1319.1159   -908.99569    -785.9138    20.252516    20.248708     20.73074           90           90           90 
   13000    264.54185   -158.62691   -125.42384   -158.62691            0    4228.9731    20.116355    20.314958    20.759543            0            0            0     8483.655    4325.1044    2422.3311    5939.4839    668.66333   -1426.3983   -2114.6767    20.116355    20.314958    20.759543           90           90           90 
   13500    256.32693   -160.04712   -127.87512   -160.04712            0    2598.3314    20.090066    20.063754    20.669903            0            0            0    8331.6687    2314.6185    2440.8103    3039.5656   -733.27017   -1079.0493     1041.637    20.090066    20.063754    20.669903           90           90           90 
   14000     239.5441   -158.79064   -128.72508   -158.79064            0    2907.2859    20.456283    19.962466    20.691844            0            0            0    8449.6771     5367.799    1516.3149    1837.7438    867.95557   -2486.8491   -453.54805    20.456283    19.962466    20.691844           90           90           90 
   14500     244.0468   -160.40749   -129.77679   -160.40749            0    4856.3942    20.457195    20.101856    20.566012            0            0            0    8457.3113    5284.6498    4668.5922    4615.9406   -752.31134    159.36691   -747.09003    20.457195    20.101856    20.566012           90           90           90 
   15000    267.07662   -160.44549   -126.92427   -160.44549            0    3055.6954    20.085602    20.328087    20.486411            0            0            0    8364.6397    5087.1023    2826.5354    1253.4485    785.98112    1344.7149    1618.0474    20.085602    20.328087    20.486411           90           90           90 
   15500    257.72172   -159.58816   -127.24109   -159.58816            0     493.1219    20.015424    20.443764    20.533798            0            0            0    8402.2374    1320.5744   -1699.9969    1858.7882    3156.8452   -786.52546     1155.877    20.015424    20.443764    20.533798           90           90           90 
   16000    250.91605     -158.562   -127.06913     -158.562            0    3575.3958      20.2534    20.211305    20.599283            0            0            0    8432.2682    4310.9491    1634.8228    4780.4156   -375.79295    484.93341     2686.544      20.2534    20.211305    20.599283           90           90           90 
   16500    256.07396   -159.03885    -126.8986   -159.03885            0    6235.1468    20.370714    19.996474    20.643283            0            0            0    8408.8856    10296.199    5200.0149    3209.2263    1380.9167   -1242.8059   -588.29186    20.370714    19.996474    20.643283           90           90           90 
   17000    262.67094   -159.94199   -126.97374   -159.94199            0    2309.7596    20.219482    20.142811    20.681549            0            0            0    8423.1231    3948.5024    2940.6282    40.148293   -864.64311   -792.42486    519.73392    20.219482    20.142811    20.681549           90           90           90 
   17500     257.4363   -159.74682   -127.43558   -159.74682            0    2520.4596    20.089619    20.378807    20.581866            0            0            0    8426.2667    1204.7422    2904.2928    3452.3437    2031.8564    3385.0613    372.49587    20.089619    20.378807    20.581866           90           90           90 
   18000    242.53615   -159.66759   -129.22649   -159.66759            0   -356.98488    20.196754    20.308837    20.552348            0            0            0    8430.0095   -118.34045   -1699.1348    746.52066   -1417.8581   -241.96368   -2155.0655    20.196754    20.308837    20.552348           90           90           90 
   18500    254.76363   -160.30723   -128.33144   -160.30723            0    2158.0142    20.341204    20.096489    20.592182            0            0            0    8417.8119    1624.0911    2922.8463    1927.1053    2413.0029    290.75475    1441.6668    20.341204    20.096489    20.592182           90           90           90 
   19000    252.62431    -159.9273   -128.22002    -159.9273            0    568.83856    20.288953    20.009852    20.620471            0            0            0    8371.4771    2199.6735   -287.79931   -205.35855    71.273483    2121.9704   -424.72888    20.288953    20.009852    20.620471           90           90           90 
   19500    258.26029   -160.27061   -127.85594   -160.27061            0      1763.31    20.066642    20.177062    20.586948            0            0            0    8335.3645    4325.8209   -2063.6958     3027.805   -713.31762    -1126.447    603.09967    20.066642    20.177062    20.586948           90           90           90 
   20000    246.49045   -160.13384   -129.19643   -160.13384            0    2294.0761    20.117559    20.442535    20.706463            0            0            0    8515.6135   -528.96376     3494.741    3916.4511    1196.9365   -2014.1351   -928.54632    20.117559    20.442535    20.706463           90           90           90 
   20500     250.0902   -160.08645   -128.69723   -160.08645            0    957.65905    20.145851    20.257684    20.694283            0            0            0    8445.5086    2310.0527   -1353.0204    1915.9448    262.74876    11.426753   -955.18033    20.145851    20.257684    20.694283           90           90           90 
   21000    247.13104   -159.82635   -128.80854   -159.82635            0    2916.7486    20.190545    19.965703    20.522905            0            0            0    8273.1608    1927.8987    7852.4706   -1030.1234    21.617401    -1913.136   -40.934052    20.190545    19.965703    20.522905           90           90           90 
   21500    242.61054   -161.02796   -130.57752   -161.02796            0    3351.4043    20.345285    20.297033    20.580174            0            0            0    8498.5604    1520.9316    2349.5347    6183.7467    1742.9236   -1572.7832    -638.2003    20.345285    20.297033    20.580174           90           90           90 
   22000     256.0569   -159.96434   -127.82623   -159.96434            0    1547.6553    20.217074    20.302728    20.590135            0            0            0    8451.4631    570.69717    1876.6342    2195.6345    669.14867    1319.5968    3731.1035    20.217074    20.302728    20.590135           90           90           90 
   22500    262.34113   -160.39623   -127.46937   -160.39623            0    2415.0967    20.165273    20.073786    20.584569            0            0            0    8332.4968    313.46749    5019.4366    1912.3862   -121.90531    125.70799   -439.25535    20.165273    20.073786    20.584569           90           90           90 
   23000    249.96148   -160.87548   -129.50241   -160.87548            0     2742.109    20.263759    20.129106    20.629668            0            0            0    8414.6635    5331.3457    1225.9675    1669.0138   -572.08461   -705.14169    640.40849    20.263759    20.129106    20.629668           90           90           90 
   23500    254.34941   -159.47211   -127.54831   -159.47211            0     1482.054    20.292252    20.238277    20.571545            0            0            0    8448.3267    973.89606    2920.7971    551.46895    542.73406   -134.18978    564.52517    20.292252    20.238277    20.571545           90           90           90 
   24000     258.1356   -158.36514   -125.96613   -158.36514            0     2866.959    20.143819    20.306727    20.638844            0            0            0     8442.423    2723.7989    3623.7754    2253.3027    252.14068    2938.4054   -738.82278    20.143819    20.306727    20.638844           90           90           90 
   24500    258.02996   -159.39317   -127.00742   -159.39317            0    6162.5472    20.029505    20.163297    20.636699            0            0            0     8334.355    7219.0987     6251.853    5016.6901    922.62843      1003.82   -197.66148    20.029505    20.163297    20.636699           90           90           90 
   25000    254.19124   -158.94583   -127.04188   -158.94583            0    2060.5409     20.33476    20.098928    20.759708            0            0            0     8484.635   -10.425452    3100.0736    3091.9745   -88.477373    2009.4241   -798.41419     20.33476    20.098928    20.759708           90           90           90 
   25500    260.44053   -158.73172   -126.04342   -158.73172            0    2636.9192    20.411515    20.033764    20.828921            0            0            0    8517.3512    686.42276    6018.0472    1206.2877    854.95852   -471.12918   -1456.2598    20.411515    20.033764    20.828921           90           90           90 
   26000    259.55982   -158.60119   -126.02342   -158.60119            0   -1266.2965    20.119163    20.073421    20.782859            0            0            0    8393.3743   -4402.6506    1863.4553   -1259.6943   -1434.4117    3153.7596    -633.1297    20.119163    20.073421    20.782859           90           90           90 
   26500    255.99716   -160.69911    -128.5685   -160.69911            0    1568.7968    19.989873    20.325545    20.647179            0            0            0    8389.0537    8945.5588   -4788.2168    549.04834   -923.23135    -1866.015   -2632.3439    19.989873    20.325545    20.647179           90           90           90 
   27000    261.01795   -158.57464   -125.81386   -158.57464            0    2191.4241    20.217708    20.355616    20.542101            0            0            0    8453.9764    923.82331    2974.6508    2675.7982   -1928.3891   -373.21597    1022.0026    20.217708    20.355616    20.542101           90           90           90 
   27500    256.07725   -159.25104   -127.11038   -159.25104            0   -173.68182    20.380144    20.113612     20.49932            0            0            0    8403.0468    1092.7362   -4510.0378    2896.2562   -2140.8591    -403.4572    792.05476    20.380144    20.113612     20.49932           90           90           90 
   28000    244.63608   -158.99482   -128.29015   -158.99482            0   -1726.9487    20.275524    20.077069    20.573037            0            0            0      8374.73   -3776.4264   -1842.2206    437.80097    664.32677    1020.3323   -2149.4806    20.275524    20.077069    20.573037           90           90           90 
   28500    255.49965   -159.09993   -127.03176   -159.09993            0    1408.7989    20.094589    20.255982    20.662042            0            0            0    8410.1874    2278.6511    2685.5784   -737.83272   -927.16453   -989.15682   -3058.4778    20.094589    20.255982    20.662042           90           90           90 
   29000    255.23795   -159.24169   -127.20636   -159.24169            0    938.84592    20.238937    20.254766    20.694713            0            0            0    8483.4856   -495.94844    2023.4373    1289.0489    142.06834      433.798     534.7644    20.238937    20.254766    20.694713           90           90           90 
   29500    256.85171   -158.21099   -125.97312   -158.21099            0    2263.5833    20.330769    20.044142    20.516017            0            0            0    8360.5399    298.63969    5150.8826    1341.2275   -2145.7289   -508.58463   -699.74402    20.330769    20.044142    20.516017           90           90           90 
   30000     258.7454   -156.73085    -124.2553   -156.73085            0     2529.627    20.308973    20.229863    20.559745            0            0            0     8446.925    410.17272    1188.4753    5990.2331   -1150.0206    1323.0698     401.6811    20.308973    20.229863    20.559745           90           90           90 
   30500    255.07284    -158.0912    -126.0766    -158.0912            0     2519.128    20.065471    20.395199     20.67492            0            0            0    8460.9894    4509.4787   -1184.4594    4232.3647    287.64541    184.60467   -2165.6363    20.065471    20.395199     20.67492           90           90           90 
   31000    249.23185    -156.8989   -125.61741    -156.8989            0    4915.7041    20.052642    20.280939    20.771258            0            0            0    8447.3881    6091.5795    2977.7182    5677.8146    57.875701    382.14124   -1102.0711    20.052642    20.280939    20.771258           90           90           90 
   31500    257.24351   -158.79321   -126.50617   -158.79321            0    1254.7545    20.259164    20.026933    20.696382            0            0            0    8397.1212    -669.4982    4078.3569    355.40488   -21.398492    2427.8629   -617.19689    20.259164    20.026933    20.696382           90           90           90 
   32000    253.66395   -159.65549   -127.81772   -159.65549            0    1083.0925    20.393328    20.052829    20.628512            0            0            0    8435.9044    597.67721   -72.005805     2723.606   -570.83299    591.31901    3808.3808    20.393328    20.052829    20.628512           90           90           90 
   32500    254.12853   -158.96174   -127.06566   -158.96174            0   -319.07133    20.268273    20.151992    20.624217            0            0            0    8423.8806    3483.4036   -2273.2495   -2167.3681    1422.5534   -390.73629    2145.2732    20.268273    20.151992    20.624217           90           90           90 
   33000    255.09827   -158.78345   -126.76566   -158.78345            0    398.41085    20.166979     20.16886    20.585979            0            0            0    8373.2435   -573.90253    25.518632    1743.6164   -596.04831    2098.7623     159.7787    20.166979     20.16886    20.585979           90           90           90 
   33500    259.75125   -160.56307   -127.96128   -160.56307            0    1138.7867    20.174077    20.286143    20.698393            0            0            0    8470.9043    3950.8622   -2094.0662     1559.564    548.13425    1464.5026    574.75979    20.174077    20.286143    20.698393           90           90           90 
   34000    248.71151   -160.52277   -129.30659   -160.52277            0    2310.4632    20.101409    20.161237    20.617011            0            0            0     8355.441    3791.7298    1310.7128    1828.9469   -614.93902    366.14937    -1004.559    20.101409    20.161237    20.617011           90           90           90 
   34500    240.17461    -160.7138    -130.5691    -160.7138            0    2212.9895    20.193404    20.171509    20.498474            0            0            0     8349.673    1850.5917    1525.2415    3263.1353   -2554.4753   -2222.0665    1576.6465    20.193404    20.171509    20.498474           90           90           90 
   35000    245.04981   -161.69132   -130.93473   -161.69132            0    943.76706    20.312887    20.209363    20.505334            0            0            0    8417.6547    962.85302    1871.5194   -3.0712771   -762.64614    290.91584    1730.3846    20.312887    20.209363    20.505334           90           90           90 
   35500    250.91435   -160.72828   -129.23562   -160.72828            0    3569.6413     20.19829    20.024785    20.530126            0            0            0    8303.7466    788.62142    5547.4298    4372.8727   -817.52734    1017.8478    571.53795     20.19829    20.024785    20.530126           90           90           90 
   36000    261.97464   -160.86253   -127.98167   -160.86253            0   -847.82344    20.232888    20.142922    20.785804            0            0            0    8471.2436   -759.66955    654.08936   -2437.8901    834.05103   -2292.2331    1290.4627    20.232888    20.142922    20.785804           90           90           90 
   36500    255.59601   -159.58625   -127.50599   -159.58625            0    203.08374    20.178115     20.18705    20.749541            0            0            0    8452.0479   -1468.1802     2969.103   -891.67164   -1144.9423   -2843.3991    2350.0845    20.178115     20.18705    20.749541           90           90           90 
   37000    253.66031   -159.39176   -127.55445   -159.39176            0     3709.445    20.143372    20.225583    20.548472            0            0            0    8371.6829    2436.9693     6096.098    2595.2676    1633.1315     2202.958    569.87042    20.143372    20.225583    20.548472           90           90           90 
   37500    252.70863   -160.18595   -128.46809   -160.18595            0     3521.029    20.276177    20.298778    20.424618            0            0            0     8406.397    1579.8925    4078.4124    4904.7821   -665.92495   -2134.7046    1457.6378    20.276177    20.298778    20.424618           90           90           90 
   38000    262.02288   -159.18143   -126.29452   -159.18143            0    3627.6355    20.340373    20.274953    20.447472            0            0            0    8432.5401    2334.4241    5082.9928    3465.4898    157.09793     484.3768    504.08186    20.340373    20.274953    20.447472           90           90           90 
   38500    249.56701    -158.1296   -126.80604    -158.1296            0    5126.8341    20.282754    20.066984    20.643863            0            0            0    8402.3351    5850.1729     4794.005    4736.3244   -1218.6203    703.69919   -1551.8646    20.282754    20.066984    20.643863           90           90           90 
   39000    245.50164   -159.06786   -128.25455   -159.06786            0    747.13063    20.205462    20.066885     20.86423            0            0            0    8459.6252    3338.3305   -1720.8508    623.91222   -982.43905   -101.94559    1342.8899    20.205462    20.066885     20.86423           90           90           90 
   39500    254.80375   -159.48447   -127.50365   -159.48447            0    1925.0099    20.144088        20.16    20.780289            0            0            0     8438.975     3582.307    1180.3901    1012.3326    167.80508    1658.0018   -1192.8165    20.144088        20.16    20.780289           90           90           90 
   40000      255.244   -159.99745   -127.96137   -159.99745            0    -1043.926    20.267753    20.362196    20.588921            0            0            0    8496.9645   -856.18889   -1277.4572   -998.13188    1130.4202    -104.8536    794.38668    20.267753    20.362196    20.588921           90           90           90 
   40500    250.09227   -159.53209   -128.14261   -159.53209            0    1484.1344    20.301214    20.274123    20.257371            0            0            0    8337.7175   -309.43734    2207.0026    2554.8378   -1653.5602    2425.4562    -320.2649    20.301214    20.274123    20.257371           90           90           90 
   41000    252.79847   -160.47697   -128.74783   -160.47697            0    2863.2033    20.327461    20.187059    20.302884            0            0            0    8331.3219     6004.867    534.23859    2050.5045    59.336366   -1089.2414    1395.1465    20.327461    20.187059    20.302884           90           90           90 
   41500    252.95785   -158.96689   -127.21775   -158.96689            0    651.34486    20.390733    20.269697    20.748951            0            0            0    8575.8316    238.97031    1701.3363    13.727922    -59.53302    761.43131    174.14861    20.390733    20.269697    20.748951           90           90           90 
   42000    253.16457   -159.28926   -127.51417   -159.28926            0    3613.3015    20.093485    20.038561    20.841711            0            0            0    8391.8006    5114.1412    4181.3442     1544.419   -1106.2711    15.675125     2219.355    20.093485    20.038561    20.841711           90           90           90 
   42500    261.28989   -159.08465   -126.28973   -159.08465            0    3238.3832    20.054115    20.095797    20.790343            0            0            0    8378.5793     4215.149    1688.1092    3811.8913    -1972.811     2068.895   -15.362532    20.054115    20.095797    20.790343           90           90           90 
   43000    269.58496   -160.61406   -126.77802   -160.61406            0    2863.7852    20.238351    20.270355    20.655286            0            0            0    8473.5949    2429.7736    2640.8631     3520.719    330.64546   -369.81845   -646.60118    20.238351    20.270355    20.655286           90           90           90 
   43500    256.03911   -159.17608    -127.0402   -159.17608            0    4136.0932    20.327392    20.311472    20.437107            0            0            0    8438.0572    3800.6984    4269.7433     4337.838   -319.26247    505.92273    2677.7483    20.327392    20.311472    20.437107           90           90           90 
   44000    258.62322   -159.81533   -127.35512   -159.81533            0    1117.0467    20.267062    20.172921    20.377915            0            0            0    8331.4257    2764.7671   -10.760537    597.13369       330.31    94.745831    363.61312    20.267062    20.172921    20.377915           90           90           90 
   44500    256.69803   -160.22784   -128.00926   -160.22784            0    4045.3776    20.241123    20.118872    20.611062            0            0            0    8393.4133    7664.7736    1901.7258    2569.6334    346.16657   -605.20071   -2258.7808    20.241123    20.118872    20.611062           90           90           90 
   45000    246.33518   -160.76548   -129.84756   -160.76548            0    324.05374    20.234095    20.179584    20.865746            0            0            0    8519.8102    2983.3565   -966.33148   -1044.8638    1349.3188    521.45745   -1038.8882    20.234095    20.179584    20.865746           90           90           90 
   45500    249.26141   -160.02392   -128.73873   -160.02392            0   -298.21097    20.138728    20.119852    20.871462            0            0            0    8456.8707   -836.54979   -26.307854   -31.775258   -1621.9337   -1170.7917   -727.25139    20.138728    20.119852    20.871462           90           90           90 
   46000     254.8069   -160.01067   -128.02944   -160.01067            0    4509.9045    20.102443    20.135706    20.627723            0            0            0    8349.6252    5170.3167    4390.3022    3969.0945   -871.60007    -978.5615    1954.4863    20.102443    20.135706    20.627723           90           90           90 
   46500    250.81308   -159.33672   -127.85677   -159.33672            0    3184.6417    20.319686    20.368993     20.51233            0            0            0    8489.8797    4513.7636    1938.3284    3101.8332   -1952.8622    510.33187   -208.13795    20.319686    20.368993     20.51233           90           90           90 
   47000    269.09027   -160.82051   -127.04656   -160.82051            0    1962.5416    20.341765     20.29455    20.404727            0            0            0    8423.6216   -2442.6277    4850.4452    3479.8073   -950.88201   -1053.7832    2564.1764    20.341765     20.29455    20.404727           90           90           90 
   47500    254.01655   -157.59704   -125.71502   -157.59704            0    4956.5842    20.195306    20.142766     20.44495            0            0            0    8316.7874    3630.9057    6691.4211    4547.4259     455.5033   -811.47775    -2890.358    20.195306    20.142766     20.44495           90           90           90 
   48000    256.25244   -158.50285    -126.3402   -158.50285            0    447.11659    20.232898    20.273209    20.776183            0            0            0    8522.0943    -1323.227     637.8586    2026.7182    168.04602    1884.2287    2728.2668    20.232898    20.273209    20.776183           90           90           90 
   48500    257.63717   -159.32999   -126.99353   -159.32999            0    2038.8884    20.136684    20.200473    20.768717            0            0            0    8448.1023    2458.4931    3962.7123   -304.54038   -265.84819    15.968309    845.02751    20.136684    20.200473    20.768717           90           90           90 
   49000    263.41844   -157.87712   -124.81505   -157.87712            0    1746.0389    20.220969    20.118307    20.692702            0            0            0    8418.0324    3979.9515    48.962198    1209.2031   -80.151477   -4729.7055    2245.0028    20.220969    20.118307    20.692702           90           90           90 
   49500    277.27123   -157.74789   -122.94713   -157.74789            0   -1610.9245    20.380567    20.203524    20.660618            0            0            0    8507.2013   -2564.7266   -1076.0013   -1192.0455    542.89075   -103.20709    1330.9683    20.380567    20.203524    20.660618           90           90           90 
   50000    261.81221   -157.81083   -124.95036   -157.81083            0    1145.4986    20.324663    20.268326    20.612684            0            0            0    8491.3313    405.78993    3290.4593   -259.75331    454.48212    146.35347   -856.11315    20.324663    20.268326    20.612684           90           90           90 
   50500    260.86101   -160.12879   -127.38771   -160.12879            0    5968.7603    20.221645    20.157021    20.583333            0            0            0    8389.9337    3845.3122    6624.4186    7436.5502    0.4736571   -2510.1423    96.955477    20.221645    20.157021    20.583333           90           90           90 
   51000    249.67478   -157.70375   -126.36667   -157.70375            0    759.52354    20.256361    20.173327     20.65309            0            0            0    8439.6413   -127.41411    1831.5009    574.48383   -907.56744   -56.118072   -965.92186    20.256361    20.173327     20.65309           90           90           90 
   51500    252.43661   -158.99127   -127.30754   -158.99127            0    2951.4307    20.198578    20.195935    20.585506            0            0            0    8397.4282   -2100.2202    8359.8571    2594.6552    430.38252    665.15299   -1081.2824    20.198578    20.195935    20.585506           90           90           90 
   52000    238.65568   -159.24069   -129.28664   -159.24069            0    2760.5614    20.212302    20.299509    20.589214            0            0            0    8447.7503    4692.0868    572.17729    3017.4202     1071.708   -1336.2185   -4067.6014    20.212302    20.299509    20.589214           90           90           90 
   52500     250.1008   -157.88735    -126.4968   -157.88735            0    1563.9603    20.236579     20.28305    20.522168            0            0            0    8423.5198     4279.039    -535.7659    948.60762   -764.65239    1991.1988   -2425.5785    20.236579     20.28305    20.522168           90           90           90 
   53000    258.46992   -160.45928   -128.01831   -160.45928            0    2067.4224    20.379733    20.202086    20.672453            0            0            0    8511.1199    2329.7788    391.78761    3480.7007    769.34053    2427.3385    1093.0013    20.379733    20.202086    20.672453           90           90           90 
   53500    256.13119   -159.41696   -127.26952   -159.41696            0    219.95193    20.286948    19.940159    20.854662            0            0            0    8436.2313    2574.0087   -1807.6258   -106.52711    329.23072   -81.677573    1392.4779    20.286948    19.940159    20.854662           90           90           90 
   54000    260.61596   -159.18625   -126.47592   -159.18625            0    548.46278     20.12502    19.990938    20.900005            0            0            0     8408.449   -1966.0035    1113.3121    2498.0797   -1182.7413   -327.87326    -1320.046     20.12502    19.990938    20.900005           90           90           90 
   54500    238.52883   -159.47331   -129.53518   -159.47331            0    4818.5569    20.103787    20.282977    20.668461            0            0            0    8427.8677    1070.7311    8751.2253    4633.7145   -964.40778   -2609.8948   -363.50518    20.103787    20.282977    20.668461           90           90           90 
   55000    259.15593   -160.41928    -127.8922   -160.41928            0    -287.4125    20.196142    20.395408    20.354105            0            0            0      8384.03   -2893.6928    441.45304    1590.0022    -1207.485    53.631246   -9.7618295    20.196142    20.395408    20.354105           90           90           90 
   55500    249.37485   -160.26721   -128.96778   -160.26721            0    3381.1114    20.348701    20.245741    20.330211            0            0            0    8375.5288    3791.2981    2120.0587    4231.9775    1171.4307   -2601.1096    2330.4484    20.348701    20.245741    20.330211           90           90           90 
   56000    266.59758   -159.88074   -126.41965   -159.88074            0    2217.9417    20.372013    20.067221    20.620517            0            0            0     8429.867    2457.6159    2791.2426    1404.9666    2005.9999    919.60514    900.14026    20.372013    20.067221    20.620517           90           90           90 
   56500    262.23673   -159.61606   -126.70231   -159.61606            0    -991.5095    20.206099    20.136674    20.924091            0            0            0      8513.67   -2821.2125    2509.8944   -2663.2104    119.63711   -1033.5797   -132.50865    20.206099    20.136674    20.924091           90           90           90 
   57000    254.94272   -159.10498   -127.10672   -159.10498            0     2883.106    20.075262    20.164627     20.88399            0            0            0    8454.0515    3842.7793    4171.8981    634.64049    885.40757    1729.6023    2020.6129    20.075262    20.164627     20.88399           90           90           90 
   57500    245.54434   -158.71308   -127.89442   -158.71308            0    1961.4307    20.144008    20.194906     20.71625            0            0            0    8427.5021    163.45462    4633.5253    1087.3122    2102.3923    298.35564   -2610.5012    20.144008    20.194906     20.71625           90           90           90 
   58000    256.74283   -159.88492   -127.66071   -159.88492            0    1787.9275    20.233639    20.193802    20.482161            0            0            0    8368.8904    3595.3506    811.74969    956.68232   -313.01759   -978.06047    3581.1622    20.233639    20.193802    20.482161           90           90           90 
   58500    251.39282     -159.159   -127.60628     -159.159            0    2390.9057    20.296227    20.260404    20.466231            0            0            0    8415.9134    3600.7583    2208.0774    1363.8814    2437.2047       911.33   -702.65269    20.296227    20.260404    20.466231           90           90           90 
   59000    256.56997   -158.46127   -126.25876   -158.46127            0    5537.3472    20.229451    20.280023    20.591181            0            0            0    8447.6083    2431.5114    6537.6569    7642.8732   -894.53997    459.06649    792.19087    20.229451    20.280023    20.591181           90           90           90 
   59500     264.4054   -159.16287   -125.97692   -159.16287            0    3181.9589    20.115376    20.109707    20.727344            0            0            0    8384.5071    986.99562    6329.4967    2229.3844    865.15164   -561.88527   -80.448873    20.115376    20.109707    20.727344           90           90           90 
   60000    250.01733   -159.38687   -128.00679   -159.38687            0    839.32172    20.169604    20.098521    20.712335            0            0            0      8396.35    1460.4151    954.23076    103.31933   -718.38583    568.07562    1549.7528    20.169604    20.098521    20.712335           90           90           90 
   60500    247.41098    -159.5768   -128.52385    -159.5768            0   -86.130721    20.405094    20.259991    20.692031            0            0            0    8554.2306   -693.03832    -1382.092    1816.7382    1344.9744    2320.2231    97.960005    20.405094    20.259991    20.692031           90           90           90 
   61000    261.27594   -159.79812   -127.00496   -159.79812            0    1591.8532    20.208129    20.129302    20.422924            0            0            0     8307.546    1226.2862    2146.4322    1402.8411    -339.4978   -1507.9955   -161.92224    20.208129    20.129302    20.422924           90           90           90 
   61500    252.61251   -158.88981   -127.18401   -158.88981            0    303.62241    20.223015    20.220588     20.57278            0            0            0     8412.647    4742.2218   -3690.4611   -140.89355    -1426.878    862.77173    400.41989    20.223015    20.220588     20.57278           90           90           90 
   62000    256.54775   -158.63854   -126.43882   -158.63854            0    478.87545    20.157229    20.339748    20.721973            0            0            0     8495.863    2926.5501   -4381.2494    2891.3257    691.33139   -1378.1017    1388.8365    20.157229    20.339748    20.721973           90           90           90 
   62500    248.13137   -158.98529   -127.84192   -158.98529            0   -299.59626    20.139929    20.263558    20.817511            0            0            0     8495.764    6312.8528   -3464.7704   -3746.8713   -572.49759   -1653.3998    1789.5831    20.139929    20.263558    20.817511           90           90           90 
   63000    264.71406    -158.2837   -125.05902    -158.2837            0    6708.7483    20.250424    19.974913    20.605891            0            0            0    8335.0918    7768.6882    6721.8013    5635.7555   -739.37475   -78.159218    976.14533    20.250424    19.974913    20.605891           90           90           90 
   63500    254.17103   -159.59791   -127.69649   -159.59791            0    910.78367     20.46484    20.099961    20.553874            0            0            0    8454.6822   -1335.1928    550.59126    3516.9525    833.80942   -1619.9905   -655.58239     20.46484    20.099961    20.553874           90           90           90 
   64000     252.9785   -158.21396   -126.46223   -158.21396            0     722.5963    20.285557    20.311924    20.582094            0            0            0    8480.6189    2600.6539    1599.7006   -2032.5656   -708.65998    1718.7282   -733.00899    20.285557    20.311924    20.582094           90           90           90 
   64500    255.69303   -159.38712   -127.29468   -159.38712            0    2276.7626    20.062366    20.218572    20.524163            0            0            0    8325.2658    3315.5724    574.52253    2940.1929    255.86487   -2381.7615   -3427.5535    20.062366    20.218572    20.524163           90           90           90 
   65000    249.49805   -160.98064   -129.66574   -160.98064            0    865.32874    20.281932    20.188403    20.706795            0            0            0    8478.6005    3491.1851    414.18107   -1309.3799    -2071.523   -4103.7321    1242.4803    20.281932    20.188403    20.706795           90           90           90 
   65500    257.44296    -160.6474   -128.33533    -160.6474            0    4029.3888    20.290348    20.102258    20.632538            0            0            0    8415.6369    3158.3609     3411.773    5518.0324    1327.0443   -740.05343    666.81726    20.290348    20.102258    20.632538           90           90           90 
   66000    255.66353   -157.31179   -125.22305   -157.31179            0    2226.9388    20.191439    20.266377    20.657473            0            0            0    8453.1889    1562.3692    2543.2551    2575.1922   -1918.4073   -3144.7949   -1289.2404    20.191439    20.266377    20.657473           90           90           90 
   66500    261.94651   -159.19877   -126.32144   -159.19877            0    2244.9327    20.155241    20.269568     20.56765            0            0            0    8402.6672    2282.6235    1292.6458    3159.5288    779.58434    123.14704   -807.49135    20.155241    20.269568     20.56765           90           90           90 
   67000    246.86831   -159.49571   -128.51087   -159.49571            0     2297.711    20.343423    20.150735    20.552331            0            0            0    8425.1182    1414.3709    3631.8032    1846.9591    1737.9643   -1124.6764    626.47257    20.343423    20.150735    20.552331           90           90           90 
   67500    252.57027   -159.33597   -127.63547   -159.33597            0    442.97834    20.374561    20.097371    20.581761            0            0            0     8427.719    608.26449    698.45915    22.211387    989.04217    321.52427    1603.6745    20.374561    20.097371    20.581761           90           90           90 
   68000    257.33752   -160.45573   -128.15689   -160.45573            0    1714.9378     20.19795    20.204703    20.451695            0            0            0    8346.2051    3173.1469    625.59979    1346.0666    953.48403     1396.325    2763.4062     20.19795    20.204703    20.451695           90           90           90 
   68500    253.91058   -158.85322    -126.9845   -158.85322            0    4910.8122     20.23062    20.417295    20.536172            0            0            0    8482.5591    4392.0224    4951.3486    5389.0655    4.8965543   -839.83176   -1120.3688     20.23062    20.417295    20.536172           90           90           90 
   69000    253.77699   -160.16667   -128.31471   -160.16667            0    3719.0247     20.22315    20.221168    20.507083            0            0            0    8386.0785    2388.1389     4483.499    4285.4362    1121.2208   -2567.1487    1149.4609     20.22315    20.221168    20.507083           90           90           90 
   69500    251.07299     -160.228   -128.71542     -160.228            0    275.49816    20.416156    20.048054    20.662852            0            0            0     8457.392   -3047.4467    4431.3748   -557.43365   -529.96777   -2568.4162   -2724.1291    20.416156    20.048054    20.662852           90           90           90 
   70000     247.0971   -159.18982   -128.17627   -159.18982            0    4298.7843    20.306389    20.079275    20.659447            0            0            0    8423.6327    4282.0723    4811.1633    3803.1174   -188.94488     1845.405    1055.1608    20.306389    20.079275    20.659447           90           90           90 
   70500    248.73079   -159.62684   -128.40824   -159.62684            0    1736.0988    20.115723    20.343611    20.565862            0            0            0    8416.0943    2215.7676    2128.4205    864.10822   -250.38117    -2376.295    1725.6238    20.115723    20.343611    20.565862           90           90           90 
   71000    245.22942   -159.12283   -128.34369   -159.12283            0    3123.8941     20.09986    20.373753    20.433219            0            0            0    8367.5991     5195.891    173.12706    4002.6642    87.954859    1703.3939   -1574.8118     20.09986    20.373753    20.433219           90           90           90 
   71500    245.38169   -158.81763   -128.01938   -158.81763            0    1359.9476     20.37546    20.123251    20.456609            0            0            0    8387.6291    3244.3488    2675.1461   -1839.6522   -922.28472     206.6211    1170.6553     20.37546    20.123251    20.456609           90           90           90 
   72000    265.97549   -158.39416   -125.01115   -158.39416            0    1597.7726    20.566673    20.027762    20.630685            0            0            0    8497.8703    1842.1472    1375.9323    1575.2384    685.92233   -2607.1985   -1231.3127    20.566673    20.027762    20.630685           90           90           90 
   72500    251.20196   -158.67807   -127.14931   -158.67807            0    4776.9612    20.189421    20.117767    20.646048            0            0            0    8385.7241    9129.4688    2436.3498     2765.065    -635.3354   -580.76737    624.33806    20.189421    20.117767    20.646048           90           90           90 
   73000    247.42004   -159.19857   -128.14448   -159.19857            0    1923.5272    19.984136    20.360495    20.642042            0            0            0    8398.9764    3619.4752    1579.9902     571.1162    234.22912   -997.80871    662.46523    19.984136    20.360495    20.642042           90           90           90 
   73500    260.60781   -160.21892   -127.50962   -160.21892            0    5861.4682    20.175345    20.252379    20.492861            0            0            0    8373.3571    7948.5399    3486.8068    6149.0578   -1839.0104    1031.7906    57.288619    20.175345    20.252379    20.492861           90           90           90 
   74000    255.63384    -160.8225   -128.73749    -160.8225            0    5619.0485    20.473527    20.101337     20.47924            0            0            0    8428.1341    5268.4197      5954.15    5634.5757   -1614.5903   -1380.0596   -82.490835    20.473527    20.101337     20.47924           90           90           90 
   74500    248.74655   -158.85121   -127.63063   -158.85121            0    3459.2361    20.308788    20.181964    20.466564            0            0            0    8388.6559     3806.991    3296.8211    3273.8963   -289.18945    526.38245    974.53379    20.308788    20.181964    20.466564           90           90           90 
   75000    262.83769   -159.75584   -126.76666   -159.75584            0    2707.0681    20.106439    20.344693    20.555498            0            0            0    8408.4179    4328.6949     1314.683    2477.8263    1092.6251   -2904.8756    1702.4578    20.106439    20.344693    20.555498           90           90           90 
   75500    260.64372   -161.30667   -128.59286   -161.30667            0    1299.2297    20.177983    20.312468    20.627481            0            0            0    8454.4748    2404.6864   -25.900782    1518.9036   -419.64185    2787.4155   -427.97005    20.177983    20.312468    20.627481           90           90           90 
   76000    266.57982   -160.73626    -127.2774   -160.73626            0    1178.0799    20.345602    20.157489     20.59952            0            0            0    8448.1982   -139.35922    1084.2973    2589.3015    740.13143   -594.78456    769.45976    20.345602    20.157489     20.59952           90           90           90 
   76500     237.3637   -160.23317   -130.44127   -160.23317            0    1325.6634    20.302639     20.10761    20.531005            0            0            0    8381.5269   -2386.1076    4895.2585    1467.8392    -414.2251    1886.2943    2452.7713    20.302639     20.10761    20.531005           90           90           90 
   77000    245.18463   -161.21761   -130.44409   -161.21761            0    2315.6695     20.15713    20.192689    20.508094            0            0            0    8347.3407    911.27471    2509.0293    3526.7046   -19.595262   -391.83178    1824.2758     20.15713    20.192689    20.508094           90           90           90 
   77500    256.89207   -159.81605   -127.57311   -159.81605            0    15.777019    20.161932     20.32176    20.630548            0            0            0    8452.8705    2124.9846   -1002.2656   -1075.3879   -1573.1753    293.67828   -1844.9044    20.161932     20.32176    20.630548           90           90           90 
   78000    276.68257   -159.25605   -124.52918   -159.25605            0    677.79304    20.148256    20.183577    20.586347            0            0            0    8371.7237   -1448.4024     1352.676    2129.1056    1274.0102   -753.86762   -762.19786    20.148256    20.183577    20.586347           90           90           90 
   78500      242.691   -159.62457   -129.16403   -159.62457            0    886.40146     20.38475    20.155741    20.704256            0            0            0     8506.752    116.26974    4219.6301   -1676.6954   -207.77149     1684.062    2890.1263     20.38475    20.155741    20.704256           90           90           90 
   79000    247.08539   -159.95668    -128.9446   -159.95668            0    -588.6366    20.342497     20.05254    20.672021            0            0            0    8432.5051   -1621.8871    1764.6024   -1908.6251    1280.3925   -2697.1583    -891.3105    20.342497     20.05254    20.672021           90           90           90 
   79500    250.37566   -158.30395   -126.87891   -158.30395            0    3980.1478    20.104983    20.158451     20.58393            0            0            0    8342.3644    4293.2938    6820.3338    826.81576    7.5480436   -1018.5813   -146.79751    20.104983    20.158451     20.58393           90           90           90 
   80000    250.36889   -157.65204   -126.22784   -157.65204            0    3141.4961    20.189227    20.359858    20.534943            0            0            0    8440.8844   -459.88017    6632.2793    3252.0892    1029.0469    1757.8343   -1642.6966    20.189227    20.359858    20.534943           90           90           90 
   80500    256.31215   -159.47442   -127.30427   -159.47442            0    262.06719    20.354696    20.234141    20.419524            0            0            0    8409.9808    1826.0475   -1891.9169      852.071   -8.0921931   -1870.3773   -1045.6326    20.354696    20.234141    20.419524           90           90           90 
   81000     255.2721   -159.54222   -127.50261   -159.54222            0      -1626.4    20.491099    20.162452     20.52177            0            0            0    8478.5859   -4858.0508   -2369.4873     2348.338     600.4772   -3321.5569    883.54869    20.491099    20.162452     20.52177           90           90           90 
   81500    244.82157   -158.39356   -127.66561   -158.39356            0    3436.9203    20.147692    20.056488    20.566239            0            0            0    8310.6516    7047.3126    2632.6536    630.79477   -422.21349    2115.7037   -1864.0002    20.147692    20.056488    20.566239           90           90           90 
   82000    244.71218    -159.5797   -128.86548    -159.5797            0    1915.3749    20.118137    20.302138    20.792648            0            0            0     8492.574    3080.4829     1230.887    1434.7549    1087.1504    1521.2803   -125.25733    20.118137    20.302138    20.792648           90           90           90 
   82500     266.4045   -158.71896    -125.2821   -158.71896            0    700.81168    20.247901    20.313105    20.775583            0            0            0    8544.9502   -520.34019    2717.0032   -94.227982    331.71736   -809.88336    2060.9271    20.247901    20.313105    20.775583           90           90           90 
   83000    257.13794   -158.42844   -126.15464   -158.42844            0    2381.4428     20.27103    20.116895    20.510963            0            0            0    8364.1693    1438.3898    4028.4984    1677.4403    771.75101     -1820.15    574.55727     20.27103    20.116895    20.510963           90           90           90 
   83500    260.37176    -159.8072   -127.12752    -159.8072            0    484.73126    20.248446    20.213601    20.471761            0            0            0     8378.969   -4235.2282    2423.6619      3265.76   -289.08368    1451.8517    812.52685    20.248446    20.213601    20.471761           90           90           90 
   84000    258.59921   -157.75251   -125.29531   -157.75251            0    1251.2423     20.25148     20.41706    20.594305            0            0            0    8515.2444     4654.973   -2395.5003    1494.2541    2515.7978    95.770523    -498.8984     20.25148     20.41706    20.594305           90           90           90 
   84500     253.8447    -158.8092   -126.94875    -158.8092            0   -1112.3633    20.199733    20.313394    20.633605            0            0            0    8466.4865   -3807.0919    294.67155    175.33057    1354.1422    1574.0605   -1553.2162    20.199733    20.313394    20.633605           90           90           90 
   85000    250.12196   -159.27617   -127.88296   -159.27617            0    2232.6606    20.226114    20.024618    20.749635            0            0            0    8404.0217    455.54239    4766.7924    1475.6471   -285.82449    271.68881   -2792.8931    20.226114    20.024618    20.749635           90           90           90 
   85500     262.9338   -159.30626   -126.30502   -159.30626            0   -1600.4733    20.337539    20.023288    20.752937            0            0            0     8451.102     -2766.14   -2399.7627    364.48283    586.46801    11.148871    4855.0879    20.337539    20.023288    20.752937           90           90           90 
   86000    255.51959   -158.84227    -126.7716   -158.84227            0    4429.1174     20.25259    20.320118    20.591816            0            0            0    8474.2534    10286.507     271.5211    2729.3237    732.84149   -333.64016   -820.61115     20.25259    20.320118    20.591816           90           90           90 
   86500    255.15994   -160.62698   -128.60144   -160.62698            0    2979.3643    20.133412    20.466259    20.459726            0            0            0    8430.5449    2596.3782    2046.6887    4295.0259    419.20107    510.95777   -1356.7568    20.133412    20.466259    20.459726           90           90           90 
   87000     251.5369   -160.88302   -129.31222   -160.88302            0    3012.0313    20.165434    20.192099    20.424775            0            0            0    8316.6095    252.39793    5421.5546    3362.1414   -189.42639   -761.83451   -1073.4917    20.165434    20.192099    20.424775           90           90           90 
   87500    254.15463   -160.06242   -128.16307   -160.06242            0    2099.7308    20.440814    20.006283    20.627023            0            0            0    8435.3118   -2643.0968    4430.2939    4511.9954    951.21883   -1114.5667   -729.87436    20.440814    20.006283    20.627023           90           90           90 
   88000    255.68625   -159.04429    -126.9527   -159.04429            0    4356.3659    20.351136    20.118437    20.705287            0            0            0    8477.4291     3697.397    4854.6738    4517.0271   -461.38627    1399.6279    1743.2986    20.351136    20.118437    20.705287           90           90           90 
   88500    250.11435   -159.54313   -128.15088   -159.54313            0    1868.3724    20.087272    20.218544    20.637018            0            0            0    8381.4233    3359.5065    3360.2046   -1114.5941    982.46894   -536.21858    2431.3993    20.087272    20.218544    20.637018           90           90           90 
   89000    238.95236   -160.26532   -130.27403   -160.26532            0    2394.6427     20.18494    20.263512    20.595967            0            0            0    8424.1169    5471.3783   -2377.5447    4090.0944    116.72604    -961.7532   -270.42686     20.18494    20.263512    20.595967           90           90           90 
   89500     245.0085   -161.28094   -130.52954   -161.28094            0   -570.46231    20.336613    20.123159    20.469099            0            0            0    8376.7107   -1788.9978   -2845.8793    2923.4902   -2366.4957    612.25475    2259.8178    20.336613    20.123159    20.469099           90           90           90 
   90000    254.15862   -161.79685   -129.89699   -161.79685            0    3789.3864     20.31681    20.126961    20.513619            0            0            0    8388.3397    1039.0085     6903.949    3425.2016    138.51578   -2166.7045    846.63721     20.31681    20.126961    20.513619           90           90           90 
   90500    263.22628   -160.34571   -127.30776   -160.34571            0    3527.8943    20.123773    20.243493    20.608203            0            0            0     8395.276    476.48176    4850.9327    5256.2685   -1190.7031   -2935.0887    170.16943    20.123773    20.243493    20.608203           90           90           90 
   91000    258.62518    -160.1353   -127.67484    -160.1353            0    3047.3725    20.086948    20.317806    20.604276            0            0            0    8409.0731    4691.1585    785.17797     3665.781    919.02212    1797.9114   -1416.5773    20.086948    20.317806    20.604276           90           90           90 
   91500     243.3061   -161.43379   -130.89606   -161.43379            0     2211.949    20.334661    20.256138    20.599028            0            0            0    8484.7746    4127.9153   -358.53764    2866.4693    229.56952   -745.50119    954.93622    20.334661    20.256138    20.599028           90           90           90 
   92000    246.97818   -159.82256   -128.82394   -159.82256            0    1515.4824    20.310353    19.975572    20.486853            0            0            0      8311.74    563.06678    396.42362    3586.9569   -613.13857   -1275.9986   -172.54747    20.310353    19.975572    20.486853           90           90           90 
   92500    253.24607   -160.37995   -128.59463   -160.37995            0    2363.4714    20.206409     20.12627    20.615467            0            0            0     8383.891    5871.8395   -1416.8266    2635.4012    437.34545    1587.0574    2396.8561    20.206409     20.12627    20.615467           90           90           90 
   93000    245.62962   -158.87176    -128.0424   -158.87176            0    738.40093    20.107659    20.445354    20.738884            0            0            0    8525.9255   -367.46789   -1697.5418    4280.2125    70.163533     2080.065    2760.1691    20.107659    20.445354    20.738884           90           90           90 
   93500    258.15982   -161.03836   -128.63631   -161.03836            0    2974.8233    20.117397    20.285561    20.588286            0            0            0    8401.9292    3854.4245    3472.2666    1597.7788    314.92185   -432.60291    -1771.938    20.117397    20.285561    20.588286           90           90           90 
   94000    251.37644   -160.57172   -129.02106   -160.57172            0    2614.7387     20.33391    20.025613    20.450552            0            0            0    8327.4442    2392.1188    2269.1794    3182.9179    347.46209   -1942.0729    668.71675     20.33391    20.025613    20.450552           90           90           90 
   94500    260.77518   -161.37068   -128.64037   -161.37068            0    4975.0663    20.480244     20.11494    20.523805            0            0            0     8454.964    4921.7239    5369.1928    4634.2823    1031.9433    1330.0577   -450.13759    20.480244     20.11494    20.523805           90           90           90 
   95000     254.3144   -162.16657   -130.24716   -162.16657            0    1676.0748    20.272605    20.300436    20.690299            0            0            0    8514.9422    1169.9455    2025.1479     1833.131    214.73837   -900.73375   -1226.3393    20.272605    20.300436    20.690299           90           90           90 
   95500    256.23789   -160.09674   -127.93591   -160.09674            0   -482.77388    19.949249     20.17078    20.614947            0            0            0    8295.2878    1199.4903   -2355.2281   -292.58385    242.22957    2152.4287   -745.22351    19.949249     20.17078    20.614947           90           90           90 
   96000    258.91283   -159.21285   -126.71628   -159.21285            0    2744.5561    20.228855    20.213244    20.657931            0            0            0    8446.8377    3729.5167   -2820.4902    7324.6418     130.1242   -133.93075    1747.9466    20.228855    20.213244    20.657931           90           90           90 
   96500    244.44159   -157.52844   -126.84819   -157.52844            0    1411.9976    20.332551    20.184138    20.633681            0            0            0    8467.9594    1150.4085    2586.6736    498.91063    -134.2456    1257.8604    649.83989    20.332551    20.184138    20.633681           90           90           90 
   97000    249.49745   -159.17715   -127.86233   -159.17715            0   -18.643057     20.28657    20.158546    20.620736            0            0            0    8432.8036    -395.1585   -1758.7571    2097.9864    1760.4813   -3364.1931   -862.85266     20.28657    20.158546    20.620736           90           90           90 
   97500    245.95493   -158.23517   -127.36497   -158.23517            0    3698.6751    20.206881     20.16334    20.649218            0            0            0    8413.2806    3610.4708    4306.0253    3179.5291    1298.6429   -539.87691   -920.38626    20.206881     20.16334    20.649218           90           90           90 
   98000    244.40031    -159.7867   -129.11163    -159.7867            0    458.98194    20.179256    20.169108    20.617477            0            0            0    8391.2635    1663.6168   -1765.5086    1478.8377     -1110.15      1576.92   -350.44078    20.179256    20.169108    20.617477           90           90           90 
   98500    247.75592   -159.62946   -128.53322   -159.62946            0    2461.6829    20.298606    20.278995    20.714013            0            0            0    8526.6195    2370.3802    2073.9365     2940.732    267.25697    1166.2308   -225.86786    20.298606    20.278995    20.714013           90           90           90 
   99000    256.54533   -160.12505   -127.92563   -160.12505            0    5103.7351    20.162924    20.126738     20.56763            0            0            0    8346.6297    3884.2339    5905.6469    5521.3246    -901.0554   -1454.7011    1683.8208    20.162924    20.126738     20.56763           90           90           90 
   99500    256.14187   -158.13071   -125.98193   -158.13071            0    1847.2415    20.268895     20.22579    20.646426            0            0            0    8464.0934     3275.641    669.21133    1596.8721    256.58963   -3686.5483    572.29717    20.268895     20.22579    20.646426           90           90           90 
  100000    266.61318   -160.65877   -127.19572   -160.65877            0    1225.5325    20.371161    20.278911    20.737208            0            0            0    8566.6434    3074.3356   -429.41134    1031.6734    362.07192    653.88206    1293.1513    20.371161    20.278911    20.737208           90           90           90 
  100500    259.79811   -159.15355   -126.54587   -159.15355            0    2607.0646    20.131831    20.163397    20.656349            0            0            0     8384.951    3239.3578    2854.8659    1726.9701   -967.19724   -135.34913    1238.7081    20.131831    20.163397    20.656349           90           90           90 
  101000    247.60053   -159.43503   -128.35829   -159.43503            0    3713.2486    20.111446    20.141911    20.595422            0            0            0    8342.8546    3150.8559    3084.4847    4904.4051    2032.3598    131.72645    1907.3024    20.111446    20.141911    20.595422           90           90           90 
  101500     252.6647    -160.0756   -128.36325    -160.0756            0    1604.7206    20.431491    20.235209    20.582821            0            0            0    8509.6688   -2249.2549    6605.4414    457.97513   -1052.9076   -2685.5717    495.33134    20.431491    20.235209    20.582821           90           90           90 
  102000      251.972   -159.69405   -128.06864   -159.69405            0    624.97317    20.452014    20.169392    20.501934            0            0            0    8457.1438    1637.3083   -2161.8175    2399.4287   -29.373616    2943.4694    1106.3446    20.452014    20.169392    20.501934           90           90           90 
  102500     255.0999   -160.19349   -128.17549   -160.19349            0    2610.2662     20.17552    20.173199    20.487667            0            0            0    8338.5785    3017.3057    3005.3614    1808.1314   -1470.2522   -2086.3954   -740.90963     20.17552    20.173199    20.487667           90           90           90 
  103000    254.88935    -159.2935   -127.30193    -159.2935            0    1002.6294    20.036135    20.355956    20.578387            0            0            0    8392.9916    514.77727    280.40425    2212.7068    1135.7307   -788.62458    1175.3636    20.036135    20.355956    20.578387           90           90           90 
  103500    252.76913   -160.71424   -128.98878   -160.71424            0    3251.5712    20.142464    20.394237    20.699144            0            0            0     8503.005    1730.3623    5460.1983    2564.1529   -1718.7668   -492.84622   -594.13678    20.142464    20.394237    20.699144           90           90           90 
  104000    252.21439   -158.67211   -127.01628   -158.67211            0    5161.2897    20.291712    20.086528    20.616969            0            0            0    8403.2713    4921.1327    4644.6242    5918.1123    2291.0713   -1322.1339   -1692.4617    20.291712    20.086528    20.616969           90           90           90 
  104500    249.96827   -160.15164   -128.77772   -160.15164            0    3205.7463    20.383438     19.95491    20.500817            0            0            0    8338.7006    228.61572    6464.1812    2924.4418    2268.8598     2269.384   -1447.6133    20.383438     19.95491    20.500817           90           90           90 
  105000    252.61333   -158.29185   -126.58594   -158.29185            0     2624.393    20.348856    20.213957    20.552271            0            0            0     8453.784    1329.8026    4974.2596    1569.1169    100.23238   -570.11247   -622.11654    20.348856    20.213957    20.552271           90           90           90 
  105500    263.78422   -158.96725   -125.85927   -158.96725            0    3069.4565    20.120538    20.361913    20.559161            0            0            0    8422.9371    6771.7161    88.591216     2348.062       1119.7   -1288.2551    52.737702    20.120538    20.361913    20.559161           90           90           90 
  106000    262.27918   -160.38451   -127.46543   -160.38451            0    4061.4013    20.126627    20.244108    20.588027            0            0            0    8388.5013    4619.4921     3578.463    3986.2487   -642.67532   -17.802347    1758.4451    20.126627    20.244108    20.588027           90           90           90 
  106500    251.97253   -158.85556   -127.23008   -158.85556            0   -940.75086    20.306218    20.163356    20.690287            0            0            0    8471.4621   -1158.2304   -2954.8524    1290.8302   -261.82926   -217.87414    591.21979    20.306218    20.163356    20.690287           90           90           90 
  107000    249.03702   -159.17171   -127.91468   -159.17171            0    3852.9492    20.291192    20.084538    20.583374            0            0            0    8388.5321     368.6307    8571.8046    2618.4122   -1783.9887   -1425.7934    2998.5926    20.291192    20.084538    20.583374           90           90           90 
  107500    255.02054   -159.57254   -127.56451   -159.57254            0   -770.28272    20.277506    20.307799    20.547363            0            0            0    8461.2298   -2001.6954    1030.5812    -1339.734    419.37542    1019.9924    2026.8596    20.277506    20.307799    20.547363           90           90           90 
  108000    257.76689   -158.73512   -126.38238   -158.73512            0     4432.892    20.223922    20.315477    20.535132            0            0            0     8437.036    3793.6722    5049.9774    4455.0262     2430.691   -642.13751   -3303.4167    20.223922    20.315477    20.535132           90           90           90 
  108500    261.71904   -159.05369   -126.20492   -159.05369            0    2887.0199    20.272107    20.006948    20.594389            0            0            0    8352.7339    2837.9985    3385.9708    2437.0905   -409.78868    4.7919134    1778.6664    20.272107    20.006948    20.594389           90           90           90 
  109000     255.9428   -159.66718   -127.54339   -159.66718            0    3180.8738    20.390789    19.974876    20.772939            0            0            0    8460.8905    2965.1335    4041.5643    2535.9235   -1217.5398   -1806.1241   -431.73864    20.390789    19.974876    20.772939           90           90           90 
  109500    247.25349   -157.84492   -126.81173   -157.84492            0    589.26204    20.194391     20.20594    20.750049            0            0            0    8466.9881    3854.7342    1185.0527   -3272.0008    1776.6945   -482.68418   -702.46807    20.194391     20.20594    20.750049           90           90           90 
  110000    256.52083   -159.50027   -127.30393   -159.50027            0    4772.8621    20.031733     20.29843    20.559216            0            0            0    8359.6388    5200.5508    6411.2526    2706.7829   -600.58724   -2417.4055    230.79124    20.031733     20.29843    20.559216           90           90           90 
  110500     242.7145   -159.74924   -129.28576   -159.74924            0    2740.9655    20.222273    20.295639    20.573694            0            0            0    8443.9367    1533.8864    5872.4373    816.57288   -1256.1901    2660.8873    1.5010343    20.222273    20.295639    20.573694           90           90           90 
  111000    257.59888    -159.5363   -127.20465    -159.5363            0    3217.3206    20.365339    20.226173    20.524811            0            0            0    8454.4338    5700.8912     2569.792    1381.2785    630.94097   -2515.2458    599.98824    20.365339    20.226173    20.524811           90           90           90 
  111500    264.16376   -160.48219   -127.32657   -160.48219            0    1095.0049    20.300248    20.157686    20.468101            0            0            0    8375.6703    -927.4196     2806.647    1405.7875   -27.278034     835.6255    2307.4059    20.300248    20.157686    20.468101           90           90           90 
  112000    251.83074   -159.54978    -127.9421   -159.54978            0    2227.4455    20.221595     20.16597    20.604887            0            0            0     8402.427    5339.4558      907.282     435.5986   -24.779645    661.39023   -1368.7336    20.221595     20.16597    20.604887           90           90           90 
[...]
  373000    243.42524   -161.43387   -130.88118   -161.43387            0    839.52728    20.236455    20.311824    20.697724            0            0            0    8507.5785    626.16905    36.790384    1855.6224     37.76389   -479.55402    34.916095    20.236455    20.311824    20.697724           90           90           90 
  373500    250.24201   -160.05672   -128.64845   -160.05672            0    3093.6738    20.186525    20.095089    20.575325            0            0            0    8346.3809    4545.6067    1393.4496    3341.9651    1583.0818     2271.914    2445.8151    20.186525    20.095089    20.575325           90           90           90 
  374000    260.09956    -159.3909   -126.74539    -159.3909            0    1817.3647    20.253711    20.141122     20.55631            0            0            0    8385.5858    113.59568    5326.9585    11.539862   -386.04522    3354.7381    -485.3155    20.253711    20.141122     20.55631           90           90           90 
  374500    261.44314   -157.54374   -124.72959   -157.54374            0    1693.4995    20.340978    20.406775    20.564716            0            0            0    8536.2851    626.55071    749.74443    3704.2034   -335.27663    1567.8906    1474.9454    20.340978    20.406775    20.564716           90           90           90 
  375000    264.69622   -158.34709   -125.12464   -158.34709            0    3501.8511    20.252576     20.44795    20.616457            0            0            0     8537.763    5467.8335    568.51808    4469.2017    312.42204    51.536766    881.58365    20.252576     20.44795    20.616457           90           90           90 
  375500    264.74713    -160.5664   -127.33757    -160.5664            0    9622.4347    19.997155      19.9192    20.570912            0            0            0    8193.9565    8416.1046    8768.8728    11682.327   -1658.7062     224.5347    622.12935    19.997155      19.9192    20.570912           90           90           90 
  376000    261.49178   -159.54111   -126.72086   -159.54111            0    180.02054    20.309407    20.053878    20.891786            0            0            0    8508.8562    837.50775    364.50911   -661.95524    435.31336   -973.18488   -498.41841    20.309407    20.053878    20.891786           90           90           90 
  376500    256.12836   -158.02025   -125.87317   -158.02025            0    604.59897    20.401661    20.204749    20.862114            0            0            0    8599.5813    353.74549    593.24342    866.80801   -1726.3602    1883.4067    45.856841    20.401661    20.204749    20.862114           90           90           90 
  377000    251.26336   -160.39557    -128.8591   -160.39557            0   -29.112864    20.159373    20.163648    20.660697            0            0            0    8398.2943    1449.4903    686.63903   -2223.4679   -569.10776   -91.470215   -1932.2975    20.159373    20.163648    20.660697           90           90           90 
  377500    252.49494   -160.68075   -128.98971   -160.68075            0    2458.1151    20.111265    20.192179    20.578184            0            0            0    8356.6003    5227.6803    2659.1733   -512.50836   -503.25483   -44.309296    3762.9836    20.111265    20.192179    20.578184           90           90           90 
  378000    259.03776   -160.24073   -127.72848   -160.24073            0    549.81482    20.269706    20.309366    20.568115            0            0            0    8467.1704    -744.3275    310.88826    2082.8837    544.22485    3167.6737   -1048.7511    20.269706    20.309366    20.568115           90           90           90 
  378500    252.90262    -160.4355   -128.69329    -160.4355            0   -2704.4986    20.366209    20.301938    20.581128            0            0            0    8509.7511   -6145.6697   -1715.8834   -251.94264    1458.3334     235.8407    1174.6968    20.366209    20.301938    20.581128           90           90           90 
  379000    248.19163   -158.66121   -127.51028   -158.66121            0    3101.9428    20.172229    20.127198    20.516355            0            0            0    8329.8547    164.07417    3369.4463    5772.3079   -1853.1331   -1194.2488    461.14074    20.172229    20.127198    20.516355           90           90           90 
  379500     254.5969   -160.48537   -128.53051   -160.48537            0    1479.6743    20.242593    20.174779    20.626293            0            0            0    8423.5686    575.69248     5435.604   -1572.2735   -415.06664     237.2755    -1473.203    20.242593    20.174779    20.626293           90           90           90 
  380000     252.8747   -160.63235   -128.89364   -160.63235            0    1688.3968    20.301748    20.270652    20.715148            0            0            0    8524.8977   -465.93151    2068.8562    3462.2656   -522.65885   -928.41719    3520.3614    20.301748    20.270652    20.715148           90           90           90 
  380500    248.61606   -160.16657   -128.96237   -160.16657            0    3157.1946    20.099871    20.134073    20.689965            0            0            0    8373.0687    3962.8539     5065.487    443.24279    1069.0739     98.99511    42.800511    20.099871    20.134073    20.689965           90           90           90 
  381000    250.31679   -160.41709   -128.99943   -160.41709            0    3028.4886    20.131437    20.114019    20.655102            0            0            0    8363.7489    5043.8929    3725.7265    315.84632   -235.96697   -1072.4575    -1005.284    20.131437    20.114019    20.655102           90           90           90 
  381500    266.08233   -158.31734   -124.92092   -158.31734            0    1881.9493    20.309107    20.299374    20.517829            0            0            0    8458.7245    834.49768    2082.8473    2728.5029   -275.96524    1024.8378    3237.0136    20.309107    20.299374    20.517829           90           90           90 
  382000    251.79245   -158.91438    -127.3115   -158.91438            0   -888.64838    20.385615    20.440601    20.531945            0            0            0    8555.5427   -159.74098   -1466.4295   -1039.7746   -728.24612   -157.59952    743.25104    20.385615    20.440601    20.531945           90           90           90 
  382500    275.72168   -159.60724   -125.00097   -159.60724            0    3680.8288    20.151763    20.111658    20.458332            0            0            0    8291.4625    4425.6884    3663.2804    2953.5177    734.77956   -574.50794     2829.736    20.151763    20.111658    20.458332           90           90           90 
  383000    253.87425   -158.49475   -126.63059   -158.49475            0    3978.6673    20.249077    20.139514    20.714396            0            0            0    8447.4666    2784.4744    4068.4106    5083.1169    989.20619   -1121.4925    410.03243    20.249077    20.139514    20.714396           90           90           90 
  383500    257.10165   -156.66485   -124.39561   -156.66485            0    1221.3304    20.342313    20.259775    20.805245            0            0            0    8574.4801    3016.8031   -440.75116    1087.9392    869.96394     992.5652   -33.524811    20.342313    20.259775    20.805245           90           90           90 
  384000     251.9199    -159.2559   -127.63703    -159.2559            0    3401.4643     20.21301    20.304067    20.583477            0            0            0    8447.5888    5673.0585    463.38464    4067.9499    -1446.819    2101.4432    2764.1546     20.21301    20.304067    20.583477           90           90           90 
  384500    261.61422   -161.10643   -128.27081   -161.10643            0    3793.8658    20.135686    20.220063    20.444564            0            0            0    8323.8987    4741.5911    4226.8828    2413.1236    690.98311    1398.1965    1867.9393    20.135686    20.220063    20.444564           90           90           90 
  385000    248.81657   -160.43219   -129.20282   -160.43219            0    1489.8294    20.268771    20.252497    20.554815            0            0            0    8437.6125    445.17522    2611.8634    1412.4496      954.802     2903.635   -762.07644    20.268771    20.252497    20.554815           90           90           90 
  385500    253.00585   -161.07563   -129.32046   -161.07563            0    2724.9943    20.329854     20.21566    20.626939            0            0            0    8477.2886    937.44819    7427.3766    -189.8418   -418.97453   -123.04609    2342.6824    20.329854     20.21566    20.626939           90           90           90 
  386000    246.76116   -159.02438   -128.05299   -159.02438            0    1248.0186    20.238113    20.223435    20.702147            0            0            0    8473.0607    3612.1853   -1237.7071    1369.5777   -788.62207    1175.8698    -1521.746    20.238113    20.223435    20.702147           90           90           90 
  386500    254.28916   -158.77387   -126.85763   -158.77387            0    5199.3439    20.115212    20.189683    20.627923            0            0            0    8377.4068    3148.1228    6977.5825    5472.3265   -258.94637    845.92495    364.30871    20.115212    20.189683    20.627923           90           90           90 
  387000    256.87238   -159.93169   -127.69122   -159.93169            0    -674.3089    20.272009     20.36723    20.673814            0            0            0    8535.9012   -3026.6845   -1323.0882    2326.8459    366.45381    1533.5115    1575.9795    20.272009     20.36723    20.673814           90           90           90 
  387500    250.74651   -158.61514   -127.14354   -158.61514            0     778.6619    20.313281    20.160896    20.552515            0            0            0    8416.9527   -750.56643    917.80342    2168.7487     798.7377   -892.41897   -1860.7576    20.313281    20.160896    20.552515           90           90           90 
  388000    251.72323   -161.34954   -129.75536   -161.34954            0    4989.2568    20.372347    20.037751    20.509396            0            0            0    8372.2638    458.72425    8046.1098    6462.9363    217.42421    1511.4944    3611.7368    20.372347    20.037751    20.509396           90           90           90 
  388500    247.45233   -161.18438   -130.12625   -161.18438            0    2837.4518    20.225422    20.119638    20.513254            0            0            0     8347.421    360.93223    5725.0515    2426.3717    2076.4617   -2492.0323   -3458.3936    20.225422    20.119638    20.513254           90           90           90 
  389000    245.58154   -160.16172   -129.33839   -160.16172            0    2350.1528    20.085875    20.416443    20.515083            0            0            0    8412.8686    2464.3443    2394.9061    2191.2081   -2353.2127    1220.5946    -1638.838    20.085875    20.416443    20.515083           90           90           90 
  389500    249.41029   -160.73514   -129.43125   -160.73514            0    3499.4795    20.158894    20.434311    20.584243            0            0            0    8479.3312    4514.6896    956.89744    5026.8515    1392.9561   -306.42253   -610.85027    20.158894    20.434311    20.584243           90           90           90 
  390000    247.60567   -161.24153   -130.16414   -161.24153            0    2860.7961    20.290736    20.038396    20.623829            0            0            0    8385.5212    4374.9307     5122.437   -914.97953   -667.06602   -1363.9486   -1427.0643    20.290736    20.038396    20.623829           90           90           90 
  390500    252.50849   -159.05352   -127.36078   -159.05352            0    2546.6419    20.321377    19.934172    20.641241            0            0            0    8361.5565    1210.1516    4043.0128    2386.7614   -698.39982    3646.1356   -907.44347    20.321377    19.934172    20.641241           90           90           90 
  391000    263.34459   -159.33528   -126.28248   -159.33528            0    3188.9082    20.309726     20.31784    20.753277            0            0            0    8563.8348    4835.0567    1037.4518    3694.2162    1362.6599    1220.4069   -2620.0073    20.309726     20.31784    20.753277           90           90           90 
  391500    269.82261   -157.89793   -124.03207   -157.89793            0    587.71574    20.117909    20.401898    20.690706            0            0            0    8492.3663    2108.5258    465.61534   -810.99396    175.96704    715.53952    68.039557    20.117909    20.401898    20.690706           90           90           90 
  392000    239.39448    -160.4119   -130.36511    -160.4119            0    408.63623    20.100022    20.183389    20.514162            0            0            0    8322.3198    584.91205     2078.309   -1437.3123   -1545.6041     122.9016    1233.4837    20.100022    20.183389    20.514162           90           90           90 
  392500    247.02631   -160.63103   -129.62636   -160.63103            0    2244.4057    20.356372    20.188651    20.522634            0            0            0    8434.1394    1481.0265    1954.2848    3297.9058    -1022.308   -1186.6497   -495.17852    20.356372    20.188651    20.522634           90           90           90 
  393000    249.54523   -158.40902    -127.0882   -158.40902            0     1051.563    20.399836    20.296771    20.596238            0            0            0    8527.8889    1298.8046    2501.7175   -645.83326   -391.06459    1164.5931    3655.9059    20.399836    20.296771    20.596238           90           90           90 
  393500    270.37455   -158.24399   -124.30885   -158.24399            0    5517.6476    20.162361    20.264372    20.661483            0            0            0    8441.8191    8132.1347    3255.3405    5165.4674    595.14648      762.234   -1511.9352    20.162361    20.264372    20.661483           90           90           90 
  394000    255.10359   -160.34614   -128.32768   -160.34614            0    5683.2101    20.056809    20.244425    20.729929            0            0            0    8417.1508    4178.0034    6664.4211    6207.2059    475.92601   -208.54501    1079.1884    20.056809    20.244425    20.729929           90           90           90 
  394500    244.70277   -159.54459   -128.83155   -159.54459            0    3999.8473    20.240567    20.184511    20.683329            0            0            0    8450.0904    4012.9938    6628.4613    1358.0868    1953.7015   -976.20599   -1847.3243    20.240567    20.184511    20.683329           90           90           90 
  395000    253.91796   -158.86612   -126.99647   -158.86612            0    2201.6198    20.328644    20.109597     20.55532            0            0            0    8403.0317    3073.7699    1122.7809    2408.3086    1155.1265   -1076.5776   -2089.6078    20.328644    20.109597     20.55532           90           90           90 
  395500    251.38316   -161.12716   -129.57566   -161.12716            0   -555.77613    20.291031    20.220287     20.44661            0            0            0    8389.0493   -5521.5396    4128.4808   -274.26955   -388.19023    1056.7465   -652.31038    20.291031    20.220287     20.44661           90           90           90 
  396000    253.17524   -161.03298   -129.25655   -161.03298            0   -1261.6322    20.215729    20.340754    20.506708            0            0            0    8432.4232     1762.694   -5938.1082     390.5175    725.93204    305.60617   -171.10618    20.215729    20.340754    20.506708           90           90           90 
  396500    243.51992   -160.76415   -130.19957   -160.76415            0    4589.9661    20.186729    20.256841    20.545181            0            0            0    8401.3223     5110.317    3520.5917    5138.9896    1020.7873   -2525.4964    3102.5849    20.186729    20.256841    20.545181           90           90           90 
  397000     261.7777   -161.09583   -128.23969   -161.09583            0   -1238.9869    20.258511    20.214037    20.659245            0            0            0     8460.091   -4321.0743    855.40452   -251.29105    635.05793   -1624.6985    724.12426    20.258511    20.214037    20.659245           90           90           90 
  397500    254.08535   -159.56207   -127.67141   -159.56207            0    3495.5644    20.288869    20.144289    20.733602            0            0            0    8473.9235    5717.0342     2361.719    2407.9401   -267.55206   -1975.6125    582.12651    20.288869    20.144289    20.733602           90           90           90 
  398000    254.21423    -159.4688   -127.56197    -159.4688            0    616.19393    20.210799    20.130005      20.7466            0            0            0    8440.6187    2880.5272    1147.2778   -2179.2232   -446.00204   -2855.4279     109.4322    20.210799    20.130005      20.7466           90           90           90 
  398500    256.03665   -159.47776   -127.34219   -159.47776            0   -656.72644    20.148106    20.285262    20.624312            0            0            0    8429.3546   -524.85119   -2177.0961    731.76794    438.22821    485.88932   -1590.4925    20.148106    20.285262    20.624312           90           90           90 
  399000    239.40672   -160.95955   -130.91123   -160.95955            0    1893.6631    20.203458    20.341292    20.466914            0            0            0    8411.1739   -2363.2779    2074.2307    5970.0365   -506.75792   -102.77416   -2534.0427    20.203458    20.341292    20.466914           90           90           90 
  399500    251.95206   -160.31902   -128.69611   -160.31902            0     5993.858    20.284908    20.245196    20.342378            0            0            0    8354.0435    5412.1514    7538.6355     5030.787    621.82048   -2437.6741    1175.3937    20.284908    20.245196    20.342378           90           90           90 
  400000    247.71274   -160.95773   -129.86691   -160.95773            0    3053.4508    20.340705    20.217517     20.51071            0            0            0    8434.7941    238.00248    5080.5187    3841.8312    -597.6808   -763.43708   -4852.6304    20.340705    20.217517     20.51071           90           90           90 
Loop time of 2407.99 on 1 procs for 400000 steps with 972 atoms

Performance: 7.176 ns/day, 3.344 hours/ns, 166.114 timesteps/s
70.9% CPU use with 1 MPI tasks x 1 OpenMP threads

MPI task timing breakdown:
Section |  min time  |  avg time  |  max time  |%varavg| %total
---------------------------------------------------------------
Pair    | 2142.2     | 2142.2     | 2142.2     |   0.0 | 88.96
Bond    | 0.074013   | 0.074013   | 0.074013   |   0.0 |  0.00
Neigh   | 237.26     | 237.26     | 237.26     |   0.0 |  9.85
Comm    | 9.5658     | 9.5658     | 9.5658     |   0.0 |  0.40
Output  | 1.9001     | 1.9001     | 1.9001     |   0.0 |  0.08
Modify  | 15.567     | 15.567     | 15.567     |   0.0 |  0.65
Other   |            | 1.404      |            |       |  0.06

Nlocal:        972.000 ave         972 max         972 min
Histogram: 1 0 0 0 0 0 0 0 0 0
Nghost:        4550.00 ave        4550 max        4550 min
Histogram: 1 0 0 0 0 0 0 0 0 0
Neighs:         0.00000 ave           0 max           0 min
Histogram: 1 0 0 0 0 0 0 0 0 0
FullNghs:      240798.0 ave      240798 max      240798 min
Histogram: 1 0 0 0 0 0 0 0 0 0

Total # of neighbors = 240798
Ave neighs/atom = 247.73457
Ave special neighs/atom = 0.0000000
Neighbor list builds = 40000
Dangerous builds not checked

unfix		3
unfix		2

write_data	data.final.${pid}
write_data	data.final.0
System init for write_data ...

write_restart   restart.lmp.${pid}
write_restart   restart.lmp.0
System init for write_restart ...
Total wall time: 0:40:11
