LAMMPS data file via write_data, version 29 Sep 2021, timestep = 400000

1920 atoms
2 atom types

-0.10633358573715235 24.83073858573801 xlo xhi
-0.06616989660080819 24.790574896600695 ylo yhi
-0.03469575125419233 22.827067751254468 zlo zhi

Masses

1 1.008
2 15.999

Atoms # full

4 0 1 0 2.5934858397741376 1.5812129953456353 2.0184017208815734 0 0 0
5 0 2 0 2.9363175410947635 1.3677409054715715 2.897640792663098 0 0 0
6 0 2 0 3.2250227305915633 2.1726321819348864 1.5973931373239314 0 0 0
17 0 2 0 0.8565395032369264 1.8347610831754535 2.4133263836370387 0 0 0
11 0 2 0 3.1147382866755398 3.9761524159468795 4.152189562873025 0 0 0
99 0 2 0 0.23165978931032444 3.9036166447286886 3.9672324203211033 1 0 0
387 0 2 0 3.6609168370844336 0.05614547114250555 0.9026549013482725 0 1 0
1 0 1 0 4.738120769251317 1.4433891759738442 4.2926102029554976 0 0 0
19 0 1 0 4.566017364846675 3.1925096370033006 0.8564892245652389 0 0 0
2 0 2 0 5.283528399602171 1.122642007340052 3.579266234859998 0 0 0
46 0 1 0 6.384984597566786 1.2627669131604498 2.0321755145156626 0 0 0
47 0 2 0 7.373334824539082 1.1842109161125118 2.0587899277433013 0 0 0
48 0 2 0 6.006220649934202 2.1108007549967858 1.7359360953936152 0 0 0
386 0 2 0 5.144179860563707 0.13945619914116733 1.187555908068028 0 1 0
45 0 2 0 7.16424777633989 3.271949330561694 4.331323617439301 0 0 0
20 0 2 0 5.134992138205172 2.82987545923055 0.1473365194150367 0 0 0
54 0 2 0 7.565776964118389 4.065959207913889 0.8271227875820509 0 0 0
32 0 2 0 11.503904522534087 1.4829317560519921 3.693064826215207 0 0 0
34 0 1 0 9.095696154638635 1.3010861846751967 1.9384357050940253 0 0 0
35 0 2 0 9.5428206191919 1.3078036924168241 2.784911121658098 0 0 0
36 0 2 0 9.467126972711563 2.098480323169323 1.5704608738339159 0 0 0
51 0 2 0 11.52880184638665 2.984127592349572 1.073722656478388 0 0 0
49 0 1 0 10.702456438906319 3.305051234895333 0.7199907572580831 0 0 0
31 0 1 0 10.725091826916785 1.319225484878058 4.225509713299767 0 0 0
78 0 2 0 12.1447175553431 0.6339384486763503 1.743259662069176 0 0 0
42 0 2 0 9.132928635918578 4.022113569864742 3.8725589867478236 0 0 0
416 0 2 0 10.159528503178997 -0.00047934597302086435 1.1030501331346365 0 1 0
76 0 1 0 12.545766553128654 1.4135576061081772 2.1691593806336353 0 0 0
64 0 1 0 15.23685281899209 1.3566543088907101 2.2591951889632833 0 0 0
65 0 2 0 15.944354771067017 1.407416792828209 2.982205371803898 0 0 0
66 0 2 0 15.667970939297101 0.7431221664389431 1.6057177290671523 0 0 0
77 0 2 0 13.493854119393367 1.1844494520131892 2.2461075611610166 0 0 0
80 0 2 0 16.187068564905097 2.6913090568053875 0.9430900367644794 0 0 0
38 0 2 0 12.588059280554424 3.777986410124386 3.665258555422034 0 0 0
62 0 2 0 17.928804108551233 1.2300362377104572 3.781823876221101 0 0 0
79 0 1 0 17.016730784677662 3.031302132747423 0.6093261125123488 0 0 0
106 0 1 0 18.61660558355709 1.4019218184325704 2.251263253994218 0 0 0
107 0 2 0 19.59091926597341 1.394814597529754 2.2012711610044446 0 0 0
108 0 2 0 18.34514306369615 2.123022474368842 1.6997760284054788 0 0 0
61 0 1 0 17.149923073016964 1.397074011266929 4.407560815949369 0 0 0
446 0 2 0 17.86455168093493 0.12880875272627934 0.9508493464942441 0 1 0
68 0 2 0 18.65209519987718 3.906184379755797 3.981766816369979 0 0 0
1545 0 2 0 20.151499503671666 3.0255408859243307 0.012598355310936817 0 0 1
16 0 1 0 24.829938743526263 1.7679528588801232 2.402987767273455 -1 0 0
105 0 2 0 20.78487395870564 3.4007337853707797 4.340038942248818 0 0 0
18 0 2 0 24.600427939347057 0.9540757968372411 1.9437382395998095 -1 0 0
92 0 2 0 23.892869160608484 1.7146858949712045 3.7914077792034178 0 0 0
94 0 1 0 21.432585087433004 1.4288011806386438 2.2143364498208706 0 0 0
95 0 2 0 21.93349599093714 1.5170741938282795 3.0311724245932417 0 0 0
96 0 2 0 21.79724387639618 2.1390586917579872 1.6791512413481586 0 0 0
110 0 2 0 23.896003186641103 2.864328320052029 1.5938285610915877 0 0 0
109 0 1 0 23.242327080509753 3.217162216944447 0.9569843518249229 0 0 0
91 0 1 0 23.145188133243366 1.7094853544593884 4.444733793767548 0 0 0
476 0 2 0 22.524332157501718 0.154780820049752 1.265504299341071 0 1 0
10 0 1 0 3.4239545749381546 4.635982011486726 3.5015366308990483 0 0 0
22 0 1 0 1.3369399141810747 4.443540102809625 1.5326053318681068 0 0 0
23 0 2 0 1.320024701330795 5.248477946587228 1.0201248995218717 0 0 0
24 0 2 0 2.0351185571728245 4.565657115429109 2.1650127185453787 0 0 0
124 0 1 0 2.6958475562348236 7.506673781163698 2.187829609112631 0 0 0
126 0 2 0 1.6573067192848971 7.585556491030577 2.2064800769368897 0 0 0
27 0 2 0 3.737674774526188 6.059815487316741 1.3590272784651425 0 0 0
122 0 2 0 3.8249959751978175 7.932778678201114 3.5748761672926292 0 0 0
98 0 2 0 0.0024420244513393558 4.7005180825017625 2.7241982317711857 1 0 0
136 0 1 0 0.026693837527121067 7.548834090889242 2.165331428024678 0 0 0
150 0 2 0 0.9131835242564081 5.815898573222829 4.497014952770631 0 0 0
138 0 2 0 0.020738378882063008 6.932359363898641 1.4014209388104597 0 0 0
21 0 2 0 4.551967421477049 4.205913635696133 0.7125610371484989 0 0 0
12 0 2 0 4.404138149931748 4.668944063584157 3.5441290533889718 0 0 0
25 0 1 0 4.536017748354306 5.843082028483557 0.8284681497895722 0 0 0
7 0 1 0 5.979738934169731 4.667742076754882 3.705347490787809 0 0 0
8 0 2 0 6.528034000694296 4.696952598448336 2.8906966000825323 0 0 0
52 0 1 0 7.538971968471761 4.790493551871607 1.4705090001860932 0 0 0
168 0 2 0 5.832816678682881 6.982700551484122 1.8307094624242524 0 0 0
9 0 2 0 6.261132795921336 5.451089558170694 4.167677481930061 0 0 0
166 0 1 0 6.205627943954013 7.929909360008488 1.8298533566431654 0 0 0
167 0 2 0 5.877858407249606 8.074863218925906 2.758718519016351 0 0 0
121 0 1 0 4.555601233061615 7.94828138509536 4.208720027552518 0 0 0
156 0 2 0 8.036107789505765 7.777213861747558 2.2361894318670896 0 0 0
26 0 2 0 4.403400212191565 6.2689216528637255 0.021325537677721412 0 0 0
50 0 2 0 10.861421093761491 4.297305712271573 0.6684284638437401 0 0 0
53 0 2 0 8.318008992904982 4.686217708874587 2.016735279025115 0 0 0
41 0 2 0 10.458077856458337 4.484457266681611 3.2593099664245546 0 0 0
40 0 1 0 9.496096406676022 4.596166289535916 3.225140767378217 0 0 0
55 0 1 0 10.689753879087322 5.984065235982663 0.9606137217192299 0 0 0
56 0 2 0 10.014308061416259 6.489137875216954 1.4556795877190118 0 0 0
57 0 2 0 11.542458727929334 6.372180488765023 1.1234891941313558 0 0 0
153 0 2 0 11.781179394078723 7.676977492778953 3.6709555207272033 0 0 0
154 0 1 0 8.982786527212538 7.82181257532944 2.4237063476965908 0 0 0
152 0 2 0 10.295743181362996 7.401369448724432 3.6267535186554234 0 0 0
37 0 1 0 12.265575238625702 4.614486949697901 3.2923913675941927 0 0 0
180 0 2 0 8.48808719434301 6.295474189386648 4.303822416073269 0 0 0
151 0 1 0 11.05397696958797 7.481188282112307 4.307877224962879 0 0 0
196 0 1 0 12.623213474060796 7.843803465998139 1.903047861302743 0 0 0
83 0 2 0 13.517469112585111 4.531501533573802 1.8755755769402196 0 0 0
39 0 2 0 12.756686918943982 5.329128927608983 3.7256581626903653 0 0 0
72 0 2 0 15.138380740983479 4.57840288270657 2.730955525054381 0 0 0
70 0 1 0 15.563568115636304 4.5588948503943 3.599322709195943 0 0 0
82 0 1 0 14.193329823876013 4.7104008236744335 1.1630833602669821 0 0 0
84 0 2 0 13.891997918992821 5.639443263041621 0.8653655237538733 0 0 0
71 0 2 0 15.192346529837186 5.332461634425085 4.094681699529898 0 0 0
186 0 2 0 15.767793784093435 7.974191713428059 2.7245941286735524 0 0 0
184 0 1 0 15.385482519945514 7.726168998803551 1.8366543132134865 0 0 0
198 0 2 0 13.575804423544726 8.032417410826836 1.8488757671971499 0 0 0
86 0 2 0 16.198020230284513 6.240949885733059 0.9000565744980152 0 0 0
69 0 2 0 17.305888216292104 4.512989074346957 3.52940206420233 0 0 0
112 0 1 0 19.87931617652505 4.23724792818372 1.2804546471687623 0 0 0
113 0 2 0 19.08909842504208 4.1121731478399 1.8406095744582869 0 0 0
67 0 1 0 18.29224300988694 4.660509875525039 3.4512568952526963 0 0 0
85 0 1 0 16.94158505666092 5.851905245221344 0.390907235387186 0 0 0
87 0 2 0 16.835971116500232 4.887230439401752 0.5688465397704552 0 0 0
226 0 1 0 18.780934753404253 7.642054469764178 1.8037313602860952 0 0 0
228 0 2 0 18.23952041885417 6.899351767785034 1.5843539830666513 0 0 0
183 0 2 0 17.913871383642565 7.974631330485735 3.5903278968950714 0 0 0
181 0 1 0 17.016866066854682 7.897684648268573 4.098962020245348 0 0 0
240 0 2 0 19.28745017535762 6.03955185578341 4.126398784988891 0 0 0
114 0 2 0 20.637449114027746 4.349740154519753 1.905099761834431 0 0 0
1679 0 2 0 19.99180482380931 5.643063145380504 -0.014651675512516501 0 0 1
216 0 2 0 20.719210163883787 7.588159867123934 1.802133643897023 0 0 0
111 0 2 0 23.362468640681676 4.22871268801131 1.062345458905982 0 0 0
137 0 2 0 24.43926357942103 7.185152275677854 2.9603081162624347 -1 0 0
97 0 1 0 24.589913447432018 4.6116901192506985 3.6502637724670586 0 0 0
102 0 2 0 22.784435699996955 4.432448334585124 3.7216774005180353 0 0 0
100 0 1 0 21.816254374669278 4.50195158524221 3.6138453861363056 0 0 0
101 0 2 0 21.534964617260783 5.312703780359535 4.004947815408522 0 0 0
115 0 1 0 23.34826853674315 5.927059805920966 0.678527477105324 0 0 0
116 0 2 0 22.785970810965182 6.643632446389373 1.0984863930145687 0 0 0
214 0 1 0 21.75604304154117 7.620451330129016 1.8846992921754315 0 0 0
213 0 2 0 22.425629305376347 7.593043236964594 3.6521762479518727 0 0 0
211 0 1 0 23.11384371756597 7.442402348825267 4.3149806909083654 0 0 0
125 0 2 0 2.9201463146619413 8.222104232153931 1.5713010066948576 0 0 0
130 0 1 0 3.004445803025447 11.08628741875503 3.8154722309312783 0 0 0
132 0 2 0 2.6940802353007167 11.80787922256287 4.3589690038064 0 0 0
142 0 1 0 1.3300084379695762 11.068515588750287 1.6207542987322718 0 0 0
143 0 2 0 1.9996405098076258 11.13703047219371 2.279110604868692 0 0 0
144 0 2 0 1.6025224177055377 10.30172582974767 1.0599416913810844 0 0 0
219 0 2 0 0.0870298716971605 10.862449645799341 2.837491809422794 1 0 0
218 0 2 0 0.2149202300708581 10.144646713287562 4.18342441623566 1 0 0
131 0 2 0 3.988268153150348 11.202386729619764 3.871471846511623 0 0 0
1709 0 2 0 1.5654310675902219 12.14914250204675 0.13706964555039045 0 0 1
269 0 2 0 0.5020959420301707 12.28339419636357 4.482596767981997 0 0 0
141 0 2 0 4.445950516375222 10.491348964057762 0.9793633041726835 0 0 0
139 0 1 0 4.372720568953305 9.568591427477314 0.6088293982350229 0 0 0
127 0 1 0 5.769882293429121 11.029554368250686 3.653818624604762 0 0 0
129 0 2 0 6.262487147359641 11.066386595889252 2.8010331364475656 0 0 0
140 0 2 0 5.127898854613491 9.194164391140445 1.0438624878867022 0 0 0
173 0 2 0 7.607318814590058 10.142213253896763 0.8078398257439001 0 0 0
172 0 1 0 7.529627377070394 11.029731303620832 1.2817433035442451 0 0 0
128 0 2 0 6.124550398150153 10.242151336407854 4.0763560064819435 0 0 0
155 0 2 0 9.432997146851244 8.600658237611087 2.1611146673004837 0 0 0
197 0 2 0 12.075609454302478 8.663000255486763 1.7456100419818208 0 0 0
174 0 2 0 8.225678857781109 11.049449491831927 1.9468527255476307 0 0 0
160 0 1 0 9.011990860019928 11.0466527528515 3.4852089541005067 0 0 0
161 0 2 0 9.940850413141014 11.090976900230379 3.686870837596598 0 0 0
169 0 1 0 10.611628678057485 9.531346500207885 1.1087559115855252 0 0 0
171 0 2 0 10.563440232249796 10.529739400415817 0.9644665554009346 0 0 0
162 0 2 0 8.560490880003316 11.771387359180599 3.9658868606810804 0 0 0
157 0 1 0 12.244843860318177 11.253969837344858 3.46027091445858 0 0 0
170 0 2 0 10.407046559227375 9.106146871701503 0.2588072363807339 0 0 0
159 0 2 0 12.741386477271618 11.117090483587612 2.6065048645518534 0 0 0
185 0 2 0 15.830602268779645 8.352601651796105 1.266418130633833 0 0 0
158 0 2 0 12.53337871822739 10.372662082748745 3.8712893094100194 0 0 0
190 0 1 0 15.657338110175399 10.622559333394465 3.4669789821048798 0 0 0
192 0 2 0 15.250583059811387 10.77741473202944 2.594903844688311 0 0 0
202 0 1 0 13.7931226826812 11.088472534281857 1.3617505960387681 0 0 0
203 0 2 0 14.05154654305167 11.812739152499036 0.7472164160711366 0 0 0
204 0 2 0 13.531310409198664 10.334142269562841 0.8066823419025025 0 0 0
194 0 2 0 14.566559995267609 9.62091940402484 4.194979368831346 0 0 0
191 0 2 0 16.60680748453357 10.826276724940932 3.3428169541702952 0 0 0
227 0 2 0 18.341907814918294 8.462449196971127 1.426738789693888 0 0 0
205 0 1 0 16.799915752095707 12.21525312156681 0.9082549393925696 0 0 0
199 0 1 0 17.019603137075272 9.455452248669857 0.617536139333516 0 0 0
200 0 2 0 16.86562314172874 10.410821203609197 0.7656920782736389 0 0 0
187 0 1 0 18.37190161465533 10.836085290907969 3.1566213146777558 0 0 0
189 0 2 0 18.91698976206844 10.835159340152234 2.3534629508333853 0 0 0
232 0 1 0 20.28032569375732 11.091696182630242 1.478477578877518 0 0 0
188 0 2 0 18.79469727136739 10.147771039475261 3.6487781047684726 0 0 0
234 0 2 0 20.524930000233546 10.414045204964985 0.8246673088502033 0 0 0
207 0 2 0 17.77068586997668 12.305632612376995 1.1084449159170489 0 0 0
359 0 2 0 19.162083505901222 12.108168010762665 4.290656617183185 0 0 0
223 0 1 0 20.07171878117061 9.141389961827663 4.537291757473274 0 0 0
1800 0 2 0 20.556066596372666 12.266411097944323 0.005934696830073756 0 0 1
215 0 2 0 21.97730494104607 8.4691239985795 1.38380383329054 0 0 0
225 0 2 0 20.869948139625066 9.569484660957686 4.172599127720021 0 0 0
233 0 2 0 20.99714750620381 11.05635142083955 2.146714979164757 0 0 0
217 0 1 0 24.583204895760026 10.749300049638517 3.7044577275867803 0 0 0
220 0 1 0 21.99870480798686 10.775028382035478 3.5358975025893926 0 0 0
221 0 2 0 22.93968029891169 10.687564526339344 3.674755981943099 0 0 0
229 0 1 0 23.477270012918538 9.442376087069984 0.6028841248939513 0 0 0
230 0 2 0 24.277537825671878 9.125646866776309 1.069586748231874 0 0 0
231 0 2 0 23.48225619544447 10.437706095444389 0.6247648783867042 0 0 0
222 0 2 0 21.691300751935636 11.59577629304694 3.9760612661772905 0 0 0
235 0 1 0 23.422580289682223 12.067203874495036 0.8225324633886488 0 0 0
244 0 1 0 2.999606176960901 14.286918190562808 2.4129763549801444 0 0 0
245 0 2 0 2.0718344003429 14.316026816448757 2.3754252670126195 0 0 0
246 0 2 0 3.232171711422837 13.493981360339909 1.8483928915244736 0 0 0
242 0 2 0 3.9799892952109417 13.968938390950264 4.012394989611623 0 0 0
256 0 1 0 0.2620521388599545 13.992157909087659 2.0591334589136103 0 0 0
251 0 2 0 3.1994431322323416 16.48116329401063 4.059790541956959 0 0 0
1694 0 2 0 1.4495126598866048 15.884652721339217 0.22732882552576056 0 0 1
145 0 1 0 4.235059169127261 12.411025080538412 0.7942811392251812 0 0 0
147 0 2 0 5.079890619232563 12.613535621885294 1.2206879155107284 0 0 0
260 0 2 0 4.289715468079186 15.071867085195448 1.4711083374284424 0 0 0
259 0 1 0 4.911771468835056 15.645548309165434 0.9740570243849793 0 0 0
286 0 1 0 6.458923699984328 13.946208529217381 2.3320637213504245 0 0 0
287 0 2 0 6.117131159287177 14.159817923020833 3.2173045201002655 0 0 0
288 0 2 0 6.0904745634229425 14.681705744191008 1.8496131700077982 0 0 0
276 0 2 0 8.089133068808344 14.115439432320462 2.1020460564792214 0 0 0
248 0 2 0 6.739778599447751 16.397588394661447 4.274716819429489 0 0 0
300 0 2 0 6.805817857755035 12.499188488450123 4.480554119724526 0 0 0
1725 0 2 0 7.511937773108828 15.92936497291587 0.1487872498125476 0 0 1
261 0 2 0 4.984017543340003 15.200986556177874 0.0756287966321777 0 0 0
175 0 1 0 10.784229274663145 12.502378670344662 0.9302705330525852 0 0 0
176 0 2 0 10.044002045847819 12.978317485588654 1.3197632370907058 0 0 0
272 0 2 0 11.425855180604266 14.07027814217562 3.892349764851516 0 0 0
274 0 1 0 9.0589836464387 14.294171825838951 2.0216753890524366 0 0 0
275 0 2 0 9.39413910214553 14.344618758401028 2.9036985296327176 0 0 0
289 0 1 0 10.886400656086327 15.787583743194823 0.6743888833443924 0 0 0
291 0 2 0 10.030089070700887 15.73733917179771 1.1615279602259614 0 0 0
318 0 2 0 12.2333487865966 13.305492019777576 1.9452093328676188 0 0 0
317 0 2 0 12.14332214312312 14.822645331224617 1.759609955575756 0 0 0
177 0 2 0 10.920774451956785 12.796497897579243 0.009079377230930948 0 0 0
316 0 1 0 12.634034276810128 14.135960342605568 2.2084538784310683 0 0 0
304 0 1 0 15.422070062546176 13.920999895324305 2.3675974234700825 0 0 0
305 0 2 0 14.453278416397309 14.0897833321579 2.2672537795149466 0 0 0
306 0 2 0 15.419728396080739 13.032797074528448 1.9380050074490431 0 0 0
311 0 2 0 15.386823241129461 16.34435874815592 4.0621850484091135 0 0 0
1754 0 2 0 13.884514614105044 15.774067722710154 -0.030990514220462728 0 0 1
320 0 2 0 16.647820208631465 15.446020115647565 1.451064669023215 0 0 0
302 0 2 0 16.558817060614523 13.352906002326716 3.786069383366671 0 0 0
319 0 1 0 17.260605952982374 15.665936218084775 0.7842970766074187 0 0 0
346 0 1 0 19.05976464586864 14.084316410799525 1.9883190112837008 0 0 0
347 0 2 0 18.443111119891384 14.664342001139334 1.55862674362355 0 0 0
348 0 2 0 18.535178456900383 13.827191182236977 2.7757810918638253 0 0 0
301 0 1 0 17.28363220187311 13.55466297342333 4.391191761690584 0 0 0
345 0 2 0 20.617416732159775 15.464528339883621 4.526459862009285 0 0 0
206 0 2 0 16.682950379598466 12.653757205047253 0.08260249655017506 0 0 0
1784 0 2 0 20.3745294261615 15.695703963091624 0.18997121294445096 0 0 1
309 0 2 0 18.513675257991608 16.186402985437912 3.9711790004133194 0 0 0
257 0 2 0 24.526563773862776 14.118750541070128 2.7909267201855417 -1 0 0
335 0 2 0 20.818494542255962 13.83164973872391 1.9899846130655479 0 0 0
258 0 2 0 24.817873828057145 13.280079801661245 1.5750889377719015 -1 0 0
237 0 2 0 22.625093491438747 12.367855389054753 1.2839103260214257 0 0 0
332 0 2 0 22.653243042165812 13.669023684964152 3.652375240480165 0 0 0
334 0 1 0 21.773535474904563 13.67877236930716 1.9771472145306088 0 0 0
336 0 2 0 22.14032243659957 14.442287320507385 1.503296815542479 0 0 0
349 0 1 0 23.182955845248692 15.469299179798952 0.6338597200685883 0 0 0
350 0 2 0 24.022237235572014 15.347114449360502 1.1374876456096397 0 0 0
331 0 1 0 23.334421619758224 13.821693910193654 4.305519382850276 0 0 0
351 0 2 0 23.232006834597406 16.44158172914094 0.5783230254876458 0 0 0
264 0 2 0 0.9136771634537617 16.900915252298628 2.3128023586800555 0 0 0
263 0 2 0 2.3681311219141983 16.87575976960335 2.224432702037731 0 0 0
250 0 1 0 3.478367134528663 17.21754348097682 3.5327179255088734 0 0 0
262 0 1 0 1.616599857317675 17.15261537095239 1.7012789022066992 0 0 0
364 0 1 0 2.844164464150488 20.26591587901512 2.00997234493077 0 0 0
366 0 2 0 1.9280247413443488 20.377612378719927 1.7658077484796768 0 0 0
376 0 1 0 0.09181682707760083 20.024223567177323 2.0919132474126054 0 0 0
267 0 2 0 3.9215791777442153 18.732203836631857 1.3672678119626638 0 0 0
363 0 2 0 4.0312731243285835 20.063572124049536 3.6401371300308956 0 0 0
390 0 2 0 2.197978492104791 18.390866735885414 4.2778981737036545 0 0 0
338 0 2 0 0.08565211778063603 17.77945415405899 3.9177588326808714 1 0 0
378 0 2 0 -0.013945529852499708 20.00507031766232 3.017487498246386 0 0 0
1829 0 2 0 1.756316622143436 18.386022866995976 0.2687756196600774 0 0 1
252 0 2 0 4.459283474997661 17.122729319925096 3.471142322289763 0 0 0
265 0 1 0 4.682549919379331 18.46553131426394 0.828543358103505 0 0 0
247 0 1 0 6.222232193814864 16.98047048981722 3.6930971566096926 0 0 0
266 0 2 0 4.676500998500447 17.460566412622363 0.8133692596468303 0 0 0
249 0 2 0 6.52877805283696 16.89668973256476 2.763303906701313 0 0 0
406 0 1 0 6.570837778293182 20.109553210803572 2.041244495223288 0 0 0
408 0 2 0 6.242393573298389 19.333415411850023 1.601259177737698 0 0 0
407 0 2 0 6.2027349879617955 20.10378966376885 2.9591866181027626 0 0 0
294 0 2 0 7.949896530550998 18.006164501395183 1.039380392467814 0 0 0
292 0 1 0 7.7909222852280555 17.071452092428697 1.3550546260023666 0 0 0
361 0 1 0 4.560307745469895 20.12791710659911 4.4201365159215635 0 0 0
290 0 2 0 11.041582732984615 16.766444733992344 0.6859894259002189 0 0 0
395 0 2 0 8.238624731501357 20.130032587990613 2.121099841855776 0 0 0
293 0 2 0 8.322972495812202 16.955283614238592 2.146975217288268 0 0 0
280 0 1 0 9.612221883332385 16.87619405248632 3.870898403396059 0 0 0
278 0 2 0 11.342782653582006 16.780338577267088 3.7561908679720597 0 0 0
295 0 1 0 11.141178771297902 18.458770858019054 0.9808086614449798 0 0 0
296 0 2 0 10.400049695383434 18.95039918153519 1.3941215519912786 0 0 0
396 0 2 0 9.398277292082867 20.05530864585328 3.184235466810526 0 0 0
394 0 1 0 9.197478818179452 20.015499031768627 2.189507216802047 0 0 0
282 0 2 0 9.3858969422456 17.81748639513642 3.9212957291014368 0 0 0
393 0 2 0 11.415888700117993 19.911513890587244 3.909786415942672 0 0 0
277 0 1 0 12.33733587290358 16.833335037997994 3.703332104372575 0 0 0
297 0 2 0 11.20057294379173 18.946263938384615 0.17273947429957917 0 0 0
279 0 2 0 12.633995207990571 17.685634583205584 4.157464695879862 0 0 0
437 0 2 0 12.373028479643573 19.544510939093396 1.8877538587017038 0 0 0
324 0 2 0 14.528013196560517 17.02112427577328 1.7876185733129994 0 0 0
436 0 1 0 12.565359410372263 20.39621701376022 2.3414441589896504 0 0 0
323 0 2 0 12.968482781453117 17.033352520191045 1.748631433285784 0 0 0
322 0 1 0 13.759633537433377 17.01320784643289 1.1695344772569929 0 0 0
310 0 1 0 15.658438204651322 17.12600370662625 3.548767811547689 0 0 0
424 0 1 0 15.27907947575164 20.160270347248357 2.068987671656495 0 0 0
312 0 2 0 15.298923266945115 17.975895254968457 3.893293102079834 0 0 0
425 0 2 0 14.3750787059905 20.50232149102214 2.1486514910877843 0 0 0
1890 0 2 0 13.895540022169966 18.4173127585562 0.046913417063576865 0 0 1
326 0 2 0 16.433821699169243 18.85984741703076 1.0789706159565944 0 0 0
423 0 2 0 16.492116610073637 20.1283682893429 4.000988225519473 0 0 0
321 0 2 0 17.219061334364007 16.629961079252933 0.7766250004938572 0 0 0
308 0 2 0 17.434607336492228 17.11687383549394 3.5105719128738357 0 0 0
325 0 1 0 17.120544129675473 18.407195934929586 0.5672281497989663 0 0 0
353 0 2 0 19.548759503456786 16.947680433193366 1.8875520386147433 0 0 0
307 0 1 0 18.413845735346285 17.059910412499665 3.6158074428589897 0 0 0
466 0 1 0 19.030098851922773 19.896995794174497 2.2238614418283427 0 0 0
468 0 2 0 18.478787778237525 19.187983940059187 1.7639525142810735 0 0 0
352 0 1 0 20.412073513594883 16.72499036406666 1.5171019173879607 0 0 0
467 0 2 0 18.696774198699465 20.02488769130865 3.1525537274251776 0 0 0
354 0 2 0 20.512428946083787 17.481577504883244 0.8660308704128107 0 0 0
480 0 2 0 19.293843498073493 18.427525011136943 4.40151807290968 0 0 0
455 0 2 0 20.67085544028246 19.98750767584745 2.3018074955977488 0 0 0
337 0 1 0 24.57959433976508 16.99095798864223 3.635033304377674 0 0 0
342 0 2 0 21.539555295778136 16.71083156437956 2.982447847228519 0 0 0
340 0 1 0 21.916953809601452 16.741832948513416 3.8657765155246264 0 0 0
339 0 2 0 23.605150202190046 17.20705414951055 3.699663732337756 0 0 0
355 0 1 0 23.33269035497817 18.28776706485748 0.6733393962154572 0 0 0
356 0 2 0 23.8988152535506 18.688689122205815 1.368366390945893 0 0 0
454 0 1 0 21.542823024315545 19.631100881760123 2.2671503543611817 0 0 0
456 0 2 0 21.74397547408646 19.280062476976678 1.402300798911554 0 0 0
341 0 2 0 21.342708685476097 17.45057095432745 4.111741484930222 0 0 0
453 0 2 0 22.736414574342284 20.080548105869457 3.64902122314153 0 0 0
451 0 1 0 23.413152853599954 20.168556882215 4.362562405906332 0 0 0
365 0 2 0 3.3151809530427 21.001907372319447 1.5600550532442432 0 0 0
29 0 2 0 0.6366002408107533 24.7730056297265 4.306398904489212 0 -1 0
370 0 1 0 3.116910040544366 23.436478345999827 3.4024349814584096 0 0 0
371 0 2 0 2.668223936598587 23.231267492755727 2.5855288308105417 0 0 0
382 0 1 0 1.2392819945165954 23.20550154325606 1.235156764021768 0 0 0
383 0 2 0 1.4805108818947186 22.496989262428738 0.600248956414454 0 0 0
384 0 2 0 1.250375748770662 23.97894503267173 0.5856044251482538 0 0 0
372 0 2 0 2.6171825449424824 24.219658543927938 3.716296317029103 0 0 0
459 0 2 0 0.12103477905332971 23.342595589671735 2.521768718196478 1 0 0
458 0 2 0 0.18856898507044856 22.676852114260896 3.894231574345358 1 0 0
385 0 1 0 4.489651520393402 24.526346663741283 0.6477775324144175 0 0 0
367 0 1 0 5.843869284913695 23.37023664819384 3.4763938929217395 0 0 0
368 0 2 0 4.9335957214253146 23.52485272068874 3.44541844400197 0 0 0
379 0 1 0 4.608481017797161 21.76543285017483 0.7959700826294881 0 0 0
380 0 2 0 5.378253923015441 21.40149890671317 1.290134822631015 0 0 0
381 0 2 0 4.7331727935085794 22.743533286529022 0.7566500360337686 0 0 0
414 0 2 0 7.022694530314134 23.48274408240833 1.8928911381387121 0 0 0
412 0 1 0 7.79121495030216 23.308579762521124 1.3617037093898123 0 0 0
413 0 2 0 7.948318208265082 24.085632279489914 0.8605425390409303 0 0 0
369 0 2 0 5.867751348555822 22.56588442766447 3.9792814182169938 0 0 0
1845 0 2 0 7.875996708894671 21.65468076541361 0.12338435913038467 0 0 1
438 0 2 0 12.078144955171249 20.935065895445554 1.7542667314232248 0 0 0
415 0 1 0 10.928864367925542 24.46615311280306 0.6346031856135088 0 0 0
400 0 1 0 9.141499549108875 23.198442462408956 3.702909152872838 0 0 0
401 0 2 0 10.088622906717692 23.105600136137312 3.594484342960893 0 0 0
402 0 2 0 8.715923954971496 23.240419279097875 2.813871637349016 0 0 0
409 0 1 0 10.87456907090918 21.768802785364755 0.7037074170965739 0 0 0
410 0 2 0 10.09096607183245 21.620900701468976 1.2674259929482552 0 0 0
411 0 2 0 11.03369885867995 22.734424202292228 0.5958377530260349 0 0 0
397 0 1 0 12.093758249076537 23.065590822189193 3.6809840335131123 0 0 0
59 0 2 0 8.44111799969913 24.739518778102042 4.45912108529422 0 -1 0
90 0 2 0 14.536012741627815 24.525205861092655 4.374571354808267 0 -1 0
399 0 2 0 12.516266157676334 23.094950033489997 2.815671002454146 0 0 0
398 0 2 0 12.466289344844165 23.866912578979882 4.046790734479999 0 0 0
426 0 2 0 15.7758107377881 20.868241454583735 1.6054341372807972 0 0 0
430 0 1 0 15.363018273780385 23.062397633044487 3.589509467440851 0 0 0
442 0 1 0 13.939842948501928 23.43495441982898 1.2778238552813783 0 0 0
443 0 2 0 14.738703760525908 23.39270306625162 1.7933914988296145 0 0 0
444 0 2 0 14.059415072921746 24.151011876823837 0.57996765379158 0 0 0
431 0 2 0 15.148088598205403 22.512184780295097 4.322514325819186 0 0 0
432 0 2 0 16.337819522241205 23.224206737310695 3.581347459490635 0 0 0
1875 0 2 0 14.052574938090483 22.191138981572866 -0.01286717835815665 0 0 1
435 0 2 0 13.132437131440959 21.588004140768795 4.442741280715997 0 0 0
445 0 1 0 17.136761979853382 24.526669106676003 0.47521276539754864 0 0 0
447 0 2 0 17.24195809777342 23.553912645151865 0.7324762347564998 0 0 0
439 0 1 0 17.077514918528657 21.644294836306024 0.6675848551241662 0 0 0
427 0 1 0 18.18610455395781 23.351857877582198 3.4474138971617725 0 0 0
428 0 2 0 18.612155880859355 22.56489698576189 3.8727251486609484 0 0 0
440 0 2 0 17.87977816252915 21.30817305420001 1.1099672011391981 0 0 0
473 0 2 0 20.151162423112716 23.712915158458273 0.7185239574425869 0 0 0
474 0 2 0 19.484798078665428 23.21867068661527 2.082632682172212 0 0 0
429 0 2 0 18.679943457139657 24.145599518866458 3.8304624639359774 0 0 0
472 0 1 0 20.198770350653596 23.039616476725786 1.4170008335415167 0 0 0
1905 0 2 0 20.212027713262927 21.77151670305135 0.1009025276112461 0 0 1
120 0 2 0 20.887630325695817 24.668435825591665 4.452026812967356 0 -1 0
457 0 1 0 24.67830432117551 23.385505508511805 3.456608996935273 0 0 0
475 0 1 0 23.304642909745432 24.650065920631878 0.814847615713799 0 0 0
377 0 2 0 24.51941825103865 20.771262945565244 1.8306451149059522 -1 0 0
460 0 1 0 21.89946932670103 23.19555792291772 3.600361747668666 0 0 0
461 0 2 0 21.6467804154138 23.145134744523777 2.664608778359897 0 0 0
462 0 2 0 22.883540139701907 23.23662686702002 3.6345215199528234 0 0 0
469 0 1 0 23.263845564422134 21.558834864839177 0.9388640082177692 0 0 0
471 0 2 0 22.515535456144377 21.08457832905375 1.3797556691622217 0 0 0
477 0 2 0 23.14032268368311 23.685330827526972 0.7842478134161227 0 0 0
465 0 2 0 20.877941826492304 22.057405578232398 4.256992007032705 0 0 0
470 0 2 0 23.346175520462054 21.030750289877037 0.08747521980981637 0 0 0
13 0 1 0 1.5568521575388106 3.14712879757823 4.873295242703853 0 0 0
14 0 2 0 1.5192302985407056 2.162477039025565 4.9209800711250695 0 0 0
15 0 2 0 1.516207085723818 3.5179240487098875 5.773419635218064 0 0 0
484 0 1 0 3.0864995949546508 1.7368130343235022 7.623406002958829 0 0 0
485 0 2 0 2.140239019052569 1.9194328097907196 7.584506559671656 0 0 0
486 0 2 0 3.577687823985235 2.410324418899912 7.168347342085099 0 0 0
496 0 1 0 0.1914707857484692 1.5928895880389011 7.595443600415698 0 0 0
28 0 1 0 1.4820844271613935 0.2651836718502745 4.708299275949964 0 0 0
30 0 2 0 1.4380922964997884 0.06569633887885148 5.646369195308392 0 0 0
866 0 2 0 4.008515678867235 0.28607532632006694 6.8543964383693625 0 1 0
58 0 1 0 7.687865875445572 0.32465739618181405 4.937206043980528 0 0 0
44 0 2 0 7.750037196024069 2.052688471158298 4.8953891414133555 0 0 0
3 0 2 0 4.508635000096852 0.6251707010664522 4.862313229997719 0 0 0
500 0 2 0 4.932342214640752 2.820242872825819 5.416098673031517 0 0 0
499 0 1 0 4.856255635345076 3.4179120224659583 6.1477121038098055 0 0 0
43 0 1 0 7.878030340457 3.033735493426245 4.896072478931071 0 0 0
501 0 2 0 5.504415885632349 3.0016147789243544 6.69778129086365 0 0 0
526 0 1 0 6.474356130165532 1.5834634518904553 7.916571060219595 0 0 0
527 0 2 0 7.465782801906767 1.5367520992781631 7.806245260455769 0 0 0
528 0 2 0 6.2448471003738675 1.5913195612050952 8.82848040298258 0 0 0
534 0 2 0 7.842030700894421 4.055076900771 6.539211859078388 0 0 0
867 0 2 0 5.501509982016199 -0.04120126167386573 6.672195944560576 0 1 0
33 0 2 0 10.630577695727254 2.0804070230376404 4.8492802731983415 0 0 0
514 0 1 0 9.232070076974088 1.3143870320081614 7.907324719342778 0 0 0
515 0 2 0 9.610153279379574 1.4976870516376453 8.772195570086547 0 0 0
516 0 2 0 9.767765003113077 0.67469405152504 7.423630036665113 0 0 0
529 0 1 0 10.707171337102036 3.0653461144698353 6.369393556602269 0 0 0