LAMMPS (29 Sep 2021 - Update 2)
  using 1 OpenMP thread(s) per MPI task
echo both

include		in.partitions
variable        pid world 0
include		in.temp
variable        temperature equal 270
variable        tempDamp equal 0.100 # this is 0.1 ps
include		in.pressure
variable        pressure equal 7092.75
variable        pressureDamp equal 1.0 #this is 1ps
include		in.seed
variable        seed world 745823

units           metal
atom_style	full
include		in.box
read_data       iceVI.data
Reading data file ...
  orthogonal box = (0.0000000 0.0000000 0.0000000) to (24.724405 24.724405 22.792372)
  1 by 1 by 1 MPI processor grid
  reading atoms ...
  1920 atoms
Finding 1-2 1-3 1-4 neighbors ...
  special bond factors lj:    0        0        0       
  special bond factors coul:  0        0        0       
     0 = max # of 1-2 neighbors
     0 = max # of 1-3 neighbors
     0 = max # of 1-4 neighbors
     1 = max # of special neighbors
  special bonds CPU = 0.002 seconds
  read_data CPU = 0.047 seconds
include 	in.setup
variable	out_freq equal 500
variable	out_freq2 equal 500

timestep        0.0005

neigh_modify    delay 7 every 1

include         in.deepmd
# This is deepMD model

# create groups ###
#group ox type 2
#group hy type 1

mass 2 15.999
mass 1 1.008

pair_style      deepmd ../graph.pb
pair_coeff      * *

bond_style      none
angle_style     none
dihedral_style  none
improper_style  none
neigh_modify exclude none


neighbor        2.0 bin
neigh_modify    every 10 delay 0 check no

thermo          ${out_freq}
thermo          500
thermo_style 	custom step temp pe etotal epair emol press lx ly lz xy xz yz vol pxx pyy pzz pxy pxz pyz

restart 	${out_freq} restart.lmp.${pid} restart2.lmp.${pid}
restart 	500 restart.lmp.${pid} restart2.lmp.${pid}
restart 	500 restart.lmp.0 restart2.lmp.${pid}
restart 	500 restart.lmp.0 restart2.lmp.0


include         in.dump
dump            myDump all atom ${out_freq2} dump.water.${pid}
dump            myDump all atom 500 dump.water.${pid}
dump            myDump all atom 500 dump.water.0
dump            myDump2 all dcd ${out_freq2} dump.dcd
dump            myDump2 all dcd 500 dump.dcd
dump_modify     myDump append yes
dump_modify     myDump2 append yes


timer           timeout 03:55:00 every 1000
New timer settings: style=normal  mode=nosync  timeout=03:55:00

fix             2 all nph aniso ${pressure} ${pressure} ${pressureDamp}
fix             2 all nph aniso 7092.75 ${pressure} ${pressureDamp}
fix             2 all nph aniso 7092.75 7092.75 ${pressureDamp}
fix             2 all nph aniso 7092.75 7092.75 1
fix             3 all temp/csvr ${temperature} ${temperature} ${tempDamp} ${seed}
fix             3 all temp/csvr 270 ${temperature} ${tempDamp} ${seed}
fix             3 all temp/csvr 270 270 ${tempDamp} ${seed}
fix             3 all temp/csvr 270 270 0.1 ${seed}
fix             3 all temp/csvr 270 270 0.1 745823
velocity 	all create ${temperature} ${seed} dist gaussian
velocity 	all create 270 ${seed} dist gaussian
velocity 	all create 270 745823 dist gaussian

run             400000

CITE-CITE-CITE-CITE-CITE-CITE-CITE-CITE-CITE-CITE-CITE-CITE-CITE

Your simulation uses code contributions which should be cited:

- USER-DEEPMD package:

@article{Wang_ComputPhysCommun_2018_v228_p178,
  author = {Wang, Han and Zhang, Linfeng and Han, Jiequn and E, Weinan},
  doi = {10.1016/j.cpc.2018.03.016},
  url = {https://doi.org/10.1016/j.cpc.2018.03.016},
  year = 2018,
  month = {jul},
  publisher = {Elsevier {BV}},
  volume = 228,
  journal = {Comput. Phys. Commun.},
  title = {{DeePMD-kit: A deep learning package for many-body potential energy representation and molecular dynamics}},
  pages = {178--184}
}

CITE-CITE-CITE-CITE-CITE-CITE-CITE-CITE-CITE-CITE-CITE-CITE-CITE

Neighbor list info ...
  update every 10 steps, delay 0 steps, check no
  max neighbors/atom: 2000, page size: 100000
  master list distance cutoff = 8
  ghost atom cutoff = 8
  binsize = 4, bins = 7 7 6
  1 neighbor lists, perpetual/occasional/extra = 1 0 0
  (1) pair deepmd, perpetual
      attributes: full, newton on
      pair build: full/bin
      stencil: full/bin/3d
      bin: standard
Per MPI rank memory allocation (min/avg/max) = 9.089 | 9.089 | 9.089 Mbytes
Step Temp PotEng TotEng E_pair E_mol Press Lx Ly Lz Xy Xz Yz Volume Pxx Pyy Pzz Pxy Pxz Pyz 
       0          270   -333.91511   -266.94155   -333.91511            0    45539.364    24.724405    24.724405    22.792372            0            0            0     13932.89    46210.363    47573.474    42834.257   -805.77429   -391.97139   -355.84924 
     500    245.86474   -310.11069   -249.12389   -310.11069            0    640.07221    24.978673    25.015035    23.015894            0            0            0    14381.306    2355.9778    2029.8024   -2465.5636   -1577.1829   -1759.9265    904.33262 
    1000     272.2774   -308.93906   -241.40059   -308.93906            0    5808.2063    24.917546    24.930703    22.945786            0            0            0    14254.196    4988.0541    3507.9296    8928.6353    837.04589   -619.23067   -872.80948 
    1500    266.96473   -307.49901   -241.27835   -307.49901            0    12599.412    24.949565    24.852803    22.910753            0            0            0    14206.193    10909.518    13280.723    13607.996   -50.820256   -2702.6717    1876.4882 
    2000    267.47614   -305.47658   -239.12907   -305.47658            0    4.0070126    24.973405    24.979539    23.017926            0            0            0    14359.138    253.97888   -391.17653    149.21869    726.57102   -2116.9214   -1171.8289 
    2500    276.18637   -305.94473   -237.43664   -305.94473            0    8588.6082    24.851599    24.902587    22.949902            0            0            0    14202.986     6528.528    10867.028    8370.2685   -153.32894    549.01745    399.72435 
    3000    282.16334   -308.89529   -238.90461   -308.89529            0    8585.7098     24.96266    24.945009    23.017783            0            0            0     14333.03    9519.5157    9358.4855    6879.1282   -78.848235    1427.1671   -138.75846 
    3500    262.24289   -305.94399   -240.89459   -305.94399            0    6601.5904    24.943531    24.804574    22.998252            0            0            0    14229.333    4247.9466    10727.579    4829.2455     199.3748     197.4245   -1341.1906 
    4000    267.13943   -307.83731   -241.57331   -307.83731            0    5467.7727    24.929897    24.906855     23.02129            0            0            0    14294.502    7330.1208    5368.3117    3704.8856    1026.7248    1162.1517    527.95716 
    4500     273.6619   -308.69549   -240.81359   -308.69549            0    7647.2556    24.898546    25.002946    22.909189            0            0            0    14261.818    6334.3757    6832.4991     9774.892   -2201.7066    1897.8624    579.22355 
    5000    269.66309   -306.35716   -239.46717   -306.35716            0    5782.3086    24.921642    24.935304    22.878374            0            0            0    14217.279    5628.4412    5414.6024    6303.8823    39.805969   -208.83144    2011.4661 
    5500    274.26628   -309.43282   -241.40101   -309.43282            0     8735.195    25.024519    24.889647    23.081407            0            0            0    14376.288    6888.3082    9828.5278    9488.7488    -194.2122     1502.566    342.56234 
    6000    274.60911   -307.57074   -239.45389   -307.57074            0    9697.0339    24.821784    24.721454    22.992577            0            0            0    14108.948    12816.075    8553.7637    7721.2626     1682.779    528.54913    467.86525 
    6500    264.51505   -307.83338   -242.22037   -307.83338            0    5388.0335    24.964461    25.090249    23.058733            0            0            0    14443.173    4265.6258    6268.0599    5630.4147    1830.7162   -528.12439    246.66669 
    7000    279.30994   -307.11298   -237.83009   -307.11298            0    8733.6414    24.905836    24.941782    22.835536            0            0            0    14185.342    6303.2157    9155.4596    10742.249    738.85698    2436.9638   -450.52258 
    7500    280.49621   -308.88654   -239.30939   -308.88654            0    6183.8711     25.01794    24.931076    22.962197            0            0            0    14322.076    6586.2705    5501.1065    6464.2365     -160.678   -980.00016   -995.62891 
    8000    263.69805   -305.92487   -240.51451   -305.92487            0    8466.1959    24.888319    24.878994    23.056976            0            0            0    14276.795    9835.1867    8623.4261     6939.975    1225.8651    374.22003    328.35014 
    8500    264.79046   -306.94486   -241.26353   -306.94486            0    6467.5437    24.815984    24.905323    23.036866            0            0            0    14237.937    8972.0045    5753.0369    4677.5897    965.83011    955.63623    2294.8707 
    9000    275.86015   -306.19201   -237.76484   -306.19201            0    5016.6824    25.015721    24.995989    22.972485            0            0            0    14364.526    4017.1636    4640.3144    6392.5692    1204.6687     213.8365   -315.24042 
    9500    276.04098   -306.59903   -238.12701   -306.59903            0    7675.3748     25.06031    24.882137    22.833601            0            0            0    14237.985    5812.3594    8571.6323    8642.1327    33.779749   -834.90259     2672.796 
   10000    276.19897   -306.26716   -237.75594   -306.26716            0    8297.7801    24.973683    24.943503    22.990265            0            0            0    14321.352    8669.2593    8548.8429    7675.2381   -751.74367    152.12209    2028.9421 
   10500    282.76491   -305.11001   -234.97011   -305.11001            0    8125.6419    24.850479    24.960875    23.102347            0            0            0    14330.148    8924.1465    7921.4167    7531.3624    1674.3012   -340.51316   -339.97592 
   11000    270.88563   -305.34805   -238.15481   -305.34805            0    7820.3598    24.896179     24.89428    23.035626            0            0            0    14276.846    5607.4332    9138.6735    8714.9728   -1770.1447   -2250.7847    1722.6684 
   11500    270.80818   -306.70049   -239.52646   -306.70049            0    7003.9343    24.988462    24.908905    22.902631            0            0            0    14255.404    7324.9825    6018.6956    7668.1247    1217.5004     261.8744   -2581.1625 
   12000    273.80885    -306.0844   -238.16605    -306.0844            0     5019.963    24.927111    25.049752    22.866804            0            0            0    14278.443     4609.277    4848.0223    5602.5897    1049.8954   -953.80523    1372.3051 
   12500    277.56047   -306.05225   -237.20332   -306.05225            0    8970.0236    24.860632      24.9834    22.962225            0            0            0    14261.909    11094.882    7777.5423    8037.6461    603.96812    120.01169   -151.41525 
   13000    276.24927   -305.83087   -237.30718   -305.83087            0    6020.3332    25.013493    24.844903    23.114815            0            0            0    14364.882    6250.8389    5410.4577     6399.703   -1291.3078   -1117.5385    353.09584 
   13500    276.69686   -308.29596   -239.66124   -308.29596            0    11559.877    24.915356    24.692437    23.027253            0            0            0    14166.847    12712.209    10155.618    11811.804   -1831.2496    286.00537   -397.69033 
   14000    263.00367    -307.5667   -242.32858    -307.5667            0    7585.9515    24.902163     25.08993    22.973235            0            0            0    14353.528    7462.8836    7330.4095    7964.5613    552.38606   -312.74867    367.33165 
   14500    273.52777   -310.44205   -242.59343   -310.44205            0    7312.4274    24.846651    25.038383    22.863742            0            0            0     14223.99    7153.3798    5675.0638    9108.8385   -280.84152    -1412.322    1269.5331 
   15000    269.23496   -306.59647   -239.81268   -306.59647            0    8398.6688    25.020637    24.844049    22.947368            0            0            0    14264.404    3828.8121    8959.7489    12407.445    373.79119    582.70602   -689.84355 
   15500    269.12067   -306.46218   -239.70674   -306.46218            0    4361.0249    25.037396    24.800506    23.094254            0            0            0    14340.148    2141.7015    7369.7282    3571.6449   -517.38868   -975.64322   -1058.7446 
   16000     268.0244   -304.56328   -238.07977   -304.56328            0    9603.1168    24.820479    24.858413    22.957521            0            0            0    14164.737    7334.5876     10839.17    10635.593     1440.267   -373.70206   -420.21669 
   16500    277.36362   -308.18025   -239.38014   -308.18025            0    5782.9241    24.892601    25.113922    22.974835            0            0            0    14362.737    7303.4326    3393.7567    6651.5829   -565.36125   -322.69069   -1997.2778 
   17000     273.6855   -307.29608   -239.40833   -307.29608            0    6789.1512    24.905087    24.943175    22.877574            0            0            0    14211.822    4488.5549    9558.6079    6320.2909    286.26702   -771.58181   -441.52776 
   17500    264.41632   -305.54229   -239.95377   -305.54229            0    6921.0388    25.066451    24.916572    22.950149            0            0            0    14333.975    8039.4605    6045.4634    6678.1925    -1779.138    1473.0927   -201.03209 
   18000    264.87729   -307.16429   -241.46142   -307.16429            0    6660.3043    25.003403    24.870349    22.937623            0            0            0    14263.608    6846.8704     5223.097    7910.9456   -932.31554   -502.61178    1432.8831 
   18500    268.35967   -307.60532   -241.03865   -307.60532            0    7408.0028    24.874323    24.906736    22.974864            0            0            0    14233.806    6577.5525     8651.611    6994.8449   -946.02955    1252.8461    251.88928 
   19000     269.9766   -307.39514   -240.42739   -307.39514            0    8250.4133    24.884479    25.004462    23.064051            0            0            0    14350.983    7137.1431    9724.2286    7889.8683   -1945.1033   -2172.3168    931.80821 
   19500    262.09122   -304.43553   -239.42374   -304.43553            0     5695.528    24.870266    24.884137    22.972495            0            0            0    14217.105    3288.1458    6096.9201     7701.518   -930.49652   -2976.6847   -327.19326 
   20000    263.93576   -307.19618   -241.72686   -307.19618            0    7649.6512    25.036912    24.835718    23.015093            0            0            0    14311.008     7217.522    6780.4668    8950.9648   -1309.3843     691.8016    227.88808 
   20500    270.89179   -308.14176   -240.94699   -308.14176            0    6839.0014     24.88706    24.879842    22.919884            0            0            0    14191.674    5247.7089    8209.0799    7060.2154    171.04756   -821.18819   -2543.3844 
   21000    267.55466    -307.3546   -240.98761    -307.3546            0    6495.9353    24.856791    25.119741    22.954929            0            0            0    14332.969    6862.2492    6110.9398    6514.6169   -2039.6348    946.10383    565.58205 
   21500    267.35223   -309.80291   -243.48613   -309.80291            0     9914.024    24.925432    24.888953    22.901211            0            0            0    14207.176    9388.8896    10396.896    9956.2868   -156.01761    -1939.336    85.838066 
   22000    273.38008   -307.71635   -239.90436   -307.71635            0     6196.851    25.115121    24.754106    23.000852            0            0            0    14299.684    5224.6506    7130.3035    6235.5988  -0.33927698   -1006.8336   -123.80823 
   22500    274.52142   -307.06651   -238.97141   -307.06651            0    6299.7814    24.917911     24.91948    23.033487            0            0            0    14302.445    10744.412    4969.0695    3185.8631    1401.1894   -2079.1865    1699.9679 
   23000    270.42664   -309.78537   -242.70598   -309.78537            0    6725.3035    24.733622    25.025527    22.938348            0            0            0    14198.194    7073.8176    6544.8778    6557.2151    1092.8364    783.97441   -800.51173 
   23500    268.00431   -306.50803    -240.0295   -306.50803            0    7875.8355    24.927174     25.00727    23.000394            0            0            0    14337.539    7601.8542    7212.9211    8812.7314    805.04528    252.45841    656.21553 
   24000      275.754   -305.17975   -236.77891   -305.17975            0    7308.3114    24.957215    24.792399    22.943138            0            0            0    14196.049     7669.711     8742.662    5512.5612    1454.9105    165.36806    438.12941 
   24500    268.24779   -306.79683    -240.2579   -306.79683            0    4776.9504    24.967768    24.910271     23.03991            0            0            0    14329.761    3124.5955    5147.8614    6058.3945   -148.02395    1612.2306    2384.6011 
   25000    278.77607   -305.19781   -236.04735   -305.19781            0    5240.8745    24.788061    24.982974    23.002566            0            0            0    14245.018    6953.7104     3833.377    4935.5361    557.60157   -1158.3705   -1441.7254 
   25500    274.34501    -305.8809   -237.82957    -305.8809            0    9125.0202     24.89125    24.948591    23.017362            0            0            0    14293.819     11087.23    7514.9766    8772.8541   -414.96741    945.34982    529.56708 
   26000    279.95338   -304.84216   -235.39966   -304.84216            0    5959.0535      25.0617    24.826829    23.042853            0            0            0    14337.322    4470.7295    7806.0395    5600.3914    1171.7783    1537.5007   -1372.7362 
   26500    267.09939    -306.2537   -239.99964    -306.2537            0    8269.0988    24.904532    24.901341    22.945366            0            0            0    14229.712    10354.269    5422.8206    9030.2073   -987.76155    912.86709    412.63876 
   27000     275.1881   -307.44863   -239.18816   -307.44863            0    8259.0834     24.86345     25.04446    22.950448            0            0            0    14291.054    10036.614    6031.8485    8708.7876    380.48295   -320.64635    619.39475 
   27500    268.31652   -306.71054   -240.15457   -306.71054            0    4360.4998    24.886697    24.896469    22.996698            0            0            0    14248.544    7280.3969    2664.5401    3136.5624   -253.22306    239.54975    75.389156 
   28000    274.81213   -309.29054   -241.12333   -309.29054            0    7123.6308    25.038947    24.726763    23.062716            0            0            0    14278.868    5344.6195    10407.812    5618.4609   -231.69231   -797.38057    544.98733 
   28500    273.10487    -306.8763   -239.13258    -306.8763            0    8773.3859    24.939891    24.924155    22.950513            0            0            0     14266.17    8640.8031    7794.8364    9884.5183   -1019.3835   -627.61412    223.72445 
   29000    268.00825   -307.18982   -240.71031   -307.18982            0    6215.4927    24.801806    25.158119    22.877219            0            0            0    14274.625    8042.7342    4444.3821    6159.3619    1115.4314   -2050.9268    870.35878 
   29500    279.23108   -306.76908   -237.50575   -306.76908            0     9174.649     24.93828     24.98464    22.927546            0            0            0    14285.557    10674.967    9458.1376    7390.8429   -1274.7985   -1401.8776   -1063.5659 
   30000     280.3518   -304.43519   -234.89387   -304.43519            0    7165.2975    25.068546    24.727731    23.063798            0            0            0    14296.978    3769.5881    7655.9757    10070.329   -253.48483    1187.1554   -139.64988 
   30500    271.71421   -304.59557    -237.1968   -304.59557            0    6130.5046     24.89454    24.885207    23.122924            0            0            0    14324.785    7428.2079    7272.2821    3691.0239    1962.0031   -986.14338   -1628.1445 
   31000    278.65268   -305.34906    -236.2292   -305.34906            0    6083.4395    24.753934     25.07446    22.970069            0            0            0    14257.327    5324.8858    7172.1713    5753.2614    1113.3653      -229.56   -812.70399 
   31500     272.4987   -305.53461   -237.94125   -305.53461            0    6671.8128    24.917938    25.001927    22.974691            0            0            0    14313.152     7298.706    4830.2884    7886.4441   -1480.0356    463.37418    375.55215 
   32000     269.2241   -306.58882   -239.80772   -306.58882            0    8640.0776    25.018655    24.796227    22.911786            0            0            0    14213.745    11789.834    8910.0736    5220.3247   -745.35723   -1965.6558    1520.9985 
   32500    281.65066    -307.8935   -238.02999    -307.8935            0    8482.5524    24.977714    24.925809    22.999798            0            0            0    14319.438    6961.0837    7906.3112    10580.262    1042.3652   -919.49008   -1651.7377 
   33000     270.8345   -305.16007   -237.97951   -305.16007            0    5479.6101    24.835848     24.96286    22.982665            0            0            0    14248.651    6964.2951    2347.3097    7127.2256   -334.39577    1660.5175    634.28637 
   33500    261.31796   -306.33768   -241.51771   -306.33768            0    6178.6073    24.953703     24.94239    22.955366            0            0            0    14287.534    5159.2701    7219.8669     6156.685   -514.86938   -1806.2375     553.8588 
   34000    266.51707   -308.08993   -241.98031   -308.08993            0    8157.3176    25.004466    24.843765    22.886332            0            0            0    14217.106    6091.0917    10288.389    8092.4723    556.51228     2213.967   -1793.0384 
   34500    266.11347   -309.17615   -243.16665   -309.17615            0    7116.7495    24.870756    24.907318    22.985631            0            0            0    14238.766     6722.409    7766.1746    6861.6648   -110.05942   -961.10573    1603.3085 
   35000    258.81931   -307.64888   -243.44869   -307.64888            0    9172.0958     24.82816    24.915626    23.034477            0            0            0    14249.338    9884.1344    9649.0267    7983.1263    1189.6544    2125.9399    1663.1978 
   35500    272.60923   -308.33568    -240.7149   -308.33568            0    5534.6165    24.923588    24.859587    23.006109            0            0            0    14254.357    6229.7396    3276.8583    7097.2515    691.49938    953.26842     494.2592 
   36000    275.71967   -309.73463    -241.3423   -309.73463            0    5899.1615    25.085781    24.876295    22.920046            0            0            0    14303.055    3972.8648    8046.9594    5677.6603    2833.9598     1185.116   -551.16423 
   36500    267.47925   -307.41948   -241.07119   -307.41948            0    6416.9258    24.869948    24.911105    22.867673            0            0            0     14167.39    7465.2091    7977.6796    3807.8887   -705.61477    1588.2443    1325.0292 
   37000    266.24594   -307.68736     -241.645   -307.68736            0    6912.7538    24.847235    25.031959    23.099783            0            0            0    14367.487    8504.7243    5683.7691    6549.7678     1995.796   -186.02049   -172.85864 
   37500    266.98754   -307.08272    -240.8564   -307.08272            0    8804.4413     24.80317    24.755242    23.095408            0            0            0    14180.776    8210.6295    10696.904    7505.7903   -488.59227   -965.09412   -1195.0355 
   38000    273.60751   -306.66073   -238.79232   -306.66073            0    6088.6777    24.969473    24.848239    23.072281            0            0            0    14315.138    8446.5549    3972.3183    5847.1599   -1173.4915   -2032.1847   -1049.0909 
   38500    280.62268   -308.08639   -238.47787   -308.08639            0    5482.2687    24.938258    24.984175    22.903304            0            0            0    14270.173    6041.5774    4902.6071    5502.6217    1622.7871   -1745.4053    572.71702 
   39000    266.90675   -307.27168    -241.0654   -307.27168            0    6215.4928    24.874471    24.975283    22.863794            0            0            0    14204.063    5394.3973    5811.4444    7440.6369    272.71042   -1069.8476   -498.51387 
   39500    272.43919   -305.27241   -237.69381   -305.27241            0    5892.3064    24.957741    24.880968    23.090578            0            0            0     14338.62    6469.8397    6194.1007    5012.9788    -1678.427    98.381608    1059.3872 
   40000    264.34885   -306.46112   -240.88933   -306.46112            0    6014.8313    24.878134    24.783014    23.038448            0            0            0    14204.473    8676.2581    4960.7947    4407.4412    1767.5156   -484.76243    355.74916 
   40500    264.89368   -307.29774    -241.5908   -307.29774            0    4373.9982    24.929786    24.985445    22.955939            0            0            0    14298.836    3745.1485    6758.4284    2618.4177   -313.76308   -92.937911    2551.2824 
   41000    262.30273   -306.63025     -241.566   -306.63025            0    6205.3002    24.851773    25.023261    22.876438            0            0            0    14226.226    9290.5062    4383.4865    4941.9078    7.8567163   -58.495469    87.342676 
   41500    272.31271    -307.3786   -239.83138    -307.3786            0    6867.8724    24.945592    24.860615    23.006103            0            0            0    14267.528    4600.8354    7641.6474    8361.1342    1472.1804   -384.16608    -2418.586 
   42000    268.36327   -306.35293   -239.78536   -306.35293            0     8223.241    25.033093    24.743524    23.064093            0            0            0    14286.059    10679.416    8091.2084    5899.0985    1222.3445    1368.9874   -757.50127 
   42500    272.67861     -307.047   -239.40901     -307.047            0    6196.5583    24.887512    24.947364    22.997088            0            0            0    14278.382     4173.328    8583.2967    5833.0502    164.09805    1174.5634   -616.62284 
   43000    274.96247   -306.07801   -237.87351   -306.07801            0    6963.7824    24.802179    25.120891    22.867892            0            0            0    14247.905    6502.1345    5982.2482    8406.9646    837.51506   -1128.9086    -424.7992 
   43500    279.41967   -308.10642   -238.79631   -308.10642            0    5337.7039    24.985146    24.939838    22.913507            0            0            0     14277.99    4504.8482    6484.9307    5023.3328   0.94482357    569.37595    1775.8236 
   44000    268.80457    -308.1011   -241.42407    -308.1011            0    8146.6649    25.039455    24.671722    23.000768            0            0            0    14209.103    6046.0965    9614.7058    8779.1925    1626.1982    1288.2393    2346.5885 
   44500    266.25338   -306.75793   -240.71372   -306.75793            0     6238.785    24.941078    24.908839    23.048141            0            0            0    14318.733    5424.4797    7280.8891    6010.9862   -2410.2758    418.62712    2110.1841 
   45000    271.62787   -308.73993   -241.36258   -308.73993            0    7793.2256    24.820066    25.010541    22.937991            0            0            0    14239.063    9544.8602    5977.0955    7857.7211    957.24267    786.64491    721.87898 
   45500    265.76122   -308.66739   -242.74526   -308.66739            0    8618.3606    24.902224     24.91797    22.926625            0            0            0    14226.266    8595.9849    8999.6889    8259.4079    41.847031   -341.90352   -1514.8711 
   46000    271.87079   -308.60985   -241.17224   -308.60985            0    7992.7565    24.977556    24.861647    22.956303            0            0            0    14255.478    7011.0407    9258.2959     7708.933    1090.8144   -3392.5654   -808.81591 
   46500    272.96807    -307.0682   -239.35841    -307.0682            0    7009.7546    24.909047    24.911083    23.011843            0            0            0    14279.109    7215.9863    6827.0438    6986.2337   -2.7642227    65.724832   -2695.2371 
   47000    271.23971   -307.51561   -240.23454   -307.51561            0    8314.4902    24.851932     24.94491    22.953544            0            0            0    14229.572     8130.855    8080.3995    8732.2162   -1359.3893   -1852.0785   -611.45932 
   47500    272.56457   -305.88027   -238.27056   -305.88027            0    6034.7759    24.993905    24.960436    22.931994            0            0            0    14306.325    5075.5972    5906.5504      7122.18    816.71361   -468.37622    3925.1801 
   48000     271.3672    -307.1557   -239.84301    -307.1557            0    7185.9301    24.998791    24.810185    22.955809            0            0            0    14237.758     6725.561    6795.2756    8036.9539   -974.01115    1030.8967   -68.228081 
   48500    272.22122   -307.20312   -239.67858   -307.20312            0    8457.4848    24.879686     24.80377    23.119651            0            0            0    14267.368    7888.1866     12253.89     5230.378    827.87769   -227.79033    699.50484 
   49000    271.50701   -305.04824   -237.70087   -305.04824            0    5966.6304    24.806613    24.947102    23.074268            0            0            0    14279.583    6011.8787    5394.0628    6493.9497    268.70279    162.01738    626.62173 
   49500    289.02956   -305.53148   -233.83764   -305.53148            0    3084.2139    24.937155    25.078307    22.901691            0            0            0    14322.297    3150.1001    4373.4151    1729.1266   -889.40448   -787.73461   -235.93024 
   50000    279.48952   -306.32636   -236.99892   -306.32636            0    8076.1602    25.109375    24.931426    22.814111            0            0            0     14281.92    6355.1119    9369.5931    8503.7757    596.59787    394.41011    493.18001 
   50500    270.57835   -306.88371   -239.76669   -306.88371            0    8138.4115    24.979109    24.788277    22.904208            0            0            0    14182.035    5588.4885    9437.6176    9389.1284   -639.26211   -351.68615   -566.38328 
   51000    269.67525   -305.10133   -238.20832   -305.10133            0    6723.2002    24.795235    24.989499    23.153563            0            0            0    14346.423    8686.7602    5308.1302    6174.7103   -1335.0534    578.18539   -1689.1849 
   51500    275.14849   -307.15398   -238.90334   -307.15398            0    6593.9939    24.723383    24.958015    23.107981            0            0            0      14258.7    6754.2514    7826.3138    5201.4164   -869.23468    2377.5539    525.98405 
   52000    269.37075   -308.79621   -241.97874   -308.79621            0    10053.482     24.96748    24.842194     22.95429            0            0            0    14237.329    10801.751    9097.8665     10260.83    731.18911   -284.46352    1096.9594 
   52500    273.19763   -305.96363    -238.1969   -305.96363            0    7357.7398    25.069333    24.908751    22.874367            0            0            0    14283.802    6800.7703    6810.2794    8462.1697   -1883.2878   -1337.9289    1173.2936 
   53000    273.31624   -308.20763   -240.41148   -308.20763            0     6809.227    24.863992    24.985917    22.954969            0            0            0    14260.766    5941.3083    6358.2132    8128.1594    482.36852    262.85093   -61.475126 
   53500    271.43779   -306.88825   -239.55804   -306.88825            0    8814.7905    24.750085    24.919802    23.107531            0            0            0    14251.968    8700.6844    8918.7009    8824.9861     531.5535    -4.406119    3.5899215 
   54000    279.41226   -307.39796   -238.08969   -307.39796            0    8480.5627    24.944121     24.86014    23.042344            0            0            0    14288.888    8554.3791    8690.4101    8196.8989    765.63123    291.82878    1296.4192 
   54500     264.0206   -307.63341   -242.14304   -307.63341            0    7233.7561    25.074955    24.840687    22.834143            0            0            0     14222.91    2904.7106    9738.9597     9057.598   -269.76941    454.37635    -1536.758 
   55000    267.96713   -305.97692   -239.50761   -305.97692            0    8265.5695    24.941897    24.980003    22.849357            0            0            0    14236.261    10397.364    7966.6046    6432.7397    355.57404    -1298.603   -427.16995 
   55500    262.93675   -306.59875   -241.37723   -306.59875            0    7110.8399    24.823742    25.076192    22.990896            0            0            0    14311.486    8817.4853    5298.3604     7216.674    466.79614   -734.71313   -1543.9435 
   56000    262.70954   -302.37268   -237.20752   -302.37268            0    8854.0085    24.886821     24.85378    22.991421            0            0            0     14220.92    10825.378    6727.5716    9009.0757   -467.64861   -171.73237    2442.4657 
   56500    267.95762   -306.39187   -239.92493   -306.39187            0    8456.9928    25.032858    24.806613    23.038557            0            0            0    14306.493    3057.4385    12046.058    10267.482    699.79404    529.94257   -1485.9313 
   57000    265.51574   -306.41818   -240.55695   -306.41818            0    5957.1817    24.958833    24.905781      22.9345            0            0            0    14256.526     6052.539    7745.4457    4073.5605     714.1901    2154.7093    1402.5087 
   57500    274.85307   -308.43314   -240.25578   -308.43314            0    5591.7467    24.818979    25.071396    22.860301            0            0            0    14224.741    5409.5484    5025.2622    6340.4294   -8.0998525   -2970.2018    1757.6287 
   58000    263.37659   -306.04378   -240.71315   -306.04378            0    8526.5778    24.916953    24.953666    23.034924            0            0            0    14322.409    12074.601    6368.8052    7136.3272    457.35677   -2406.3963    355.30987 
   58500     272.7978   -305.59692   -237.92937   -305.59692            0    8771.4051    24.942736    24.682654    23.046373            0            0            0    14188.567    3206.1298    14542.884    8565.2011    -50.76079   -2124.5444    572.00363 
   59000    271.11497   -306.95834   -239.70821   -306.95834            0    6136.4526    25.030601    24.944831    22.984525            0            0            0    14351.172    7292.1468    4194.8694    6922.3415   -435.98302   -1434.6417    100.70243 
   59500    278.16597   -307.47858   -238.47945   -307.47858            0    8419.0129    24.845415    25.081035    22.806811            0            0            0    14212.035    5852.7257    9691.4151    9712.8978   -503.46502    1585.5337   -1270.4251 
   60000    272.25666   -308.73081   -241.19749   -308.73081            0    5553.1125    24.930617    25.067998    22.899388            0            0            0    14311.216    5945.9378    5531.9204    5181.4794    553.01227    763.18149    1015.6494 
   60500    264.33878   -305.81439    -240.2451   -305.81439            0    8023.2213     25.00633    24.831868    23.022155            0            0            0    14295.697    4712.9614    9211.1558    10145.547    1258.7118   -2003.5661    299.80825 
   61000     265.6587   -306.15647   -240.25977   -306.15647            0    7617.2259    24.907708    24.790428    23.073358            0            0            0     14247.17    8952.7522    9093.4173    4805.5082   -693.89185   -2194.9278   -469.92453 
   61500      276.406   -306.44127    -237.8787   -306.44127            0    8485.1533    24.875078     24.99894    23.000938            0            0            0    14303.147    9518.8173    7747.7794    8188.8632   -526.85161    -1465.519    1379.6646 
   62000    273.52045   -305.46842   -237.62161   -305.46842            0    5128.1157    24.927083    25.022894    22.879933            0            0            0    14271.307    5431.9682    3125.9535    6826.4255   -110.49567    391.69134    1136.6575 
   62500    265.93768   -305.77884   -239.81294   -305.77884            0    7286.5713    24.969454    24.938108    22.930182            0            0            0    14278.416    7018.5163    6673.6838     8167.514   -481.17972   -4434.4656    -236.9101 
   63000    282.25466   -305.27376   -235.26043   -305.27376            0    9434.8069    24.976657    24.876417     23.02018            0            0            0    14303.122    9877.8127    9821.7691    8604.8389   -2182.3938    1557.1327    708.97354 
   63500    266.73859   -306.71022   -240.54565   -306.71022            0    7916.5108     24.85466    24.956654    23.029216            0            0            0    14284.773    7018.3291    9572.9479    7158.2554    -1482.143    268.68465   -770.59026 
   64000    270.78612   -304.55549   -237.38694   -304.55549            0    6714.3617    24.833687    25.012057     23.00833            0            0            0    14291.431    8976.1217    5079.4335    6087.5299   -1973.6219   -820.30509    431.69606 
   64500    270.01797   -307.63872   -240.66071   -307.63872            0    7321.3695    25.056882    24.938088    22.941206            0            0            0    14335.288    7271.0981    6196.6003    8496.4102   -121.82277    1292.6181   -289.63285 
   65000    262.95896   -307.58919   -242.36216   -307.58919            0    8236.9191    25.038345    24.740868    22.856127            0            0            0    14158.694    4608.1282    10624.225     9478.404   -412.64311    837.67029   -1850.4356 
   65500    268.79175   -308.39051   -241.71665   -308.39051            0    4598.5079    24.923009    24.971393    23.121114            0            0            0    14389.709    6310.4567    4933.0877    2551.9794   -609.36946   -826.28425    463.64564 
   66000    280.06893   -305.29943   -235.82827   -305.29943            0    8901.0585    24.685866    24.932483    23.081812            0            0            0    14206.392    9847.0716    7863.0871    8993.0167   -562.79514   -563.44275    1405.7997 
   66500    269.31084   -304.68463   -237.88202   -304.68463            0    4887.4827    24.978773    24.937197    22.991762            0            0            0    14321.582    4650.3015    7023.7306    2988.4159   -48.217998   -2798.3143    829.49688 
   67000    268.27586   -307.55163   -241.00574   -307.55163            0    7949.7611    25.051588    24.907813    22.882869            0            0            0    14278.459    9119.8934    6639.9448    8089.4453    285.09686   -1644.9733   -2285.5889 
   67500    265.09158   -306.36873   -240.61271   -306.36873            0    8213.2866    24.950275    24.909647     22.91833            0            0            0      14243.8     9041.065    6859.7969    8738.9978   -177.96655    377.27595    369.42987 
   68000    259.87544   -306.05186    -241.5897   -306.05186            0    6362.6557    24.907965    24.960651    23.027334            0            0            0    14316.532    7113.7233    8263.8081    3710.4355   -420.24598    745.11419   -1382.0295 
   68500    268.14419   -305.02156   -238.50833   -305.02156            0    7267.8346    24.774268    24.903342    23.039536            0            0            0     14214.52    8187.9702    4365.4195     9250.114   -570.65398    1078.7081    110.66177 
   69000    265.69441   -308.52281   -242.61726   -308.52281            0    7805.2393    24.945707    24.928673    23.073895            0            0            0    14348.811    6503.4374    11234.991    5677.2894    618.59763   -1028.2036    1468.7176 
   69500    263.56256   -306.78792   -241.41117   -306.78792            0     7692.604    24.933208    24.880591     22.91666            0            0            0    14216.418    7940.0583    5181.9877    9955.7662    768.46412   -829.00581    106.71132 
   70000    265.39822   -306.98035   -241.14826   -306.98035            0    8637.6523    24.926351     25.01389    22.914248            0            0            0    14287.148    8420.3148    9110.5791    8382.0631    519.81126    164.52772    1143.6243 
   70500    268.88843   -307.41566   -240.71782   -307.41566            0    7796.9567    24.903854    24.964728    22.983061            0            0            0    14288.981    7583.1621    7913.4652    7894.2428    646.73979   -955.20364    750.54942 
   71000    269.49171   -308.44257   -241.59509   -308.44257            0    7583.4549    24.861049    24.868822    23.050669            0            0            0    14251.422    7718.0035    7609.8233    7422.5379    291.64325   -689.17635   -2358.1675 
   71500    270.35692   -307.10684   -240.04474   -307.10684            0    5743.6597    24.945228    24.908072    23.049191            0            0            0    14321.327    4378.7762    7405.2375    5446.9655   -993.06779    19.926594   -2421.9031 
   72000    282.64364   -305.46351    -235.3537   -305.46351            0    6336.1748    24.890105    25.001811     22.87526            0            0            0    14235.221    5851.7576    5248.3698     7908.397    -401.0455   -864.01016    1391.1675 
   72500    267.04739   -306.50935   -240.26819   -306.50935            0    5652.1207    25.037794    25.085888    22.931461            0            0            0    14403.143    6249.2409    3003.3739    7703.7472    619.70584   -669.92959    323.68108 
   73000    269.41658   -306.49698   -239.66814   -306.49698            0    8790.8116    25.008158    24.679112    22.948625            0            0            0    14163.412    7388.8713    9966.4562    9017.1073     484.7235    1500.0953    790.36655 
   73500    272.10697   -306.25151   -238.75532   -306.25151            0    4600.1725    24.989544    24.804647    23.155431            0            0            0    14353.052    4129.7568    5316.1862    4354.5746   -946.71105    368.25238   -884.43813 
   74000    272.40065   -306.47172   -238.90268   -306.47172            0       8843.9    24.829617    24.976983    23.021424            0            0            0    14277.172     6693.539    11463.726    8374.4344   -2424.1982   -26.667409    3434.3678 
   74500    269.85673   -306.54372    -239.6057   -306.54372            0    6062.3167      24.8881     24.99385    22.904072            0            0            0    14247.465    8195.5395      3773.13    6218.2805   -2011.3691    -1624.134    -980.0894 
   75000    269.02751    -304.6941   -237.96177    -304.6941            0    6419.6615    25.037978    24.926949     22.96085            0            0            0    14330.335    4067.5492    7774.9744     7416.461     790.1408    1367.6606   -531.66929 
   75500    268.72103   -306.12883   -239.47252   -306.12883            0    10017.629    24.947268    24.840647    22.982036            0            0            0    14242.112    10417.141    9825.8589    9809.8877   -462.69575   -1300.6083    3235.3642 
   76000    271.66149   -307.62425   -240.23856   -307.62425            0    6099.7936    24.877653    25.007282    23.025231            0            0            0    14324.514    7971.7555    6513.9458    3813.6795    539.64061   -1467.3281    950.06428 
   76500    262.95257    -310.3903   -245.16485    -310.3903            0    6747.9085    24.887833    24.961511    22.895213            0            0            0    14223.375    5620.7988    8064.3844    6558.5423   -529.44458    2598.6456    1488.3775 
   77000    259.92642   -309.03995   -244.56515   -309.03995            0    6559.2251    25.028307    24.816381    22.875865            0            0            0    14208.474    5786.7609    5766.1404    8124.7741    166.59366    3272.4068   -538.93607 
   77500    263.58284   -306.95532   -241.57354   -306.95532            0    6721.9861    25.044375    24.865664    23.045411            0            0            0    14351.415    6775.9788    7777.3847    5612.5946   -63.833611    1295.4938    274.41968 
   78000    274.37999   -304.35826   -236.29824   -304.35826            0    7616.1817    24.772487    24.889417    23.063602            0            0            0    14220.388     9546.885    6902.3838    6399.2764    273.41752    -1762.276    518.64403 
   78500    266.97827   -307.59221    -241.3682   -307.59221            0    4705.7062     24.86694    24.980719    23.066308            0            0            0    14328.653    3608.8514    5684.7376    4823.5295    708.80244    194.24932    183.51936 
   79000    262.25727   -306.92299   -241.87002   -306.92299            0    6076.7611    24.951095    24.881543    22.916235            0            0            0    14226.897     7453.615    3484.9279    7291.7404   -1376.6592    55.247147    -30.42224 
   79500    263.05973   -304.79696   -239.54494   -304.79696            0     6961.736    25.036095    24.929382     22.90689            0            0            0    14296.977    5931.1162    6171.3924    8782.6995    1801.0946     954.0716   -1511.7145 
   80000    272.30749   -306.75413    -239.2082   -306.75413            0     8363.586    24.879406    24.914166    22.994855            0            0            0    14253.353    8495.7252     7068.123    9526.9098   -105.93688   -2588.2224   -2237.9915 
   80500    276.94044   -309.51136   -240.81622   -309.51136            0    6243.5134     24.83704    24.882406    23.108671            0            0            0    14281.282    8976.4595    4617.8492    5136.2315    874.41989    1315.6744    931.26311 
   81000    269.86131   -307.21249   -240.27333   -307.21249            0    8502.8579    24.908943    24.785425    23.069959            0            0            0    14242.902    7369.7699    10225.226     7913.578   -2906.8335   -727.44319    95.609682 
   81500    266.23883    -308.1134    -242.0728    -308.1134            0    5649.0394    24.964179     24.90289    22.928869            0            0            0    14254.423    5469.5608     8945.723    2531.8343   -1702.1048   -327.19306    1422.1091 
   82000    269.24505   -306.83097   -240.04468   -306.83097            0    6490.4138    24.951258    25.032514    22.782903            0            0            0    14230.035    5214.1684    6550.6571    7706.4159    -611.3128    715.26474   -198.44215 
   82500    273.75811   -304.78862   -236.88286   -304.78862            0    4755.1916    24.971709    24.920867     22.93119            0            0            0    14270.461    6951.5552    4821.6076     2492.412   -505.40894   -2745.5842    963.74184 
   83000    272.48224   -306.75014   -239.16086   -306.75014            0    6011.4242    24.927895    24.827304    23.225188            0            0            0    14373.894    6409.3643    6214.1295    5410.7787   -1336.8279   -1123.5779    772.59445 
   83500    276.70577   -307.74374   -239.10681   -307.74374            0    9879.5267    24.717326    24.737132    23.111411            0            0            0    14131.142    10199.968    9797.5215    9641.0903    443.48323   -966.91459    2022.5504 
   84000    277.36397   -306.02605   -237.22585   -306.02605            0    5557.7664    25.020427    25.080069    22.904076            0            0            0    14372.629     3817.546    5756.4193     7099.334    277.46048    404.86973    268.32463 
   84500    272.22907    -306.5353   -239.00882    -306.5353            0    6452.7988     25.02597    25.006978    22.770601            0            0            0    14250.386    7627.4159     4742.362    6988.6185    1953.8646    533.24585    793.84796 
   85000    266.66175   -306.96279   -240.81728   -306.96279            0    7086.4903    24.962243    24.897633    22.940523            0            0            0    14257.553    7809.7297    5753.8929    7695.8483    622.29807   -690.66645   -120.90155 
   85500    274.12473   -305.61851   -237.62181   -305.61851            0    6280.2194    24.866759     24.83609     23.10855            0            0            0     14271.68    5593.2414     7819.567    5427.8497    1523.8682   -423.60673    296.47402 
   86000    270.20049    -305.5462   -238.52291    -305.5462            0    5355.9794    24.881587    24.893364    23.088722            0            0            0    14300.841    7341.7351    2779.3419    5946.8611    884.15676    1730.0282     751.8664 
   86500    271.02965    -308.7212   -241.49223    -308.7212            0    7036.4046    24.935856    24.952082    22.843674            0            0            0    14213.369    6434.0526    6495.8527    8179.3085   -889.43228   -447.55586   -849.42393 
   87000    262.19171   -306.18263   -241.14592   -306.18263            0    7364.3129    24.957956    24.984428      22.8768            0            0            0    14265.064    8502.5882    6670.7271    6919.6235    308.12522   -2187.6498   -2734.9694 
   87500    259.37029   -304.54365   -240.20679   -304.54365            0    6494.3458    24.937319    24.859919    23.050235            0            0            0    14289.757    7161.4858    7684.5652    4636.9865   -1309.0639    -1382.047    1096.7581 
   88000    267.70544   -304.61641   -238.21202   -304.61641            0    6078.4053    24.893778    24.779295    23.145347            0            0            0    14277.214    7420.8086    3512.5733     7301.834   -597.38986   -194.84584    905.04521 
   88500    268.32283   -307.20253   -240.64499   -307.20253            0    6896.1949    24.931118     24.88993    23.005652            0            0            0    14275.784    6244.0334    7209.6502    7234.9012    2180.9024    1326.1203    -39.04919 
   89000    265.03091   -310.12121   -244.38023   -310.12121            0    7338.0443    25.002665    25.023276     22.77061            0            0            0      14246.4    5950.4296    7488.7193    8574.9841   -523.82126   -1361.6911   -812.40265 
   89500    259.90237    -308.3345   -243.86566    -308.3345            0    8957.9233    24.974386    24.979625    22.793693            0            0            0    14219.864    9441.8954    6080.7804    11351.094    258.21221    1173.6627    1377.5463 
   90000    263.90493   -309.38919   -243.92752   -309.38919            0    6805.5997    24.846584    24.820822    23.080445            0            0            0    14234.003    6346.6124    8599.9967    5470.1902   -958.13253    291.24755   -152.51639 
   90500    271.63856   -306.70354   -239.32353   -306.70354            0    6733.7824    24.877011    24.773696    23.228799            0            0            0    14315.804    8964.3166    7562.4662    3674.5644   -593.65644   -60.697904    890.17429 
   91000    273.54714   -308.29994   -240.44651   -308.29994            0    6946.7962    24.912824    24.927662    22.967647            0            0            0    14263.333     6688.674    4239.9359    9911.7786   -228.92451    1245.2086     1832.183 
   91500    269.57355   -308.79713   -241.92935   -308.79713            0    6507.1159    24.959904    25.049808    22.774231            0            0            0    14239.379    4582.4504     5525.894    9413.0031    1445.3085   -462.42889    557.99843 
   92000    270.58234   -307.27785   -240.15984   -307.27785            0    6797.7279    24.977249    24.992964    22.891643            0            0            0    14290.233    6758.5863    6674.8228    6959.7744     409.8358    439.75152   -1940.5128 
   92500    269.85198   -306.71569   -239.77885   -306.71569            0      7426.97    24.957627    24.859071    23.097691            0            0            0    14330.348    7589.3097    5179.0327    9512.5677   -573.56993     1411.787   -1696.3284 
   93000    275.50913   -307.38054   -239.04044   -307.38054            0    9715.4297    24.901424     24.78846    23.067735            0            0            0    14238.974    9576.7583    11389.133    8180.3975    31.987053    853.54683   -1335.9245 
   93500    271.68051   -309.22402   -241.83361   -309.22402            0    5345.5296    24.961632     24.98785    22.997806            0            0            0    14344.594    3940.6546    7130.9843      4964.95   -170.91491   -1252.4652   -763.23349 
   94000    264.47679   -306.47758   -240.87405   -306.47758            0    9865.0787    24.869005    24.993923    22.859905            0            0            0    14209.123    11548.665    7792.7394    10253.832    408.05523    199.68938   -1446.8718 
   94500    267.90615   -307.55247    -241.0983   -307.55247            0    6723.3157    24.934637    25.024738      22.9805            0            0            0    14339.436    6144.4406    8998.9257    5026.5808   -158.63759    1148.6524   -87.855061 
   95000    267.91504   -307.88623   -241.42984   -307.88623            0    5862.5423    24.885134    24.867732    23.005935            0            0            0     14236.92    4540.9185    6037.9488    7008.7594    737.23192    194.80076    26.216365 
   95500    271.35286    -307.3971   -240.08797    -307.3971            0    8912.7268    24.906767    24.861557     23.06922            0            0            0    14284.946    7447.4265    8748.4716    10542.283     226.5315   -1463.4381   -763.04928 
   96000    272.95322   -308.03509   -240.32898   -308.03509            0    7569.3645      24.9392    24.936926     23.05189            0            0            0    14336.131    6353.1825    7689.3757    8665.5352   -230.88093   -379.58376    1129.8352 
   96500    267.95971   -306.18657   -239.71911   -306.18657            0    7223.0502    24.841614    24.964618    22.922124            0            0            0    14215.416     8729.423    5760.1843    7179.5435    292.36467   -186.47428    828.65314 
   97000    265.97499   -306.67923   -240.70408   -306.67923            0    5343.4077    24.951968    24.986298    23.000319            0            0            0    14339.717     5761.718    6323.9484    3944.5567   -901.14052   -629.49813    1618.1707 
   97500    270.75651   -307.41305   -240.25183   -307.41305            0    5184.7851    24.912197    24.901543    22.952091            0            0            0    14238.379    2663.4095    5733.1473    7157.7986    1434.5239   -1105.4652   -2004.8853 
   98000    269.13251   -308.00871   -241.25033   -308.00871            0    8249.5114    24.955221    24.830816    23.050274            0            0            0    14283.299     7450.337    10048.229    7249.9683   -682.93092    930.25056   -1269.9249 
   98500     267.5113   -308.16176   -241.80552   -308.16176            0     8076.534    24.895199    24.873206    23.127683            0            0            0    14321.202     6120.644    10232.449    7876.5089    -1170.571   -541.20187   -1008.4344 
   99000    268.38382   -305.96919   -239.39653   -305.96919            0     5677.851    24.715652    24.961463    22.961189            0            0            0     14165.65    7241.1486    4731.1955    5061.2089    1005.0352   -1040.0909   -183.66639 
   99500    274.03666   -304.39925   -236.42439   -304.39925            0    6950.6171    25.022262    25.123765    22.959779            0            0            0    14433.743    8013.8503    6079.4178    6758.5833    794.87815   -970.54792   -2904.3741 
  100000    274.46984   -307.24801   -239.16571   -307.24801            0     9665.417    25.055125    24.832643      22.8056            0            0            0    14189.301    9953.1141    9258.5841    9784.5528    1083.9909    1044.4928   -1536.1551 
  100500    274.06551   -308.27669   -240.29468   -308.27669            0    8403.3211    25.032802    24.952524    22.961583            0            0            0     14342.53    6083.4871    9121.4706    10005.006    212.90216    2222.5744    202.80913 
  101000    273.74264    -307.1891   -239.28718    -307.1891            0    6776.4756    24.824621    24.993629    23.023175            0            0            0    14284.898    8990.9943    5762.6541    5575.7783    1536.0656    839.86605   -1017.8412 
  101500    273.70588   -308.14319   -240.25039   -308.14319            0    5798.2086    24.826493    24.942453    22.988671            0            0            0    14235.358    6556.8046    3966.2575    6871.5637   -1700.3588   -3089.0729    375.82537 
  102000    273.35889   -306.47663    -238.6699   -306.47663            0    5764.8133    25.078071    24.833083    22.994434            0            0            0    14320.147    5705.2425    6461.8916    5127.3057    309.48297     663.1704    1312.8017 
  102500    265.84835   -306.67001   -240.72627   -306.67001            0    8261.7018    24.992286    24.883226    22.936019            0            0            0    14263.651    7334.6506    8859.2001    8591.2546   -287.23056   -1090.3552   -518.50432 
  103000    263.44294   -307.11815   -241.77107   -307.11815            0    7864.3661    24.821049    24.945607    22.991793            0            0            0     14235.97    7082.0782    10600.935    5910.0854   -2650.1977   -1253.4575    2186.5128 
  103500    266.57925   -307.29194    -241.1669   -307.29194            0    6631.3769    24.908804    24.920871    23.110713            0            0            0    14345.954    6734.7801      6301.28    6858.0705    1369.0209   -1970.2897    1246.6889 
  104000    270.97973    -306.6106   -239.39402    -306.6106            0    10113.238    24.929803    24.822676    22.976523            0            0            0    14218.434    8640.1819     9883.066    11816.466    39.641991    -1802.869    1421.1727 
  104500    264.33008   -307.87264    -242.3055   -307.87264            0    5004.9178    24.980469    24.956031    22.915028            0            0            0    14285.534    5052.4526     6047.418    3914.8829   -83.057558    1323.2137   -1403.8968 
  105000     272.6887   -305.57614   -237.93565   -305.57614            0    9799.5492    24.851479     25.04378    22.945557            0            0            0     14280.74    10156.853    7236.6827    12005.112    1507.8402    -1302.222     792.9048 
  105500    277.25179   -305.63625   -236.86388   -305.63625            0    8813.4928    24.864562    24.870285    23.038885            0            0            0    14246.987    9990.5461    7595.1107    8854.8216   -171.22785    412.06421    2168.9634 
  106000    266.63462   -306.27391   -240.13514   -306.27391            0    2116.0096     25.10439    24.776782     23.11806            0            0            0    14379.572   -598.39333    5370.0484    1576.3737   -59.715685    563.45927   -1174.9845 
  106500     274.9881   -305.70391   -237.49305   -305.70391            0    6340.3096    24.925638    24.894845    22.865578            0            0            0    14188.546    7416.5685    3398.3171    8206.0431    2174.7445   -2017.5766   -21.771485 
  107000    269.73051   -307.13886   -240.23215   -307.13886            0     5334.871    24.900511     25.18914    22.877031            0            0            0    14348.988    6188.4382    3924.0609    5892.1138    1303.1657    1554.0514    2588.3228 
  107500    281.65518   -306.67246   -236.80783   -306.67246            0    8034.6723    24.900127    24.887326    22.989916            0            0            0    14246.795    6866.1463    8634.7476    8603.1232   -47.266743   -302.39747    813.25161 
  108000    267.84193   -304.99586   -238.55761   -304.99586            0    5398.9312    24.987741    24.781526    23.160902            0            0            0    14342.026    4829.5144    7459.5816    3907.6975    1051.0128     553.5773    1059.6175 
  108500    267.82955   -305.14126   -238.70608   -305.14126            0     4105.569    24.907289    24.891756    23.061779            0            0            0    14297.984    5124.4292    3240.3279    3951.9498    -1044.998    1311.9863   -865.63763 
  109000    268.68651   -307.11705    -240.4693   -307.11705            0    7259.1878    24.891179     24.99007    22.951001            0            0            0    14276.264    8739.5957    5951.0073    7086.9603   -1094.8836    450.52402   -54.488916 
  109500    271.26772   -306.75355   -239.46553   -306.75355            0    7484.4819    24.940044    24.966369    22.952523            0            0            0    14291.672    4895.6904    6426.9352     11130.82    79.708919   -396.70277   -1059.3652 
  110000     268.3199   -306.05205   -239.49524   -306.05205            0    3826.5966    24.981597    24.809888    23.024327            0            0            0    14270.262    4673.5398    4873.0245    1933.2255    -1396.898    1039.2109   -271.30838 
  110500    267.14156   -308.36803   -242.10351   -308.36803            0    7402.9275    24.951298    24.841408    23.084149            0            0            0    14308.141    8004.5498     7480.875    6723.3577   -1732.3122    1952.1513    313.38959 
  111000    273.48496   -307.99656   -240.15855   -307.99656            0    8099.7159    24.851341    24.940962    22.955206            0            0            0    14228.012    8029.6932    9125.5983    7143.8561    1517.8173    513.47054    509.17722 
  111500    272.51974   -308.11346   -240.51488   -308.11346            0    5838.6625    25.017515    25.050178    22.890333            0            0            0    14345.216     5900.892    4152.1565    7462.9392   -333.03766   -778.51511    2625.7297 
  112000    260.80375    -305.6443   -240.95187    -305.6443            0    8717.1651    25.035009    24.796705    22.905197            0            0            0    14219.219    4485.7611    8976.7743     12688.96    1100.6553    1155.2686   -529.77388 
  112500    273.68528    -309.6149   -241.72721    -309.6149            0    8190.8913    24.891399    24.830053    23.150872            0            0            0    14308.506    6597.6595    9368.4817    8606.5325    599.03402     1258.831   -282.89349 
  113000    266.03073   -306.56025   -240.57126   -306.56025            0    7455.8564    24.714842    24.933458    23.151825            0            0            0    14266.767    10095.328     6075.747    6196.4941   -1301.4935   -190.77555    79.919499 
  113500    265.45298   -304.88345   -239.03778   -304.88345            0    6420.0936    24.903539    25.002192    22.956969            0            0            0    14293.998    7354.4593    6119.3321    5786.4894   -164.08827   -1812.8392    322.18968 
  114000     270.4457   -307.65834   -240.57423   -307.65834            0    10073.966    25.040722    24.893075    22.854977            0            0            0    14246.434    5025.3092    12825.688    12370.902    16.201509   -2595.5798    1626.6805 
  114500     271.3004   -305.63675   -238.34063   -305.63675            0    5899.6038    24.994606    24.878861    23.031902            0            0            0    14322.097    5087.4287    4239.4391    8371.9436   -1789.8436   -2778.8572   -642.58596 
  115000    273.81763   -305.38122    -237.4607   -305.38122            0    8202.5975    24.834448    24.913548    23.107279            0            0            0    14296.802     9883.539    7103.4477    7620.8056    271.38321   -901.90366   -302.09363 
  115500     273.9445    -307.7023    -239.7503    -307.7023            0    7885.6385    24.829318    24.960094     23.03155            0            0            0    14273.622    8768.4639    8480.2232    6408.2284   -423.64888     1315.786    543.58886 
  116000    262.15252   -308.08346   -243.05647   -308.08346            0    6137.9035     25.00197    24.992008    22.876835            0            0            0    14294.578    5854.5136    4723.1711    7836.0258   -1061.8127   -118.09615    674.65637 
  116500    275.82688   -307.75094   -239.33203   -307.75094            0     9729.449     24.99272    24.891641    22.852745            0            0            0    14216.917    10694.724    7725.6915    10767.931    1494.5909    659.10901    1640.9334 
  117000    268.06906   -308.87918   -242.38459   -308.87918            0     4407.356    24.950598    24.914116    23.053623            0            0            0    14330.641    4865.4343     3937.242    4419.3917   -160.88974    -1473.807    1787.4269 
  117500     265.0761   -307.78624   -242.03406   -307.78624            0    8954.3495    24.785868    24.816863    23.027338            0            0            0    14164.288    10519.507    9879.7891    6463.7524    2348.5381    685.40372    205.19298 
  118000    265.61233   -308.68782   -242.80262   -308.68782            0    5591.2817    24.994256    24.915579    23.054662            0            0            0    14357.207    5620.1363    5773.7781    5379.9306    1067.8193    -1033.977   -192.25335 
  118500     267.9701    -306.4288   -239.95875    -306.4288            0    7343.6202    24.968062    24.898635    22.871495            0            0            0    14218.537    4962.5139    9424.4084    7643.9384   -1572.0638   -889.88718   -472.94658 
  119000    273.49734   -308.37878    -240.5377   -308.37878            0    7860.2968    24.973229    24.975691    22.938924            0            0            0    14307.549     7647.719    6849.5508    9083.6207    125.25112   -602.30581   -1808.3123 
  119500    270.92376   -306.41095   -239.20825   -306.41095            0    5650.5461     24.87372      24.9022    23.106327            0            0            0    14312.299    7427.3133    6270.7697    3253.5554    247.24529      1130.75      911.402 
  120000    273.66058   -306.74263   -238.86106   -306.74263            0     7871.908    24.820892    24.815385    23.104483            0            0            0    14230.975     6866.221    7843.8606    8905.6424   -2113.4729    997.89429    -799.8594 
  120500    268.03024   -306.07196     -239.587   -306.07196            0    3874.6112      25.0051     24.99677    22.950143            0            0            0    14344.912    5966.7753    3207.9977    2449.0605    304.22803   -675.91998    1895.0781 
  121000    269.35292   -306.70794   -239.89489   -306.70794            0    10320.143    24.982742    25.033485    22.695441            0            0            0    14193.844     8660.007    12279.831    10020.589   -2204.8486    1027.7112   -1032.1131 
  121500    265.75191   -307.35378   -241.43396   -307.35378            0    6644.9052    24.984986    24.992562    22.904335            0            0            0    14302.356    6430.4944    4606.2004    8898.0206    1189.9972    1456.5983   -608.31322 
  122000    267.02612   -305.68692   -239.45104   -305.68692            0    7665.6869     24.84427    24.797086    23.180869            0            0            0    14280.934     10623.19    7248.5613    5125.3091   -731.73996   -590.66577    3.8739102 
  122500    270.94041   -305.54714   -238.34031   -305.54714            0     6068.206    24.829188    24.879721    23.134927            0            0            0    14291.445    9323.8781    6209.6716    2671.0684   -2370.8759    1133.0169    3237.8346 
  123000    265.08209   -306.62861   -240.87494   -306.62861            0    6700.2163    24.964708    25.060597    22.855131            0            0            0    14298.867     6499.319    4210.7414    9390.5885   -628.59582   -565.83326   -334.99583 
  123500     263.5645   -305.37229   -239.99506   -305.37229            0    8509.7664    24.991364    24.967967    22.769878            0            0            0    14208.029    7873.8032    9461.0191    8194.4768    3499.7145    -319.3721    729.03394 
  124000    265.20472   -305.56135   -239.77726   -305.56135            0    5916.2014    25.009254    24.854365      23.0104            0            0            0    14303.014    4086.3933    8915.6246    4746.5865    215.78137    944.76781    1417.5073 
  124500    267.93186   -304.24573   -237.78518   -304.24573            0    9698.3302    24.917706    24.831432    23.073373            0            0            0    14276.472     11239.77    11680.136    6175.0846    1090.6903    1496.0167     718.4177 
  125000    272.91118   -303.69995   -236.00427   -303.69995            0    10905.116    24.900627    24.951313    23.011867            0            0            0    14297.349    13145.152    8724.6215    10845.574   -509.43132   -2007.7517    812.24613 
  125500    265.29602   -304.75746   -238.95072   -304.75746            0    6309.1118    24.928892    25.019692    22.915745            0            0            0    14292.852    6109.9873    8062.6748    4754.6733   -1650.6809    854.82618    2632.5438 
  126000    279.31049   -306.96316   -237.68013   -306.96316            0     7512.633    24.965037    24.864694    22.915336            0            0            0    14224.649    9800.5857    5263.9041    7473.4092   -1872.6097    2443.8552   -1097.6841 
  126500    270.77197   -308.66546   -241.50041   -308.66546            0    5663.7908    24.968172    24.810794    23.092537            0            0            0    14305.369     4427.434    8504.8258    4059.1125   -1549.3891    -2244.082   -1514.3629 
  127000    269.05015   -306.23938   -239.50143   -306.23938            0      7649.94    24.860569    24.877831    23.032855            0            0            0    14245.292    9800.0792    8058.2937     5091.447   -611.61014   -219.39866    32.957455 
  127500     270.7524   -306.85945   -239.69925   -306.85945            0    5960.7373    24.937973    25.058555    22.881109            0            0            0    14298.624    5603.1196    7031.7143    5247.3779   -1903.2867   -998.05836   -835.22489 
  128000    266.24375   -306.02548   -239.98366   -306.02548            0    10341.143    25.019592    24.900283    22.776942            0            0            0    14189.919    8524.2846     9226.529    13272.615   -486.24708    1836.8382   -928.87666 
  128500    269.71461   -306.52725   -239.62449   -306.52725            0    6963.4131    25.075824    24.828783    23.056462            0            0            0    14355.003    5902.9265    9330.3109    5657.0018    -834.8261    647.56339   -100.47047 
  129000    266.19006   -305.30824   -239.27974   -305.30824            0     9040.412    24.739864    24.839824    23.123929            0            0            0    14210.438    12169.999    7665.8852    7285.3516   -605.77419    757.05632   -118.50198 
  129500     270.6643   -306.01506   -238.87673   -306.01506            0    8618.8358    24.831477    24.983496    23.082869            0            0            0    14320.083     7800.605    9659.7759    8396.1263   -2787.5091   -1963.5459   -1182.7072 
  130000    267.92548    -306.5359   -240.07692    -306.5359            0    8411.7454    24.979093    24.928238    22.939394            0            0            0    14284.011    9155.1135    6882.6818     9197.441   -565.33712   -2699.6508   -233.05667 
  130500    264.62675   -304.84822    -239.2075   -304.84822            0    8360.8833    24.946346    24.847818    22.912667            0            0            0    14202.698    9180.1322    9472.6654    6429.8524    1177.4407   -525.70274    79.032015 
  131000    267.68166   -309.43709   -243.03859   -309.43709            0    5676.1666    24.900914    24.993476     23.03246            0            0            0    14334.491    5214.1888    4052.4486    7761.8625   -785.25707   -570.85016   -219.97611 
  131500    260.84461   -307.08832   -242.38576   -307.08832            0    6405.4949     24.82855     24.88923    22.988315            0            0            0    14205.939     6853.045     6199.466    6163.9739    922.69431    1406.6161   -1874.2874 
  132000    267.67177   -308.04793   -241.65189   -308.04793            0     4764.657    24.967249    24.908475    23.044903            0            0            0    14331.535    4686.2857    4456.9151    5150.7702   -427.26853   -485.76171    1129.5088 
  132500    272.45796   -304.89422   -237.31096   -304.89422            0    7928.8125    24.953076    24.848848    22.969203            0            0            0    14242.174    7825.1747    5623.7354    10337.527    1473.3721   -1012.7899    646.76351 
  133000    269.48456   -304.77067   -237.92496   -304.77067            0    7084.2889    24.955403    24.999111    22.991102            0            0            0    14343.296    6807.2079    6297.9417     8147.717    620.34722   -218.35016    885.00588 
  133500    269.66877   -306.59263   -239.70123   -306.59263            0     6607.557    24.831924    25.048336    22.967247            0            0            0     14285.59    8339.5937    4703.1289    6779.9483    234.71336    42.174973    2250.5154 
  134000    264.33085   -307.45372   -241.88639   -307.45372            0    7051.7029    24.825994    24.817649    23.011636            0            0            0    14177.994    6960.7047    7737.9716    6456.4324   -681.66993   -534.12843      2039.05 
  134500     276.6634   -307.72923   -239.10282   -307.72923            0    5989.0765     25.00451    24.864439    23.133409            0            0            0    14382.575    5158.4567    8411.0347    4397.7382    1347.0644    1126.8561   -1763.3761 
  135000    268.85778   -308.99549   -242.30526   -308.99549            0    6610.3187    24.867343    24.867263    22.926989            0            0            0    14177.654      10380.5    3806.1427    5644.3132    -820.4921   -2833.7621     1168.368 
  135500    266.26841   -307.32795   -241.28001   -307.32795            0    8288.2065    24.910139    25.030503    22.933638            0            0            0    14299.428    5729.5314    9879.7775    9255.3107   -37.569214     561.3075    798.46245 
  136000    274.16974   -307.43338   -239.42552   -307.43338            0    7800.8357    24.911819    24.941587    23.024766            0            0            0    14306.215    6914.3338    9108.6952    7379.4781   -91.054877    127.81186    288.96861 
  136500    269.65623   -306.14074   -239.25245   -306.14074            0    8289.6025     24.86811    24.759251    22.990892            0            0            0    14155.855    8015.1829    9093.9916    7759.6331    70.985824   -229.60833   -763.95051 
  137000    273.87594   -307.56578   -239.63079   -307.56578            0    6085.5571    24.971156    25.006269    23.045446            0            0            0    14390.394    5177.2279    7525.7846    5553.6588    782.29886   -1476.4006    1605.5253 
  137500    271.76018   -304.05772   -236.64755   -304.05772            0    5791.3789    24.821988    24.954836    22.898359            0            0            0      14183.9    5594.1265    5611.2192    6168.7909    817.52713    887.13414    1232.3661 
  138000    273.07891   -306.76098    -239.0237   -306.76098            0    6346.8095     24.99122    24.978671    22.988066            0            0            0    14350.242    4525.1083    6647.9403    7867.3798   -696.98252    743.24005   -1097.7765 
  138500    274.58519   -307.86238   -239.75147   -307.86238            0    7115.4246    24.929275      24.8169    23.076942            0            0            0     14276.95    7991.1209    10455.799    2899.3539   -99.438649   -2002.2455    1115.7047 
  139000    260.14463   -309.24434   -244.71541   -309.24434            0    5602.2638    24.788093    24.865577     23.05112            0            0            0    14208.024    6031.6301    5279.5812      5495.58    1227.4546   -1843.5938    975.23294 
  139500    264.67411   -306.02623   -240.37376   -306.02623            0    6556.9717    24.955784    25.015056    22.940605            0            0            0    14321.139    8453.4837    4400.5881    6816.8432   -1356.0916   -2797.6753    785.76215 
  140000    277.65497   -307.41149   -238.53912   -307.41149            0    6924.2806    25.029311    24.895303    22.849516            0            0            0    14237.814    5254.3732    8530.6861    6987.7826     889.3993    148.03845    798.00827 
  140500    273.96274   -306.11008   -238.15357   -306.11008            0    5185.3645    24.965039    24.882653     23.02493            0            0            0    14303.003    3116.7468    3659.4792    8779.8674    272.13552   -595.95153     647.3992 
  141000    260.33199   -304.75053   -240.17512   -304.75053            0    4760.2725    24.843986    24.897459    23.113842            0            0            0    14297.116    2726.5438    7995.2696     3559.004   -339.99421   -66.187503   -25.646132 
  141500    264.89474   -306.12973   -240.42253   -306.12973            0    8636.9639     24.80076    24.951442    22.953952            0            0            0    14204.244    8891.0919     8211.821    8807.9786    943.88486   -539.73146   -1047.3212 
  142000    265.69113   -306.17509   -240.27034   -306.17509            0    4260.1743    25.008422    24.966577    22.926353            0            0            0    14314.635    3036.2821     3596.771    6147.4698    1229.7621    1953.6661    1278.5991 
  142500     271.6354   -305.23935   -237.86014   -305.23935            0    8496.0474    24.975098    24.916151    22.897076            0            0            0    14248.468    8555.7325    10086.252    6846.1575    469.27138    75.711839   -949.73691 
  143000    270.49726   -306.25047   -239.15356   -306.25047            0    6042.9756    24.946882    25.006748    22.974477            0            0            0    14332.407    5691.9889    5183.5416    7253.3962    -1185.348   -1453.5849     1891.957 
  143500    278.73836   -307.89174   -238.75063   -307.89174            0    7477.3401    24.858766     24.88207    23.027044            0            0            0    14243.091    9350.5303     5634.057    7447.4331   -631.75104   -909.14332   -273.50454 
  144000    269.14077   -306.53881   -239.77839   -306.53881            0    8521.2259    24.932152    24.870887    23.088181            0            0            0    14316.629    8132.3763    9414.0709    8017.2305    313.24649   -682.32114    84.155047 
  144500    269.14589   -305.76375   -239.00206   -305.76375            0    8374.4863    24.988751     24.95995     22.92955            0            0            0    14301.572    9053.0598    5297.5516    10772.848   -27.922168   -274.80723    1705.8433 
  145000    261.49751   -304.22602   -239.36151   -304.22602            0    6945.3952     24.95145    25.053822    22.722319            0            0            0    14204.385    4073.8713    7407.1793    9355.1351   -1415.8658    1004.7063    274.44548 
  145500    260.67663   -304.25923   -239.59834   -304.25923            0    7016.8276    24.937487    25.049147    22.996776            0            0            0     14365.23    10891.341    2930.3387    7228.8029   -1318.6384   -1816.3647    1563.9283 
  146000      274.559   -308.51046   -240.40604   -308.51046            0    5749.6154    24.804177    24.757485    23.116924            0            0            0     14195.85    5909.3166    5662.9539    5676.5756    912.78598   -349.50949   -2998.7396 
  146500     265.5229   -307.23569   -241.37268   -307.23569            0    8066.8977    24.927916    24.798297    23.093761            0            0            0    14275.867    8470.7564    9497.5325    6232.4041   -808.94177   -1349.6237     1883.355 
[...]
  365000    272.61737   -306.91478   -239.29198   -306.91478            0    6786.9163    25.069012     24.80073    22.905561            0            0            0     14241.07    4535.8495    9640.9429    6183.9564    1527.8601    228.23753    1173.7879 
  365500    270.74729   -306.52549   -239.36656   -306.52549            0    4711.9329    24.926686    24.937676    22.976872            0            0            0    14282.737    5003.8359    5988.0782    3143.8848   -1545.1686    424.90042   -1187.8171 
  366000    275.23219   -305.88044   -237.60904   -305.88044            0    7013.8109    24.769509    25.024537    22.959653            0            0            0    14231.437    9176.7467    6209.1108    5655.5751   -1752.7834   -77.816483    625.75695 
  366500    271.90938   -307.35059   -239.90341   -307.35059            0    7374.7705    24.885828    24.996377    23.022892            0            0            0    14321.517     8509.701    6878.9652    6735.6454    747.60091    1568.8732    442.96855 
  367000    267.77232   -307.93163   -241.51065   -307.93163            0    7491.3989    24.966127    24.796043    22.970758            0            0            0    14220.304    8835.5382    10520.056    3118.6029    349.48338   -375.07548    1048.0324 
  367500    262.31269   -305.24571   -240.17899   -305.24571            0    5104.1519    24.946731    24.877535    22.975281            0            0            0    14258.762    3444.9512    8779.9961    3087.5083    2122.7186    13.876732   -1486.7779 
  368000    274.23422   -306.54319   -238.51933   -306.54319            0     6437.499    24.892936    24.985848    22.944068            0            0            0    14270.547    7450.2757    3012.5049    8849.7165   -830.69928   -260.05429   -588.92197 
  368500    271.22522   -307.54233   -240.26486   -307.54233            0     7026.506     24.90717    24.906179    22.944714            0            0            0     14233.58    6667.9133    6132.6733    8278.9314    1501.6161   -1871.4897   -582.18953 
  369000    272.58363   -306.72494   -239.11051   -306.72494            0     6107.266    24.970763    24.803168     23.09624            0            0            0    14304.749    5239.9327    6594.6718    6487.1936    1104.5985   -2668.7538   -791.63473 
  369500    272.17379    -306.2699   -238.75714    -306.2699            0    4469.7442    24.847967    24.882633    23.057011            0            0            0    14255.754    3914.1891     6349.879    3145.1646   -358.25741   -1340.5745   -2595.9391 
  370000    269.15171    -305.9331   -239.16996    -305.9331            0    7365.1708    24.880114     25.14972    22.859993            0            0            0    14304.136    5474.9153    6388.7661    10231.831    1714.9703    1474.8077    283.50245 
  370500    266.04741    -307.8574   -241.86428    -307.8574            0    7126.0068     25.05472    25.035084    22.735146            0            0            0    14260.552    7883.1827    6532.5479    6962.2898    145.11052    1102.1917    589.77093 
  371000    272.21966   -309.94499   -242.42084   -309.94499            0    6440.8036    25.118734    24.769313    22.902749            0            0            0     14249.49     3266.924    7548.4874    8506.9994    1702.0282   -2085.0245   -846.64574 
  371500    266.84647   -306.66218   -240.47086   -306.66218            0    9223.4883    24.857199    24.827065    23.145997            0            0            0    14284.119    9948.0511    8130.3886    9592.0251    294.81185    3154.2171    657.68009 
  372000    268.09038   -305.14703   -238.64715   -305.14703            0    7328.3117     24.76451    24.956587    23.113302            0            0            0     14284.89    8256.6654    6711.2946    7016.9751      436.058   -947.79119    1941.4616 
  372500    259.08761   -305.83123   -241.56449   -305.83123            0    7538.0199    24.914677    24.975505    22.954947            0            0            0    14283.868    5202.4116     9183.022    8228.6262   -1974.3047   -114.41916    449.18314 
  373000    261.12367   -309.92513   -245.15334   -309.92513            0    7877.2183    24.971768    24.893837    22.829617            0            0            0    14191.875     7977.154    5746.8291    9907.6719    1768.0542   -2285.7464   -804.07077 
  373500     271.5241   -307.46829   -240.11668   -307.46829            0    5206.8882     24.92506    24.978181    22.927193            0            0            0    14274.073    4399.2072    5860.7469    5360.7103   -962.14474   -1227.9005    142.06189 
  374000    264.67233   -305.33722   -239.68519   -305.33722            0    7710.1919    24.832663    24.977513    23.046935            0            0            0    14295.049    10348.931    4893.8894     7887.755    99.397882   -396.14142    297.09948 
  374500    268.76666   -303.23215   -236.56452   -303.23215            0     9254.427    24.935632     24.87618    23.042413            0            0            0    14293.284    7190.0139      11094.8    9478.4673   -625.64208   -1607.6757    1666.6393 
  375000    270.40734   -305.75021   -238.67561   -305.75021            0    7033.9484     25.03392    24.926313      22.9137            0            0            0    14298.225    7253.4551    7337.3363    6511.0538   -2745.8579   -1114.3962    1219.3592 
  375500    271.76224   -306.99507   -239.58438   -306.99507            0    7731.3747    24.987758    24.993306    22.782731            0            0            0    14228.423     6706.878    7452.6059    9034.6403       1753.5   -417.51102    1287.6324 
  376000    269.51998   -305.29668   -238.44219   -305.29668            0    7039.0236    24.950782    25.031909     22.97432            0            0            0    14348.973    8041.4818    5549.9418    7525.6471    999.74894     447.6904    1337.7172 
  376500    263.57982   -305.25005   -239.86901   -305.25005            0    9106.2549    24.853141    24.782166    23.150364            0            0            0    14258.649     9386.549    9813.5389    8118.6768   -2265.3976   -934.79688   -869.99581 
  377000    262.73355   -307.91957   -242.74845   -307.91957            0     7258.358    24.918641    24.758631    23.118628            0            0            0    14263.071    8803.9558    9465.2466    3505.8716   -1542.8691   -1958.3521   -1342.1525 
  377500     269.1343   -309.15418   -242.39536   -309.15418            0    8807.3925    24.964589    24.994785    22.880973            0            0            0    14277.373    7543.4457    11220.707    7658.0246   -715.10213    1100.5453   -1517.4406 
  378000    277.61959   -308.89029   -240.02669   -308.89029            0    6594.1736    24.905535    25.071927    22.807136            0            0            0    14241.455    8040.7192    3293.8358    8447.9659    445.94544   -625.41474    1469.2425 
  378500    267.68788   -306.92653   -240.52649   -306.92653            0    8447.7981    24.886922    24.870552    22.995374            0            0            0    14233.021    6379.3863    9060.0092    9903.9988   -282.54427     2239.032   -1704.5569 
  379000    269.93073   -307.34977   -240.39339   -307.34977            0    5559.3919    24.923576    24.834076    23.115278            0            0            0    14307.294    4143.8859    4720.2215    7814.0682      655.474    773.98512   -684.12058 
  379500    269.54053   -308.62052   -241.76094   -308.62052            0     4839.071    24.869803    24.894638    22.979748            0            0            0    14227.331     3066.257     6528.701     4922.255    1403.7681     1966.117   -687.20459 
  380000     263.9724   -309.39117   -243.91276   -309.39117            0    6049.3081     24.90176    25.042164    22.928494            0            0            0     14298.07    5395.3326    5920.4648    6832.1268    13.278471    530.09751   -599.69595 
  380500    266.00012   -305.62336   -239.64197   -305.62336            0    7348.8373    24.886538    24.924343     22.92001            0            0            0    14216.838    7919.5285    6389.7306    7737.2529    -1265.059   -153.18813   -1100.1987 
  381000    271.99296   -307.25504   -239.78712   -307.25504            0    7887.9192    24.953696    24.872335    23.065694            0            0            0    14315.877    10908.516    6382.3988     6372.843   -1857.3862   -1380.8154    1989.7252 
  381500    281.33334   -306.13021   -236.34541   -306.13021            0    7702.9727    24.893129    24.868788    23.020477            0            0            0    14251.102    5761.8172    9261.9909    8085.1101   -851.66642    1373.0271    326.21112 
  382000     268.1414   -305.99771   -239.48518   -305.99771            0    4475.5391     24.93179    24.952109    22.974207            0            0            0    14292.271    5645.0665    4483.8716    3297.6791    320.40025     1662.437   -438.20799 
  382500     273.8229   -304.37926   -236.45744   -304.37926            0    7982.6913    24.899778    24.985065    22.930941            0            0            0    14265.856    6662.4172    7916.3342    9369.3225    361.41457   -484.71821   -878.53939 
  383000     281.1419    -306.4509   -236.71359    -306.4509            0    7000.8487    24.875958    25.014796    22.944567            0            0            0    14277.648     6419.411    5472.7218    9110.4133    906.14464   -683.06405   -93.476499 
  383500    269.53776   -303.75529   -236.89639   -303.75529            0    7042.3224    24.961111    24.919629    23.002956            0            0            0    14308.336    5716.8131    7228.7391    8181.4149   -2403.1119    1921.4323    321.29771 
  384000    265.12292   -307.80302   -242.03922   -307.80302            0    9419.7536    24.898586    24.763079    23.056347            0            0            0    14215.752    7187.3092    11292.781    9779.1705   -1504.1088   -530.27254   -1776.9644 
  384500    272.08958   -309.58035   -242.08847   -309.58035            0    7053.4542    24.901615    24.881435    23.068709            0            0            0    14293.093    5667.1113    7518.9914      7974.26    1487.2308   -1204.2887   -658.06282 
  385000    262.96583     -307.815   -242.58626     -307.815            0    6160.9487    24.903767     24.96867    22.840178            0            0            0    14202.341     6564.183    4194.8581    7723.8052   -1149.5909   -2249.4026    3481.2187 
  385500    263.88776    -307.5548   -242.09738    -307.5548            0    8525.8508    24.928398    25.001254    22.794238            0            0            0    14206.308    7449.0024    8097.5711    10030.979   -1841.0456    971.10527    1615.5353 
  386000      273.312   -306.77552   -238.98042   -306.77552            0    6445.2025    25.015786    24.882145    23.012311            0            0            0     14323.93    7129.3241    6165.9295    6040.3539   -760.03111   -150.77949   -949.20535 
  386500    270.21812    -306.4306   -239.40293    -306.4306            0    8087.5785    24.835965    24.783114    23.113505            0            0            0    14226.652    8190.1706    6738.0551    9334.5097   -2099.6709    598.75161    460.43919 
  387000    263.76011    -305.4394   -240.01365    -305.4394            0    8441.7911    24.821361    24.972626    23.077657            0            0            0    14304.791    12976.724    7020.7073    5327.9418    573.64956   -319.55782    1419.4611 
  387500    273.87993   -309.08171   -241.14574   -309.08171            0    7279.7711    24.865782    24.981587    22.836013            0            0            0    14185.427    8012.8641    6550.5929    7275.8564    766.55475    159.21119   -1294.0315 
  388000    265.96994   -308.79698   -242.82308   -308.79698            0    7379.2908    25.036392    24.901408    22.842753            0            0            0    14241.118    6916.1289    4703.3358    10518.408   -1188.8563   -1893.4376    1579.3553 
  388500    264.10568   -309.41959   -243.90811   -309.41959            0    7012.8848     24.95225    24.809235     22.97571            0            0            0    14223.027    6744.2497    8169.8148      6124.59   -1813.8089   -677.74595    -1383.687 
  389000    263.26904   -308.18945   -242.88551   -308.18945            0    6797.6533    24.813226    24.871967    23.028996            0            0            0     14212.43    6253.1805    8374.2192    5765.5602    827.62568    1257.2735    2.0067409 
  389500    262.89562   -309.36059   -244.14927   -309.36059            0    6712.3157    24.855888      24.9616    22.998779            0            0            0    14269.425    6547.2498     5113.931    8475.7664   -681.46655    954.33302    410.51263 
  390000    255.17376   -308.46894   -245.17303   -308.46894            0    7992.4987    24.947271    24.869692    22.850938            0            0            0    14177.429     7895.648    8225.3533     7856.495   -1178.1612     649.7347   -1172.3706 
  390500    273.13376   -307.77505   -240.02416   -307.77505            0    7857.3848    25.033767    24.904398    22.936714            0            0            0    14299.915    7183.6127    8234.5861    8153.9557     944.9683    3239.8539   -1416.1161 
  391000     274.4528   -307.50521   -239.42713   -307.50521            0    5789.0447    24.816002    24.894898     23.07086            0            0            0    14252.989     6656.996    6343.3895    4366.7485   -498.68242    1877.5483   -1096.3467 
  391500    273.80591   -307.56662   -239.64901   -307.56662            0     9756.117    24.810258    24.951309    23.063329            0            0            0    14277.317    10255.395    8899.6626    10113.293   -1469.9292   -2208.3896    1867.4729 
  392000    267.33235   -308.22311   -241.91126   -308.22311            0    5660.9408    25.057579    24.904986    22.959047            0            0            0    14327.792    7271.1757    4657.3193    5054.3274   -273.09672    2725.2059    553.18734 
  392500    276.44809   -307.90126   -239.32825   -307.90126            0    8996.2992    25.022181    24.783699    22.784475            0            0            0    14129.615    7073.2525    9120.0405    10795.605   -88.014089   -1385.1406    661.71711 
  393000    267.17882   -306.05184   -239.77807   -306.05184            0    4488.9186     24.94756    25.011133    23.016081            0            0            0    14361.269    7196.8806    2203.8079    4066.0674    813.66493   -1590.9209    737.64807 
  393500    268.97943     -305.937   -239.21659     -305.937            0    9325.3825    24.778213    24.897101    23.042053            0            0            0    14214.773    7857.0892    10845.274    9273.7843    385.05258    1257.7405    765.35261 
  394000    264.70549   -307.29862   -241.63837   -307.29862            0    10325.291    24.946055    24.840632    23.025186            0            0            0     14268.15    8531.7635    12524.499      9919.61   -926.25186   -529.57244   -634.19235 
  394500    268.81341   -306.02193   -239.34271   -306.02193            0    6386.4584    25.011121    24.891515    22.902803            0            0            0    14258.476    6354.1711    6042.7979    6762.4062     665.4294   -1851.3688    48.059186 
  395000    264.93496   -306.28588   -240.56871   -306.28588            0    4734.1792    24.912229    24.973052    22.940634            0            0            0    14272.157    3025.7854    6076.9518    5099.8004    117.87219    1670.6626    612.93467 
  395500     272.5395    -309.5832   -241.97972    -309.5832            0    6317.5206    24.799968    24.926765    23.003508            0            0            0    14220.377    9092.4007    2849.0782    7011.0828   -401.46462   -2140.5044   -246.87959 
  396000    264.46842   -307.71418   -242.11273   -307.71418            0    5941.1759    24.891857    24.881251    23.038643            0            0            0    14268.766     7880.696    6389.7904    3553.0414    1047.1022    -3705.984   -553.65354 
  396500     277.4539   -305.85912   -237.03662   -305.85912            0    7588.5226    24.959708     24.84772    22.958288            0            0            0    14238.542    5208.8946    9664.4331    7892.2402   -111.83287   -553.84437   -485.56224 
  397000    266.74256   -308.21726   -242.05171   -308.21726            0     5838.581    24.949214    24.894002    22.928366            0            0            0    14240.482    6792.2823    6404.6415    4318.8193    159.14041   -1024.4466    1204.8609 
  397500    265.93928   -305.06192   -239.09562   -305.06192            0    6646.0202    24.969536    24.942995    22.918524            0            0            0    14274.001    3911.5621    6214.9289    9811.5697    -1783.897    -163.1289   -2233.3652 
  398000    267.69691   -307.30304   -240.90076   -307.30304            0    8152.2586    24.861971    24.865765      22.9571            0            0            0    14192.353    8781.5764      9667.11    6008.0894   -136.52043    271.72009    302.85936 
  398500    267.90454   -307.13286   -240.67908   -307.13286            0    6132.4881     24.91823    24.936981    23.096443            0            0            0    14351.793    3665.1174    8883.8743    5848.4726   -1075.8694    72.644604    748.50416 
  399000    269.17586   -309.86628   -243.09715   -309.86628            0    8862.7777    24.837957    24.813049    22.904321            0            0            0    14116.057    10412.607    7513.5952     8662.131    393.07303   -1869.2149    273.49496 
  399500    261.20642   -308.26439   -243.47208   -308.26439            0    6189.6739    25.044208    24.974922    22.967908            0            0            0    14365.901    5578.6879    6696.7955    6293.5381    2086.5338   -165.73243    912.87585 
  400000    270.99867   -309.86219   -242.64091   -309.86219            0    7980.7532    24.937072    24.856745    22.861764            0            0            0    14170.966    7540.7543    7129.8814    9271.6238    410.31829    2013.2141    -2530.434 
Loop time of 4473.45 on 1 procs for 400000 steps with 1920 atoms

Performance: 3.863 ns/day, 6.213 hours/ns, 89.417 timesteps/s
63.1% CPU use with 1 MPI tasks x 1 OpenMP threads

MPI task timing breakdown:
Section |  min time  |  avg time  |  max time  |%varavg| %total
---------------------------------------------------------------
Pair    | 3741.4     | 3741.4     | 3741.4     |   0.0 | 83.63
Bond    | 0.064785   | 0.064785   | 0.064785   |   0.0 |  0.00
Neigh   | 580.23     | 580.23     | 580.23     |   0.0 | 12.97
Comm    | 15.635     | 15.635     | 15.635     |   0.0 |  0.35
Output  | 104.99     | 104.99     | 104.99     |   0.0 |  2.35
Modify  | 28.96      | 28.96      | 28.96      |   0.0 |  0.65
Other   |            | 2.212      |            |       |  0.05

Nlocal:        1920.00 ave        1920 max        1920 min
Histogram: 1 0 0 0 0 0 0 0 0 0
Nghost:        7178.00 ave        7178 max        7178 min
Histogram: 1 0 0 0 0 0 0 0 0 0
Neighs:         0.00000 ave           0 max           0 min
Histogram: 1 0 0 0 0 0 0 0 0 0
FullNghs:      546634.0 ave      546634 max      546634 min
Histogram: 1 0 0 0 0 0 0 0 0 0

Total # of neighbors = 546634
Ave neighs/atom = 284.70521
Ave special neighs/atom = 0.0000000
Neighbor list builds = 40000
Dangerous builds not checked

unfix		3
unfix		2

write_data	data.final.${pid}
write_data	data.final.0
System init for write_data ...

write_restart   restart.lmp.${pid}
write_restart   restart.lmp.0
System init for write_restart ...
Total wall time: 1:14:37
