LAMMPS data file via write_data, version 23 Jun 2022, timestep = 142996000

2592 atoms
2 atom types

0 31.164 xlo xhi
0 21.490526 ylo yhi
-0.731710136871321 32.41621415376645 zlo zhi
-9.197534 0.8117764464746846 -11.123831845618017 xy xz yz

Masses

1 1.008
2 15.999

Atoms # full

1008 0 2 0 12.61097851807019 2.554422500346889 15.027623443984176 0 1 0
922 0 1 0 -3.118979744039608 5.140398145395901 10.817514858989144 2 0 0
387 0 2 0 3.14397463601575 2.222168548598744 11.444102993240787 -1 1 0
2229 0 2 0 7.412610189044675 5.960355060285252 4.69641048815479 -1 0 1
148 0 1 0 3.9368715627445723 14.538413918625753 12.608467183064494 -3 -4 0
813 0 2 0 8.310142126490067 6.8841545264341 7.239758448659714 1 1 0
864 0 2 0 1.7325053723879398 12.815207382337283 1.8482164680610431 0 -2 0
786 0 2 0 6.9115856594838005 2.6222060501292015 15.137920165194004 -2 -2 0
577 0 1 0 1.2133031990417427 5.342906003590239 11.88296499722033 -1 -3 0
105 0 2 0 0.46159770268840356 12.525670231243282 4.110173419658501 1 -1 0
854 0 2 0 3.6465769314496743 7.392987871540222 10.555154398554263 1 0 0
4 0 1 0 4.523213641339751 15.5563693799285 1.0742049928777317 -1 0 0
682 0 1 0 5.052672778446877 3.632760581891544 14.945463668053835 2 1 0
2265 0 2 0 -0.9181829256760698 13.460086352057964 6.076881537659483 2 -3 1
553 0 1 0 -1.5259289033555397 1.4117922887196892 12.34301033878815 1 2 0
2291 0 2 0 -6.808431958562424 15.904915032540304 13.617164836513037 0 -2 1
70 0 1 0 10.065934398197145 -1.7870463999880761 10.420544363280644 -1 3 0
1030 0 1 0 8.311596829370256 8.507299207409872 14.696081510277777 1 0 0
932 0 2 0 -3.7792957551527304 11.615695246121426 9.322788501603714 2 -1 0
858 0 2 0 0.9282362971900011 4.5226456776620845 2.1124032090935256 0 1 0
756 0 2 0 9.596503196171778 -0.2683468718661981 13.584000988327793 -1 -1 0
2401 0 1 0 -5.220534928674818 16.335513495080335 10.503995624929777 0 0 0
663 0 2 0 5.918446789095253 12.679123357646326 11.37717544167843 -2 -3 0
846 0 2 0 0.32078828205562315 16.937676553049833 8.110551494427195 1 -1 0
1217 0 2 0 11.68806662752935 -2.4667575826693016 10.141663821204883 -2 3 0
2263 0 1 0 -0.8411759902396486 13.3410252797911 5.087527682239412 2 -3 1
1020 0 2 0 8.94055575488168 4.52768335200709 -0.26944493217906756 0 -1 0
2247 0 2 0 9.921872686609513 3.5852373134289364 14.489470426875936 0 2 1
440 0 2 0 7.843661837528452 9.16249356096888 1.455749645266871 -2 1 0
2171 0 2 0 -2.13109433606463 8.509045614860836 3.3888911362680307 -1 -4 1
1447 0 1 0 0.5637936681519394 8.648506851196613 14.973671282820947 1 4 0
233 0 2 0 1.1986267587252335 11.828190122034545 -0.5421769764179694 -1 2 0
930 0 2 0 -2.993221423369939 18.845783113627185 2.5372629023811393 1 1 0
1104 0 2 0 4.828199794778014 -2.8130275551859834 13.142542881498086 0 2 0
2182 0 1 0 6.067669835252263 11.662530451260482 4.777971549578747 1 0 1
519 0 2 0 2.0240232615840767 4.129105125539107 15.581976443564134 1 0 0
736 0 1 0 5.946278319838212 1.5974924978451734 4.614993882707349 -3 -8 0
2258 0 2 0 0.8066952339476869 -3.299782445259163 15.80937929074388 -2 2 0
2250 0 2 0 12.993931572671912 -1.308061994619384 3.47775319753519 0 1 1
502 0 1 0 5.8600133462272925 -1.0108130834409907 10.282296069128101 -2 2 0
104 0 2 0 0.5787232564877464 11.282890564852986 3.1026925408363715 1 -1 0
1556 0 2 0 -1.9461028597421577 16.439109692806685 11.06685240722005 0 1 0
662 0 2 0 5.456292689374345 13.581997761275627 12.500486203853622 -2 -3 0
1176 0 2 0 7.3162507492901865 1.0421838643304038 0.9573502543894756 -3 -4 0
1191 0 2 0 6.270608708205273 1.9232157562201646 13.340790409432302 -1 1 0
5 0 2 0 4.567452079863331 16.509648823256303 0.9917368659938715 -1 0 0
424 0 1 0 -1.5066812231385185 6.144582105179463 8.791808217800737 -2 -1 0
558 0 2 0 -6.5831967596401535 16.16349310170526 4.504989512463705 1 0 0
386 0 2 0 4.522816384721801 2.4045924006541766 12.082570498975397 -1 1 0
1166 0 2 0 -1.4176828799216343 3.0291768010802245 7.566519360736569 1 1 0
131 0 2 0 1.008551060472637 13.936328058369401 15.227269134491149 0 0 0
1105 0 1 0 0.8297545879759215 -2.7066596125618845 7.53369868985037 1 -1 0
2438 0 2 0 0.32753688540021686 7.690492822576346 -0.5466294998999321 -1 -5 1
481 0 1 0 6.316250699402604 17.10817911203813 4.415511010843261 -3 -4 0
2278 0 1 0 1.282924832113756 3.7653915242097935 7.822577684288159 1 -3 1
619 0 1 0 2.0497237987476162 1.235162298027865 10.538383163571513 0 2 0
1557 0 2 0 7.636870739518965 -3.761497561511023 11.969628874417788 0 2 0
811 0 1 0 8.260754969467545 6.895794105961366 8.203852374311465 1 1 0
626 0 2 0 4.792116157627097 19.645318805665024 1.437715401863254 1 2 0
1341 0 2 0 2.9983416546073633 -1.5492103993613626 3.938025741595319 2 -2 0
2270 0 2 0 9.580241845462728 -3.99183457992768 15.049202634883054 0 0 0
1243 0 1 0 -5.44476447153904 18.302205889835957 6.974748257027369 1 -1 0
2207 0 2 0 3.573932444294066 8.460829150477053 8.128478003432072 0 -1 1
1011 0 2 0 6.223389733228232 5.279604509458476 1.2727892927092124 3 2 0
869 0 2 0 -2.822650906119563 7.9303354829864965 6.1347901473691095 -1 -2 0
90 0 2 0 2.1631492677625954 15.880704353570962 14.924783611951142 1 2 0
719 0 2 0 9.323255178399432 10.111141830625717 2.628184193716592 -3 1 0
775 0 1 0 -4.214478440458783 7.3866275565727975 9.170306508473582 2 0 0
43 0 1 0 10.563699001843302 5.760605789398193 9.054978512452864 2 -1 0
2320 0 1 0 -2.0029097144380903 8.84976896430393 10.877502254738365 0 1 1
1279 0 1 0 5.588631425770564 15.398032315339403 14.895473104456855 1 1 0
1174 0 1 0 8.21778892816787 1.3025605708441017 0.6778738791969809 -3 -4 0
6 0 2 0 4.093837610740869 15.385870494422758 1.914987053066485 -1 0 0
2586 0 2 0 10.949133240443121 6.826933919237211 2.494885532846321 1 0 1
72 0 2 0 9.441183041192009 -1.7262044940677574 11.1617313884895 -1 3 0
425 0 2 0 -0.5740906508486356 6.48008367295185 8.739608590031205 -2 -1 0
339 0 2 0 14.713756233784258 -0.849900663590907 9.383744028802058 -1 -3 0
338 0 2 0 13.541581055370576 0.0903702489716256 9.375393381455916 -1 -3 0
1029 0 2 0 -6.234880040857293 20.459803556315567 0.4741339897481047 2 2 0
234 0 2 0 0.41506373763413495 11.041806031842459 0.4846702580643234 -1 2 0
1060 0 1 0 8.453698031222311 10.638578734152782 3.8754456764239213 1 -2 0
1118 0 2 0 6.611113429746024 11.065924252597341 15.361064907546119 -1 -1 0
396 0 2 0 -2.7107738451989993 10.81398352548561 7.165723807604003 1 1 0
688 0 1 0 1.3108795789479821 7.755385213501352 4.705519480508426 3 2 0
2292 0 2 0 3.4916786834315716 -4.5733186156251655 13.977181828345827 0 -1 1
2579 0 2 0 -1.8904049268254761 4.426930587649521 2.844732122942938 0 0 1
564 0 2 0 7.196030437212744 -0.7031006376763509 14.89779312175386 -4 0 0
225 0 2 0 -0.3332256641916478 13.259335181152412 9.186138384591839 -3 -1 0
703 0 1 0 2.9252215110643265 1.2523573740755425 6.712378340274806 -1 0 0
2176 0 1 0 12.2988091230564 1.4464296165396102 6.739655527211858 0 1 1
704 0 2 0 3.5102887323852983 1.8913849925697779 7.174213488929358 -1 0 0
1294 0 1 0 7.081989749852513 17.13416857852983 7.414132759691501 1 -3 0
1248 0 2 0 3.7185811820216936 9.722302136907421 4.373024236027611 0 1 0
39 0 2 0 3.9623956160192693 5.290116041039857 2.755036901711164 0 1 0
857 0 2 0 1.6244796371617365 4.395730548008538 0.6814335366565292 0 1 0
549 0 2 0 9.93694477626354 8.918058888585902 11.889928675204173 0 5 0
297 0 2 0 -3.1873500931928618 8.647664775453094 8.119309211919749 3 1 0
383 0 2 0 5.3566974921587125 0.057081277796317664 15.081525605316513 0 3 0
2177 0 2 0 12.403922943797925 1.6803445828034835 5.770524766463957 0 1 1
789 0 2 0 1.1079943080980346 2.2058974109172236 4.255100559738295 1 5 0
770 0 2 0 0.01122297677545301 2.9487444105178873 -0.08213238191567307 0 -4 0
1304 0 2 0 7.144031362357655 -1.4302202126618626 11.347879211794613 1 2 0
1111 0 1 0 -0.03397873326235856 -1.3620741483110432 13.729768004313167 3 -1 0
531 0 2 0 5.088693447324807 1.2883262705049794 1.6918192953114048 0 2 0
37 0 1 0 3.5431842198025203 4.657925609650967 3.380049763497886 0 1 0
2321 0 2 0 -2.8562069196184794 8.424545623431657 10.829544470294438 0 1 1
311 0 2 0 -0.512612618559454 10.096913800370956 13.213107995417982 2 -2 0
189 0 2 0 7.418080788626616 -0.9234297461042114 4.859998141579884 0 1 0
461 0 2 0 -2.192736766514026 11.50112613402121 2.741340651575204 1 0 0
2202 0 2 0 3.986142230874231 12.772036127088356 5.61160474538637 -1 -1 1
145 0 1 0 7.582371308471001 13.845815423422192 15.716167272643602 0 -3 0
1305 0 2 0 7.718584755736224 -1.4044375618993445 12.747582193101694 1 2 0
1145 0 2 0 11.350309416223354 0.9006757819569007 13.984151081863214 -1 -3 1
83 0 2 0 1.5008017530348665 -0.38029355209005455 13.188227740080592 2 1 0
945 0 2 0 8.5021978836717 6.485603342815043 -0.32379667005476265 1 -1 0
769 0 1 0 -0.6611448536199239 2.469403259441008 -0.558342100984823 0 -4 0
753 0 2 0 4.5867289538696765 16.277622507265292 7.253758725153419 0 2 0
1189 0 1 0 5.938621877708216 1.5813327440221698 12.514804617203184 -1 1 0
2555 0 2 0 0.7734777108374784 8.289076267735796 8.348080912873773 -1 -1 1
413 0 2 0 3.725954214431946 15.789489040158427 3.898793594941357 -1 0 0
2328 0 2 0 1.661670180021106 10.341775475788893 15.001393797530369 0 0 1
2588 0 2 0 11.379376766782043 2.885226300013927 7.3919971892023515 0 3 0
1153 0 1 0 -0.18444552655299407 3.055147527569157 10.685044494025894 0 -2 0
919 0 1 0 -0.08174648783796362 1.9408368655102306 14.760884138816154 4 2 0
450 0 2 0 10.500738916808634 3.009646743702663 2.3295763563410237 1 0 0
1027 0 1 0 -5.505587052911475 19.896616137819873 0.7646718464723414 2 2 0
2545 0 1 0 6.2703163846962 9.863745110915106 6.729930286044508 -2 -1 0
936 0 2 0 6.048658484661221 8.555359543492573 0.0805077321133888 -1 0 0
182 0 2 0 5.772587545763508 -0.5967444833427362 7.217664512834229 -3 0 0
446 0 2 0 -0.18935251257671898 -1.3872635830047453 11.93648862821274 0 2 0
612 0 2 0 7.088556014995711 3.065184707269008 2.9519466034606854 0 -1 0
1206 0 2 0 6.236763223444324 11.659554384442071 13.327836589539887 1 0 0
2329 0 1 0 -1.727509783615004 15.733451392034562 9.618021391078805 -1 0 0
762 0 2 0 -6.306327897084661 13.936484048753243 5.811125414432513 2 -1 0
1124 0 2 0 -3.795361023201684 13.967088082837158 2.776163648458722 -1 -4 0
488 0 2 0 8.375679353192712 1.0366514408805547 7.793264299908172 -1 -1 0
507 0 2 0 6.143765997482729 14.974703284791767 6.283361442418925 2 -1 0
370 0 1 0 -3.9527087917892065 14.547021751834222 12.640248191730622 1 2 0
303 0 2 0 8.265819533530847 1.1576681140853222 9.986749157371724 -2 -2 0
1154 0 2 0 -0.6780179908460937 3.473556712109548 9.965359590215382 0 -2 0
974 0 2 0 2.6919184405164236 3.4039040947804047 13.284041110435828 -1 -1 0
1519 0 1 0 3.6326799657315294 11.143514431966228 3.541002932168137 1 -1 0
2554 0 1 0 0.12744748802232822 8.991797778373993 8.510985109893413 -1 -1 1
1034 0 2 0 8.157898313323173 8.062837963132834 5.1192629964944 1 3 0
1627 0 1 0 -0.14166336539329127 12.991109297300683 11.02629708668883 1 5 0
114 0 2 0 -2.2159939821979293 11.620863132721333 12.485472197148255 -2 -2 0
2330 0 2 0 -0.7307245094137098 15.608267288070095 9.638320197318857 -1 0 0
2218 0 1 0 11.787811642151732 0.367069014605903 10.137750962180744 -2 -2 1
1521 0 2 0 2.9774406043100416 11.844009696961944 3.6840219656538684 1 -1 0
451 0 1 0 8.606581041296451 -2.987791505655085 8.387393032326287 -1 0 0
1249 0 1 0 3.931108718498152 9.23052957863986 10.64243286449326 1 3 0
408 0 2 0 -2.4871183183331174 11.753748271410212 0.0050033257422968935 -1 2 0
2280 0 2 0 0.7667286404398361 2.9445672108888115 7.5514861419113934 1 -3 1
2227 0 1 0 8.056219500525419 5.436277970314914 4.309947022731671 -1 0 1
185 0 2 0 5.532580270763891 -3.4837360447547514 15.062042322556952 2 0 0
676 0 1 0 -2.2480103521863626 17.2164650434315 4.967610443136725 1 3 0
1255 0 1 0 4.789970420086934 -0.9790115799963273 12.701734963809521 0 -2 0
952 0 1 0 7.225636190284581 15.18687898933957 9.451452776262402 -3 -5 0
45 0 2 0 11.038425712417363 5.832964482856451 9.869300141074817 2 -1 0
71 0 2 0 10.419145735969511 -0.8681363365687993 10.35447065401495 -1 3 0
2566 0 1 0 6.685174195519413 7.869590094726694 4.284039084721328 3 0 1
728 0 2 0 8.562764981331162 4.7012553923301335 10.363862579640564 -2 2 0
127 0 1 0 -4.765353165134228 13.68287186367833 1.0349776041372996 2 -3 0
669 0 2 0 12.21755846111673 1.7375164517348733 1.4272641275353806 2 1 0
1561 0 1 0 11.958420862304115 2.5695458507913784 11.760113669865913 -1 -2 0
449 0 2 0 10.130030953271246 2.8812150396080094 0.768945542188924 1 0 0
201 0 2 0 3.8237378769431762 4.97611056667423 0.09013960395982223 -1 1 0
448 0 1 0 10.879381798397002 2.9758315355791956 1.4041236266982828 1 0 0
605 0 2 0 10.248627267010312 0.19746104446492718 2.3782947318363465 2 0 0
452 0 2 0 9.12895312275293 -2.5786631975888703 9.120053681806207 -1 0 0
47 0 2 0 7.089387186923451 3.0354077188651454 6.930717940024365 1 -4 0
673 0 1 0 5.0553169022234075 4.552056443745066 10.378316856890446 0 1 0
2301 0 2 0 11.20062131738359 0.18651439283302063 4.158639643136353 2 0 1
2264 0 2 0 -1.565434006201319 12.812888215704568 4.791403247417382 2 -3 0
345 0 2 0 13.098730374975041 1.7984572729525878 3.314091728812115 4 2 0
2208 0 2 0 3.2445713154379097 9.031839380163708 6.744994732812028 0 -1 1
2327 0 2 0 2.2927411241959885 11.73331300843474 14.43202360805345 0 0 1
624 0 2 0 3.9557703825005226 6.465552729763206 14.425268191010385 1 0 0
920 0 2 0 -0.6141810404076307 1.6472222510038756 13.967457910078172 4 2 0
584 0 2 0 2.1937494795075265 14.387751622667617 0.18946769676737196 -3 -3 0
1199 0 2 0 0.4777915992916223 15.927281354522679 6.274067673567623 -1 1 0
154 0 1 0 -2.049522227718896 15.539840472055271 14.603420314232782 -1 2 0
720 0 2 0 9.976678408686187 8.919182511619727 1.8156645161142846 -3 1 0
604 0 1 0 10.490079746638635 -0.06341412000378877 1.450930054932321 2 0 0
504 0 2 0 5.186713063852337 -0.9273003680692073 11.019064245576708 -2 2 0
1000 0 1 0 1.3849235811711609 1.5084505424073602 2.396471468540988 0 0 0
902 0 2 0 8.177240516547286 9.595064701007592 10.99486219777998 -1 -3 0
156 0 2 0 -1.3094549108143876 14.967845818583923 14.782224577451597 -1 2 0
1229 0 2 0 -3.5465189217675492 14.268119533953756 10.003997213956353 0 0 0
2521 0 1 0 -5.603930795307772 10.35104973101898 14.613253949921026 2 2 1
732 0 2 0 2.6559582423005175 -3.5822035430795234 11.10690577346891 0 -3 0
180 0 2 0 14.20644280624663 -0.6994759476393329 7.209427446469267 -1 3 0
921 0 2 0 0.723953688897867 2.362743482621461 14.445199029700088 4 2 0
929 0 2 0 -2.1669816555866492 20.131107988460883 2.7858281447098787 1 1 0
521 0 2 0 0.9073868778149329 9.277888554103672 11.24028323646123 1 0 0
402 0 2 0 10.971943584727722 0.37348977754669355 -0.5415569275195494 3 5 0
1144 0 1 0 11.748677777913748 0.8740810193340511 14.887106867883022 -1 -3 1
522 0 2 0 0.8544377858150255 10.787371670791668 11.242335204367409 1 0 0
829 0 1 0 0.09700467721357661 18.18259534667283 2.797636036585953 3 1 0
1032 0 2 0 7.7907742421608965 8.304813172630404 13.898065754455395 1 0 0
618 0 2 0 11.358776835102985 -0.05425485658416296 6.975292033911822 -1 -1 0
482 0 2 0 6.685516154804736 17.14945868362095 3.5117589587729023 -3 -4 0
718 0 1 0 9.804133145489121 9.873701264626902 1.7626689775259528 -3 1 0
319 0 1 0 8.764399510636824 10.018330514469094 7.983234068448263 1 -1 0
785 0 2 0 8.286388290370606 2.5624118655314305 14.283850123296691 -2 -2 0
1267 0 1 0 1.6809260047369186 13.208685588335872 13.549283717710544 2 1 0
503 0 2 0 5.48069712368741 -0.4897520502616559 9.552087773743239 -2 2 0
625 0 1 0 4.919647440387403 20.39436539185232 2.036118841961924 1 2 0
290 0 2 0 3.7777308152893276 8.789797313809 0.8353059536774847 -1 -3 0
2223 0 2 0 3.5032553733302403 9.59551869682868 13.856572848122049 3 2 0
2414 0 2 0 4.06251033878711 3.0891300643917665 2.851037928553785 1 2 0
312 0 2 0 -0.9428782932806041 10.895182959536143 14.565206203511728 2 -2 0
894 0 2 0 5.985000198065059 -2.5171093560906828 9.536761331357454 0 1 0
686 0 2 0 0.17977762840842512 14.979992497493651 0.146404796407412 -2 -3 0
2299 0 1 0 10.298013222822476 0.4759431701228529 4.078796777791525 2 0 1
1059 0 2 0 12.014386665599543 5.3886260571946645 0.6201247215068122 1 4 0
1244 0 2 0 -5.625684081497646 17.757927467112772 6.189492673576841 1 -1 0
556 0 1 0 -5.936053562181323 16.890823815702994 4.576196167385163 1 0 0
1103 0 2 0 5.805290794858531 -4.010400770007644 12.87204127966501 0 2 0
1156 0 1 0 10.174150908933704 3.4013825658730306 4.158574033382181 -1 2 0
696 0 2 0 1.184039199353595 17.680295138874598 5.480139395731907 3 3 0
2221 0 1 0 4.275602025259783 9.04807157407242 13.55914751960275 3 2 0
530 0 2 0 5.350667603165326 -0.02718639024733116 0.8300537572660167 0 2 0
868 0 1 0 -2.874320221870119 7.469037876440423 5.284553933142653 -1 -2 0
430 0 1 0 -2.5761096424298593 18.947988951038127 -0.4361218897670758 2 1 0
1123 0 1 0 -3.25134791838669 14.13264326054457 3.5323987467982425 -1 -4 0
136 0 1 0 3.9213415219041594 18.104895947080845 7.507569756307376 2 0 0
178 0 1 0 14.393525521124825 -1.2214767944543643 6.359583136131026 -1 3 0
782 0 2 0 5.347633607599278 10.94431007751249 -0.6612618137728435 -2 1 1
871 0 1 0 -2.684298842117386 15.558087655129228 7.055191665562171 -2 -2 0
1038 0 2 0 11.116388879944786 9.680790687302405 -0.03934170365487011 0 -5 0
103 0 1 0 1.0341128632042367 12.045808636881164 3.471402736939086 1 -1 0
1102 0 1 0 5.04370859842099 -3.716535145128737 13.410059706869518 -1 2 0
544 0 1 0 -2.5398584992760345 3.365176423770304 14.902942322116703 0 5 0
1200 0 2 0 0.317752032912951 15.745214357812813 4.656796639266904 -1 1 0
219 0 2 0 1.3731399448766657 6.756318586267313 3.119454311316326 -1 -1 0
944 0 2 0 9.093295230758972 6.17089045096893 1.0445236356418324 1 -1 0
412 0 1 0 3.4249016444354767 14.90661311008672 3.639391881693526 -1 0 0
739 0 1 0 -5.0386425205563175 10.720147173811421 4.524041356976263 2 1 0
2200 0 1 0 3.3033467942356634 13.333151379374742 5.974771187713217 -1 -1 1
2201 0 2 0 2.538930885668088 12.794821265141094 6.291631141256062 -1 -1 1
441 0 2 0 6.495846868058832 9.85269227933568 1.8784666661496514 -2 1 0
1269 0 2 0 1.2082730627492613 12.848828147675391 12.813511476293485 2 1 0
453 0 2 0 -1.4610566737062425 18.217411124428793 8.76817165138673 -1 -1 0
262 0 1 0 -4.448269499158813 13.63766874830339 5.940003358086218 -2 0 0
183 0 2 0 5.81023645014399 0.8821703869836441 7.626321892577829 -3 0 0
1233 0 2 0 9.918342641414583 7.4806305066416305 15.19721035943149 0 0 0
1665 0 2 0 8.136944076461848 12.791021259384276 9.56175781952758 0 0 0
50 0 2 0 12.1353010106889 4.223010219069755 11.211807975393626 -4 -3 0
730 0 1 0 2.522197079897545 -2.6216522093471673 11.115974481079686 0 -3 0
152 0 2 0 -6.359494237689866 15.641192933691624 9.360239175776268 0 -1 0
1057 0 1 0 11.85819454643936 4.962112098162776 -0.2582751066292549 1 4 0
2219 0 2 0 11.501739710907337 0.6587173902083294 9.282739212625325 -2 -2 1
2290 0 1 0 -6.379260821953045 16.367024525956264 14.416449188738552 1 -2 1
749 0 2 0 2.9070502434181202 16.99562699909067 10.775328434968433 -1 0 0
835 0 1 0 2.59488246355834 18.74812890193252 1.6751615186323523 -2 -2 0
855 0 2 0 4.063078095756065 5.870841935918169 10.419233380133907 1 0 0
606 0 2 0 1.5048550304499182 20.469000350778945 1.418067913123695 2 -1 0
1449 0 2 0 -0.12710207256018913 8.565515077364548 15.679483923320007 1 4 0
1031 0 2 0 7.680754168404053 8.206367127454914 15.373085431237627 1 0 0
1106 0 2 0 1.3434303861218237 -1.9206741115138104 7.878294992092854 1 -1 0
505 0 1 0 6.533555936372079 14.55307215445477 5.562999467388595 2 -1 0
873 0 2 0 -3.4219770193634997 14.941844900397584 6.870992514383913 -2 -2 0
861 0 2 0 12.879307268803064 -2.608748001406498 13.100741280696566 0 0 0
410 0 2 0 3.6847640345311246 -1.665137919669618 5.800367127773068 1 0 0
88 0 1 0 10.936195721084 -5.023976511692199 14.280261788107019 1 3 0
398 0 2 0 5.177855468768733 8.243105849495542 15.02998578569208 0 0 0
263 0 2 0 -3.7581655490678654 13.050927036898273 6.25017187321383 -2 0 0
1010 0 2 0 5.259004966699175 6.471517121723094 0.837300498158654 3 2 0
787 0 1 0 1.5588418030374451 2.850655401184649 4.8420501652469685 1 5 0
973 0 1 0 1.917589916735316 3.6679830918084626 13.79488263726968 -1 -1 0
2259 0 2 0 1.2950135736272008 -4.153366725332538 14.664429680781753 -2 2 0
1198 0 1 0 0.39209906502240194 16.380279809479322 5.396028775140869 -1 1 0
2531 0 2 0 2.6681713358657335 10.56752944648699 9.702796006144895 1 3 1
472 0 1 0 -3.496773630778869 8.888734975669603 14.168514718965517 -1 -1 0
926 0 2 0 5.942055932634305 18.726302337185682 -0.12918701298683088 -2 -1 0
893 0 2 0 -3.7160224556603034 18.15496345650063 8.387532351187126 0 0 0
520 0 1 0 0.8177319120013539 10.025678277282172 11.850505622668825 1 0 0
489 0 2 0 9.759389411099429 0.36613644207397167 8.0450659801559 -1 -1 0
2428 0 1 0 -0.477117170070115 15.276340718759155 3.05849974017531 0 -1 1
1002 0 2 0 1.3083864020137552 2.3677451774440823 1.912371699117748 0 0 0
2172 0 2 0 -2.773126255893141 8.753903707591103 1.9331909284548279 -1 -4 1
1250 0 2 0 3.845818436454068 9.02748933057391 11.628546912903973 1 4 0
563 0 2 0 8.188416376662992 -1.990862016339332 14.84342079560902 -4 0 0
1021 0 1 0 -0.6305400968291827 9.818202247362153 5.559871504955874 -1 -1 0
1062 0 2 0 8.97463023058979 10.544822864605795 4.716903649090984 1 -2 0
2578 0 1 0 -1.841775098333778 5.4089738800192775 2.6287854334767418 1 0 1
1036 0 1 0 11.68793163549853 8.910295120293396 -0.34951850627440273 0 -5 0
925 0 1 0 5.052483380292532 18.431197483068487 0.0698502615625759 -2 -1 0
892 0 1 0 -3.17260222260593 18.095573315637683 9.173472796922077 0 0 0
137 0 2 0 3.0461444696736644 18.269244179775463 7.093707312989284 2 0 0
1555 0 1 0 -1.858583879355392 16.802038054962704 11.99125826219422 0 1 0
2591 0 2 0 2.9976215513820703 -1.2968515593697103 9.569574888867988 1 1 1
32 0 2 0 -1.1426305745729544 2.4538947081900773 4.860747349492101 2 4 0
1063 0 1 0 9.166184528680128 5.806996449326944 12.160249111490204 -1 2 0
741 0 2 0 -4.121299693706867 10.814689041433247 4.270328480448629 2 1 0
828 0 2 0 -2.724810283952188 17.15456197935469 0.2619340419980043 0 0 0
942 0 2 0 -0.07641043300024203 4.934833774322897 5.621639163045211 1 -1 0
516 0 2 0 1.037759699001552 9.190489452116632 1.987144374729727 -1 -3 0
2536 0 1 0 7.020559767852062 8.492496694522089 9.998615024442028 0 0 1
1205 0 2 0 7.30143300503466 10.585554832086896 13.391941550252248 1 0 0
1195 0 1 0 -2.9745397255278796 5.753709183216677 13.485791229976249 -2 -1 0
684 0 2 0 4.800940332492185 4.367686444004291 14.399915951055304 3 1 0
886 0 1 0 12.653993672105212 -1.1198509254352422 12.76969917311674 0 -3 0
750 0 2 0 1.672464034470253 16.21941925648119 11.22363954658659 -1 0 0
755 0 2 0 9.308315435961541 0.4887907593918559 12.129581673907328 -1 -1 0
426 0 2 0 -1.503626320529498 5.281401992607307 8.333734700265278 -2 -1 0
742 0 1 0 2.7483117098315115 6.830646343597644 15.667537581209071 0 2 0
523 0 1 0 6.999646536637397 -1.811336194337668 6.323106312959722 -1 -4 0
129 0 2 0 -5.2212048665495026 13.004959242236119 1.6019312112835662 2 -3 0
831 0 2 0 -0.5912179877282102 18.61715770715049 2.266482745643114 3 1 0
940 0 1 0 -0.364133068561151 5.758276988753748 5.173450162666844 1 -1 0
515 0 2 0 -0.47589126812762683 9.364425430415103 1.9636804388217262 -1 -3 0
320 0 2 0 8.82853159712052 9.090973816867953 8.256121214536687 1 -1 0
689 0 2 0 0.9607239921317208 8.699852552728716 4.829683175975106 3 2 0
223 0 1 0 -0.2155105220183134 13.365418201081136 8.218706835254938 -3 -1 0
814 0 1 0 5.365047342332808 7.287565172583083 7.730738903662331 0 -1 0
870 0 2 0 -3.769678768905387 7.638256949087236 4.952523610453921 -1 -2 0
153 0 2 0 -6.793881173808197 14.833943112293401 8.011058550792338 0 -1 0
826 0 1 0 -2.8134387629282576 16.216582813956542 0.4207616199000328 0 0 0
2502 0 2 0 4.4519214657478186 3.957870169603312 8.876232218798586 0 0 1
903 0 2 0 8.896672555789332 10.953167147491122 11.239855063032238 -1 -3 0
1109 0 2 0 2.912537853913325 5.488247118687578 6.7483603167845505 1 2 0
264 0 2 0 -4.149215421449939 13.88767386363774 5.093244813894934 -2 0 0
954 0 2 0 6.86414065432612 15.767448871687037 8.808949767352942 -3 -5 0
524 0 2 0 -2.4157055297001113 18.75006517723219 6.014390221160939 -1 -5 0
2213 0 2 0 15.173325300825384 -3.770578638925449 11.583857316218886 0 -1 1
2402 0 2 0 -4.517257368774703 16.95479727930606 10.30130401205848 0 0 0
44 0 2 0 10.84415525449496 4.85154195039805 8.742258702987831 2 -1 0
101 0 2 0 3.9268261651153282 14.209367527827046 8.588547136245944 3 3 0
707 0 2 0 0.8335776450058093 12.067451925572449 7.436314121068753 0 2 1
1224 0 2 0 -2.5838554599551893 8.353537708993706 15.826080894374865 1 1 0
2248 0 1 0 12.458751769057148 -1.0495304589449796 4.288592252392435 0 1 1
622 0 1 0 4.447449089410658 5.961440322638473 13.755254303333322 1 0 0
1064 0 2 0 9.643311797752489 6.670308459089396 12.247179925138589 -1 2 0
414 0 2 0 3.1136055224717833 14.457977987746851 4.500762557591708 -1 0 0
836 0 2 0 2.7586499379263243 18.377885352890818 0.7622190624162917 -2 -2 0
545 0 2 0 -2.583282274092511 4.101241323711557 14.268779696579584 0 5 0
616 0 1 0 10.803142469394574 -0.6937443312119962 7.470204089117708 -2 -1 0
1251 0 2 0 4.657486508410016 9.87751615443841 10.5517221948657 1 3 0
1592 0 2 0 9.036034573043944 12.452593442289785 3.646240161350077 1 0 0
150 0 2 0 3.609905739637597 15.232117121382364 11.899013677803755 -3 -4 0
859 0 1 0 13.046908764725085 -3.5197428461377265 13.498015556341711 0 0 0
1113 0 2 0 -0.6481289367752805 -0.9606425433428134 14.344413665827691 3 -1 0
1190 0 2 0 6.688909375720353 1.5770870609833159 11.996881304916263 -1 1 0
2532 0 2 0 2.1957276105581305 12.005675311481273 9.634090898477208 1 3 1
224 0 2 0 -0.07879871641810679 14.268292281179441 7.958648244888309 -3 -1 0
1375 0 1 0 6.888364897331002 13.921864605286173 1.3785556562723418 0 -1 0
483 0 2 0 5.446490610468256 17.452094255475078 4.298171706859623 -3 -4 0
555 0 2 0 -0.9117094604691223 1.7492748410211245 11.648202618359825 1 2 1
853 0 1 0 3.3018350281333637 6.483692540046796 10.746979862772406 1 0 0
2568 0 2 0 6.772735346126134 8.156224136030549 3.344325374620154 3 0 1
2556 0 2 0 0.5742424428075767 9.816999739970903 8.677713589187585 -1 -1 1
1246 0 1 0 3.859120319305742 8.836865027668088 4.839133897474621 0 1 0
844 0 1 0 0.7404691048311983 16.057454679686337 8.013808856737707 1 -1 0
1001 0 2 0 1.19216213861823 0.8289645419658378 1.7055120588254593 0 0 0
765 0 2 0 3.345283156793992 18.176306128995325 3.177659498418333 -1 -2 0
2279 0 2 0 2.207818953083631 3.5028970302263165 7.921486600194848 1 -3 1
1150 0 1 0 -6.228371052359335 12.792105655044708 13.70211438450815 0 -1 0
1256 0 2 0 3.8505231604359658 -1.0471161104195015 12.659123676661151 0 -2 0
60 0 2 0 -5.72467899364084 12.660810362748215 10.699362230646699 2 -1 0
2183 0 2 0 5.897994620995175 11.128507339240574 5.5827017630752716 1 0 1
1107 0 2 0 0.31032694628456836 -2.4837752417449805 6.736086219488062 1 -1 0
1236 0 2 0 2.829842788229727 0.969573399017376 14.025201707336073 0 -2 0
2403 0 2 0 -4.940152469325704 15.909427605779126 11.324595705613964 0 0 0
460 0 1 0 -2.231614027011127 11.421966679008682 3.6869576110406603 1 0 0
59 0 2 0 -6.589784306789377 12.510673856061937 11.942040155690758 2 -1 0
406 0 1 0 -2.3973949266737975 12.06004136648005 0.9122154270037506 -1 2 0
815 0 2 0 6.17477605389214 6.799587177040747 7.930123581701034 0 -1 0
2228 0 2 0 7.6522022508518175 5.109768826881282 3.5042287451445278 -1 0 0
1628 0 2 0 -1.1184171697593153 12.803469441404836 11.218540757405034 1 5 0
610 0 1 0 7.468662641729789 3.5806932988375357 2.2309742517239384 0 -1 0
964 0 1 0 1.3283674492157589 6.373884967469502 8.5804534633547 -1 -1 0
1033 0 1 0 8.802329407451495 7.899488797380171 5.820774367831939 1 3 0
2415 0 2 0 3.1887079771234257 1.7988012179679562 2.4940544412949395 1 2 1
567 0 2 0 4.461636082892229 14.719949555711255 -0.49788110906865424 -1 -4 0
754 0 1 0 9.993806135761806 0.11818076004791589 12.770438854439258 -1 -1 0
2322 0 2 0 -1.9644754815127492 9.680998253036067 10.376550678354157 0 1 1
674 0 2 0 4.456712940873494 3.8096526769552757 10.74970530751807 0 1 0
1134 0 2 0 -0.4601028666972356 7.673392993219391 13.515833874915492 1 2 0
1593 0 2 0 8.201504594795205 13.385819766424333 2.8003796324662904 1 0 0
1257 0 2 0 5.023910131381687 -0.02107232370468548 12.780139809939056 0 -2 0
525 0 2 0 7.72896396131702 -1.8866715380714627 7.007804943364451 -1 -4 0
901 0 1 0 8.474564248521682 10.18038637041348 11.729080611533954 -1 -3 0
729 0 2 0 7.769398832392747 4.523980334823298 9.13572778830948 -2 2 0
1125 0 2 0 -3.076084040705034 15.091643467379717 3.4139373432123685 -1 -4 0
816 0 2 0 4.835949815603178 6.688428615315097 7.210773616784287 0 -1 0
931 0 1 0 -4.114544418341136 10.783063833281165 9.69860703421232 2 -1 0
1340 0 2 0 -7.516391689111475 19.28567936705073 3.335136388403609 2 -3 0
677 0 2 0 -2.561826847127673 17.089893735810865 4.01719266292912 1 3 0
2429 0 2 0 -0.5408029668802743 14.899100812853513 2.092500118453281 0 -1 1
1377 0 2 0 6.135604551302285 14.564657905451277 1.4878510131639469 0 -1 0
934 0 1 0 5.223016524638643 8.15025888019943 -0.3186447626598864 -1 0 0
928 0 1 0 -2.472388794753506 19.530202450519113 2.083415088347544 1 1 0
2184 0 2 0 6.322620302283505 12.575698103032611 5.021035402806097 1 0 1
2538 0 2 0 7.4000333051322364 7.842173776233626 9.387199773015038 0 0 1
82 0 1 0 2.2994651919618634 0.04659967305870705 12.88978441125501 2 1 0
863 0 2 0 2.8558864000485427 13.834571160151855 2.0868914801671097 0 -2 0
139 0 1 0 1.01717827198611 0.005572359169799257 0.17261599097460545 0 -2 0
1028 0 2 0 -5.725394460643009 19.736361766191497 1.6603510025774257 2 2 0
8 0 2 0 8.230030958316293 4.530776780993035 6.194025793448579 1 0 0
506 0 2 0 6.440218205783717 15.29148957028394 4.916846639941962 2 -1 0
1204 0 1 0 6.4875648821352145 10.83366997068227 13.75184579010013 1 0 0
2472 0 2 0 8.48003337947538 13.820932908711313 6.054526881856876 1 -1 1
371 0 2 0 -3.5557087547426005 13.674371904015393 12.431213799955058 1 2 0
2331 0 2 0 -1.965965427774483 15.783590944004828 8.704724700611846 -1 0 0