LAMMPS data file via write_data, version 23 Jun 2022, timestep = 16181000

2592 atoms
2 atom types

0 31.164 xlo xhi
0 21.490526 ylo yhi
-1.1459366475791146 32.83044065558642 zlo zhi
-9.197534 0.8320648556111083 -11.401845395542312 xy xz yz

Masses

1 1.008
2 15.999

Atoms # full

655 0 1 0 7.5033550884749864 2.72719617367246 6.384718591126277 -1 -1 0
1021 0 1 0 4.609350152872766 8.095475118232057 9.699880293076541 0 0 0
100 0 1 0 4.03972716855198 7.172500246501151 2.0294289697175785 1 0 0
974 0 2 0 9.984494609743061 5.2602121362276595 11.82386715677784 0 0 0
719 0 2 0 2.249782211088619 0.24587144533949257 15.46658446856249 1 1 0
353 0 2 0 -1.9880988405132871 4.883648754496921 2.428537587928362 1 1 0
13 0 1 0 10.728519495413108 0.3897495660324912 14.757794796291954 0 1 0
503 0 2 0 0.5534218520510696 1.7907429193280935 14.306492833801608 -1 0 0
911 0 2 0 -1.2410085036691425 12.908390187142462 1.4152728268460977 0 1 1
498 0 2 0 -1.5140425483668345 13.480490384845842 9.885759549667755 1 -2 0
558 0 2 0 0.15191115564867488 9.804058743709703 1.2991457886406046 0 -2 0
657 0 2 0 7.366753824750326 2.059622266475455 5.744647861472163 -1 -1 0
755 0 2 0 6.903991937941924 -4.819631748412666 13.398102636309202 0 0 0
502 0 1 0 0.43446192089388036 2.088976340867121 15.230696596911512 -1 0 0
2162 0 2 0 3.843712019437299 11.463839268993762 3.545274551365387 0 0 0
1038 0 2 0 10.872687274864603 -4.680708511333918 13.725608555253304 0 -1 0
2365 0 1 0 -4.556939294057101 12.349476809564761 8.380220092840174 0 0 0
676 0 1 0 9.955582399626852 -1.9388360434042011 10.470878332768848 0 2 0
445 0 1 0 0.8007555575363059 10.477188166417612 12.253295040720499 1 1 0
1556 0 2 0 6.054652940544503 9.69043492330692 6.87963214076883 1 2 0
672 0 2 0 1.2801038554268076 6.879273341914654 10.656214787968237 0 1 0
2163 0 2 0 3.0906989223760073 12.456073525956075 4.621032640686873 0 0 1
1210 0 1 0 3.5682089406532636 19.339910171126977 0.9479998396210378 -1 0 0
406 0 1 0 -3.4569415124277256 18.01458869385276 8.921008186694866 0 0 0
637 0 1 0 -2.424487024913049 4.613761888167881 4.114383975319845 1 0 0
1274 0 2 0 7.865294203020024 15.10865199155744 0.5691712363904118 0 0 0
172 0 1 0 -3.855628320129783 19.732453265254243 1.2622498710079335 -1 0 0
2583 0 2 0 6.971488379478081 9.998198217982786 0.9062813829558904 0 -1 0
81 0 2 0 5.796418702110121 4.339929230993657 3.614420407565949 0 0 0
844 0 1 0 6.162852849272753 12.055473398857211 0.49833714704346876 0 -1 0
730 0 1 0 12.44901553861897 -2.3250431834488774 8.172752072055854 0 -1 0
1031 0 2 0 8.139461915935165 0.12004527818849642 12.33616868671724 0 0 0
240 0 2 0 -5.946761576711281 14.775622177684443 15.415694147785002 0 0 0
746 0 2 0 -0.4476351231850562 17.670558019504586 6.507793230033555 -1 0 0
174 0 2 0 -3.9907805035965773 20.422207559518725 1.85752442408885 -1 0 0
790 0 1 0 6.1492780111501295 18.424024474901522 0.31726236786030726 0 1 0
1296 0 2 0 11.676851470914713 1.7536863879202178 13.935429551249728 1 0 0
1022 0 2 0 4.0221823811185144 8.418044635069192 10.42611739483737 0 0 0
624 0 2 0 -7.760373995531215 19.393528983956088 3.3413318263038567 1 -1 0
846 0 2 0 5.914272975864529 12.904422911240161 0.10917628340280894 0 -1 0
129 0 2 0 2.1271879223607875 5.1531829147029145 12.013860295344514 1 1 0
2437 0 1 0 7.656143825507662 10.469066803075002 10.37791620209336 1 0 0
457 0 1 0 4.538722311700344 10.900617324839846 9.798461116881967 0 0 0
1056 0 2 0 6.406371995628128 -0.5413145609047161 4.854804547297475 0 1 0
259 0 1 0 4.2074274739381625 4.0187217359594385 0.6573463822003263 1 0 0
142 0 1 0 8.259327089247556 1.5969314596300421 15.415893263854306 1 -1 0
551 0 2 0 1.664840759037091 18.03666786957999 0.4994670616024348 2 1 0
840 0 2 0 3.754214644136904 8.951171528503172 2.5391238938044083 1 -1 0
37 0 1 0 7.048403068997498 0.5619364427559926 0.17148406944735584 0 1 0
148 0 1 0 -4.438370553246083 14.93049781187198 11.608874102422003 1 0 0
316 0 1 0 -3.8301653514548675 12.049412433220398 11.768378537605022 2 -1 0
550 0 1 0 1.3180707664536429 17.86044242511615 -0.3887486597332108 2 1 0
533 0 2 0 2.0456382014587655 11.379970824842717 15.110513796727117 0 0 0
544 0 1 0 10.191634350057287 2.5403318991829025 8.500804427046171 0 1 0
608 0 2 0 -2.725768197428726 8.251686852838601 12.37242261342046 2 0 0
204 0 2 0 -2.5530647155792026 10.600900378501732 3.3123437214521623 0 -1 0
102 0 2 0 3.4337646213794946 6.461553995782827 1.8855968059761001 1 0 0
138 0 2 0 -1.0294882919278108 12.361914272233289 6.9013360323348625 2 1 0
278 0 2 0 1.1669632104654684 10.697009345105833 4.6033565441569975 1 1 0
74 0 2 0 -5.837607252818001 16.45162545890666 9.1214365941308 0 0 0
1041 0 2 0 -7.637200402086967 14.747554052846448 10.21945886687425 0 1 0
427 0 1 0 7.9011751014976115 14.444623943892212 6.168281335034984 0 0 0
838 0 1 0 4.069156876579176 9.88161175914658 2.640164708156409 1 -1 0
153 0 2 0 1.9435146749774503 9.088791508831994 6.132501611655077 0 0 0
85 0 1 0 0.39728390472767894 15.249277287995742 0.0047042253876148354 1 1 0
161 0 2 0 3.678488175163531 15.429463011373564 6.178045024458984 1 0 0
487 0 1 0 -0.22344048261628144 2.4487839420956767 3.4183786710580977 1 2 0
302 0 2 0 -1.241309719155398 15.069640524165232 2.78754875939552 0 -1 0
410 0 2 0 5.503111895729938 9.973290137274132 4.010483788741052 1 0 0
818 0 2 0 -0.27809526358014236 5.599068706041752 10.145490199552043 0 0 0
1096 0 1 0 7.132046810707077 -1.0201813026205029 15.774657237718904 0 1 0
1253 0 2 0 -1.8237445443412232 17.409627481277113 -0.04310250753878542 1 1 0
817 0 1 0 -1.0717787258100784 5.07858858606245 9.9474148238956 0 0 0
1176 0 2 0 2.3520331319002064 10.538170405819992 1.4411918478517127 0 0 0
1168 0 1 0 9.965980184087067 8.884178974918342 13.681702791407643 0 0 0
1236 0 2 0 5.080399738087251 11.493766770871183 12.50810652553596 0 -1 0
552 0 2 0 0.8884525169449449 17.013500472390813 -0.16435070949522224 2 1 0
732 0 2 0 12.52624150635422 -1.5322894284596693 8.684137962228544 0 -1 0
2299 0 1 0 14.251106804804675 0.5955422129032333 7.0071831806542235 0 1 1
322 0 1 0 3.3007157807534666 -3.3675865832930736 13.743157107469946 0 -1 0
42 0 2 0 -3.6052714486884563 7.054505047869704 10.338744685125917 1 1 0
574 0 1 0 5.818706382815884 -0.725565851579872 8.30366314151245 1 1 0
496 0 1 0 -2.118872384117605 12.80725604413894 9.639311329642904 1 -2 0
1448 0 2 0 4.004177479845339 12.13527632142963 6.610527878788752 1 0 0
1019 0 2 0 10.080375376125343 -0.4262615621236323 2.252716230489512 0 2 0
797 0 2 0 8.258651473815846 -0.48102863034518895 0.7159444033310169 1 1 0
141 0 2 0 -0.48246939317898924 6.763456051526319 2.976666049087637 1 0 0
505 0 1 0 6.24348425672332 6.0456416436861335 11.946530577028549 2 2 0
16 0 1 0 -1.0647055344329706 17.4448101953218 10.423966498956691 1 0 0
20 0 2 0 5.637899174681053 -2.1610157997534345 10.870308350967422 1 0 0
2521 0 1 0 3.3045139414047253 18.46786416312125 5.318596935546515 0 0 1
276 0 2 0 -3.541205016914562 15.485899407147521 2.742785664291812 0 -1 0
839 0 2 0 4.854019535845661 9.85807483262414 2.1064066263062826 1 -1 0
249 0 2 0 -3.013009841825622 10.029237626997395 14.287888065309495 0 0 0
1095 0 2 0 8.364349087749282 13.008287513780209 3.575413345517922 -1 0 0
1179 0 2 0 8.508206357468596 -0.5787052844449825 5.650470653928607 1 1 1
999 0 2 0 0.9988021154630337 4.100424001088095 7.98805877505302 1 1 0
66 0 2 0 2.909183841231626 16.346208351403153 2.5811175985743535 0 0 0
808 0 1 0 -0.6595250483470365 9.070618240689535 10.640498030839987 0 1 0
1068 0 2 0 7.665581106678557 3.7893337246069545 0.45797292172045556 0 1 0
1121 0 2 0 6.395270480129403 2.8264912415247037 7.995790707379895 1 0 0
820 0 1 0 4.800330893765633 8.086953896377244 -0.5538648893196564 0 0 0
925 0 1 0 6.339780114568974 8.598267952847461 14.45902608209303 -1 0 0
1561 0 1 0 -3.4565647507106023 16.963986908446056 5.540126406864044 0 -1 0
1449 0 2 0 2.5735989900901823 11.898107634463782 7.286382016613626 1 0 0
139 0 1 0 -0.9743070681536508 7.530080357228489 3.373061023056736 1 0 0
447 0 2 0 0.3737204287720782 10.103220861717734 11.41484214287231 1 1 0
896 0 2 0 6.602955916208902 6.091359990503705 10.284653118991628 -1 0 0
721 0 1 0 0.5085670669443867 -3.4398279069407907 12.556138327861252 1 1 0
1246 0 1 0 -0.4630062455149519 4.783447914416416 13.17269209297723 0 1 0
684 0 2 0 -4.603547654187546 20.519730399261846 -0.6456381310461337 1 -1 0
1032 0 2 0 8.058434447889146 1.425750065779586 11.580925099296453 0 0 0
546 0 2 0 9.565462349808017 3.0822882947996324 8.020107401833968 0 1 0
524 0 2 0 7.96704194037477 3.4712745071707642 12.578965987509793 -1 -2 0
623 0 2 0 -7.431332741342406 20.32978773057466 2.2106623454344057 1 -1 0
450 0 2 0 3.1872204449234105 2.045828081001504 6.31277039615814 1 0 0
622 0 1 0 -7.017370308751744 19.92630985767485 2.9965341633584126 1 -1 0
104 0 2 0 1.52100843059798 6.374713821905243 0.1715068189103992 0 0 0
1206 0 2 0 2.3220533066495577 -2.713242674047962 15.199919936128923 0 0 0
1157 0 2 0 -1.1440028322104236 -1.194443513023363 14.460297269275674 -1 0 0
910 0 1 0 -1.1877578235247228 12.25098649863487 0.6522856503963292 0 1 1
21 0 2 0 6.463738559229646 -0.8901818169621891 11.203920162291563 1 0 0
1103 0 2 0 -0.6443415198229416 10.87338863259075 15.196247909238592 0 0 0
432 0 2 0 -0.7217560139329895 8.56557667635315 7.305603273073672 2 0 0
754 0 1 0 -2.0184248256423873 15.953747765559175 12.783851646219262 0 -1 0
618 0 2 0 1.3955925933066664 -0.447948675266459 8.36871745761062 1 -1 0
262 0 1 0 -0.028946191880403482 7.7313894627750885 14.140123651299607 0 0 0
609 0 2 0 -4.049625334254724 8.852072892563116 11.845783181159673 1 0 0
663 0 2 0 6.072182368877686 1.8727599914529593 2.780039799116347 -1 -2 0
321 0 2 0 4.7520780909420735 6.875696312353438 13.11585217089147 0 0 0
488 0 2 0 -0.21710337069358748 3.400682953861735 3.2279290288786857 1 2 0
1029 0 2 0 3.5602091112150567 14.019489075835795 7.691038954867615 0 -1 0
344 0 2 0 9.943254653084944 10.264302198912235 1.694311785040206 1 0 0
470 0 2 0 4.581225656690441 15.117843654814001 1.8016048130585562 -1 -1 0
393 0 2 0 8.951630579662458 10.874076680026358 -0.36561049703762194 -1 -1 0
2366 0 2 0 -4.755403069035514 13.168768706362844 7.786905295177808 0 0 1
79 0 1 0 5.822615828258067 3.3733816411603788 3.6380866852183553 0 0 0
1375 0 1 0 11.047868071585857 6.370515611756336 3.778807958269759 0 0 0
827 0 2 0 7.699322518842175 8.480572957855225 10.7596613523905 1 0 0
2221 0 1 0 2.524228240344057 8.718237331046904 8.03495735112125 1 0 0
163 0 1 0 -7.712834001129138 20.941825433094742 0.3710114108954683 -1 -1 0
165 0 2 0 -6.853443676664775 21.09822832944208 -0.024110660659473204 -1 -1 0
1184 0 2 0 2.2127819226219376 5.6457816757434935 15.39887965074094 2 2 0
1169 0 2 0 9.28219704315805 9.538109582090357 13.934315441692451 0 0 0
598 0 1 0 -2.698717833833252 13.676539104971315 -1.0099684157691875 2 1 0
1204 0 1 0 1.5669755287325071 -2.577928411267506 15.77030148488185 0 0 0
783 0 2 0 12.885475304559794 5.34333107407406 0.534464924064838 0 0 0
1122 0 2 0 5.445473598029309 2.5238707199624204 9.197109398299213 1 0 0
879 0 2 0 -0.16223156513878936 14.318791067616258 5.639328039710712 0 -1 0
878 0 2 0 -1.0965573387625203 15.077167479199936 6.777679668182814 0 -1 0
951 0 2 0 2.472890588016663 -0.8955277921404121 4.603920603775036 0 0 0
212 0 2 0 6.186884116080201 1.1613400095371258 13.359440943934697 0 0 0
1156 0 1 0 -1.062530664221089 -1.2160896265751537 15.47039867167152 -1 0 0
980 0 2 0 -2.8810797184571593 5.069463344255658 15.246003820592987 0 -1 0
489 0 2 0 -1.039710514779504 2.0863952763120697 3.0623077586194194 1 2 0
507 0 2 0 6.1146973922679 5.25473924511115 12.48526270902025 2 2 0
45 0 2 0 1.8262151756151628 6.810848213639195 5.531450682711241 1 0 0
648 0 2 0 12.191337298030714 4.310934956065541 6.713850200149575 -1 0 0
347 0 2 0 9.241227324156954 -2.077071506295298 12.105997947225275 0 1 0
809 0 2 0 -1.6394945909963268 9.073551167893354 10.6842229391335 0 1 0
1010 0 2 0 3.7699192772468773 7.854569488603845 5.156407688659221 1 0 0
7 0 1 0 -5.378083255850681 9.88484604495764 12.56172298387192 1 1 0
2582 0 2 0 7.285207734513103 8.56539740101041 1.4041312429228707 0 0 1
282 0 2 0 -1.7592987928448112 7.8063290304501045 14.437188864244687 0 0 0
944 0 2 0 6.529134293108783 16.065885190687425 8.466952439011607 0 -1 0
926 0 2 0 6.89398318660119 7.750723580552572 14.546045502975895 -1 0 0
1094 0 2 0 9.616604326981127 12.311573094139243 3.111317956788194 -1 0 0
61 0 1 0 -1.9411828482887732 7.3913244515482095 0.4894260446016734 1 0 0
531 0 2 0 11.786624128351027 3.2956546503068296 -0.31960278959458854 -1 1 0
897 0 2 0 6.268546075345866 5.084172351893825 9.141998190247325 -1 0 0
1051 0 1 0 8.852934011791275 2.257561655209699 3.562454660850345 0 -1 0
202 0 1 0 -1.968939901202002 10.711281455342194 4.062534223289666 0 -1 0
1252 0 1 0 -1.7501772860256948 17.998962391529506 0.7453500968119504 1 1 0
18 0 2 0 7.419886618920607 -3.374352003091957 10.266105757342554 1 1 0
760 0 1 0 13.95618169393532 -3.8921339136836264 12.372899857153923 1 1 0
306 0 2 0 -4.352014578786967 13.453725071163763 -0.36410821707413776 1 1 0
661 0 1 0 5.641677657363318 1.1216102126504945 2.3835168202095685 -1 -2 0
810 0 2 0 -0.4590103454443974 8.817642651219925 9.75601429684383 0 1 0
1132 0 1 0 8.22410671987829 6.680384985999734 14.31830094458774 0 0 0
1108 0 1 0 -3.2949920916921496 13.436524325405674 5.073903223470355 0 -1 0
678 0 2 0 9.4750473992374 -1.3510088391654542 9.911405818470165 0 2 0
448 0 1 0 3.674474058583197 2.5744044730840936 5.664539762225211 1 0 0
532 0 1 0 2.9630945227742687 11.506586090302351 15.36506121763025 0 0 0
149 0 2 0 -4.466009254461973 15.226592433144381 10.68629150146554 1 0 0
1557 0 2 0 5.4846954827675 8.97291513151727 8.134818836108074 1 2 0
124 0 1 0 -0.5394994879948982 0.4875145477268825 10.791570374060525 2 2 0
1030 0 1 0 7.512655384595707 0.7312713424981236 11.989581545204743 0 0 0
615 0 2 0 5.195205434596679 14.936357397167294 4.679692064059427 1 1 0
47 0 2 0 10.218141815341575 7.626436994695483 0.7185959981187282 0 0 0
458 0 2 0 4.2097616364161 11.776305814977215 9.931322579210736 0 0 0
1277 0 2 0 -0.4100086658835688 2.6583507141551763 -0.3037295755907754 1 1 0
105 0 2 0 2.63277745095822 5.288319771669095 0.14466805084928813 0 0 0
575 0 2 0 5.710412863008596 -0.6693100431079091 7.332217917115823 1 1 0
1265 0 2 0 2.5933719210217894 4.904934773026207 10.000233904225759 0 -1 0
745 0 1 0 0.3598850843309505 18.04814300061973 6.1021572561257695 -1 0 0
354 0 2 0 -1.5274427687401502 4.318251329707794 1.0063487410630767 1 1 0
849 0 2 0 9.04701346996306 12.291651347613394 5.219656420466063 1 0 0
1519 0 1 0 8.520634675249962 8.788077196552994 4.246007036329634 0 1 0
1067 0 2 0 7.4147246009697545 2.4546648482864906 -0.211292742269641 0 1 0
75 0 2 0 -5.024844007582144 15.425392588973672 8.38554629666114 0 0 0
2362 0 1 0 4.517075801262028 19.89215418150109 3.4207550743140036 0 0 1
1254 0 2 0 -2.472463853961518 18.59766924516733 0.7322246305568116 1 1 0
391 0 1 0 9.121066458865826 11.540663253912848 0.31517923739425413 -1 -1 0
272 0 2 0 -0.5693950186622354 15.885457151200733 9.984521906109723 0 0 0
497 0 2 0 -1.5675747050839126 12.24688137064876 9.035229102280187 1 -2 0
653 0 2 0 -2.638647281159915 10.553397290710247 6.707722016577032 1 1 0
1004 0 2 0 2.8985250357689165 13.987921543461571 0.9729103672509791 1 -1 0
506 0 2 0 6.924750282998932 6.480460522609349 12.532939834096144 2 2 0
144 0 2 0 9.10029308796625 1.2045144579303928 15.244990123196862 1 -1 0
975 0 2 0 9.280273489516507 6.26661254830104 10.855463295697527 0 0 0
122 0 2 0 6.719344328244249 15.531997302129671 2.3957446787757792 0 0 0
1024 0 1 0 -0.23607614512428898 18.47179908325205 3.434100558802748 0 -1 0
409 0 1 0 6.174626451469023 10.285084138587322 4.708980354624268 1 0 0
73 0 1 0 -5.002986187833162 15.96143233460582 9.185218252019203 0 0 0
362 0 2 0 -2.1853232919314696 17.085724746510913 8.138701847188543 0 0 0
9 0 2 0 -4.886747037551511 10.705423496699758 12.61019759899236 1 1 0
1521 0 2 0 8.966996263871971 8.482001881118695 5.061135416272799 0 1 0
819 0 2 0 -1.797477384326249 5.734897869721478 9.784633292941047 0 0 0
877 0 1 0 -0.9327612796543616 14.24840739926295 6.228926557518613 0 -1 0
101 0 2 0 4.873297847089931 6.789911365298925 2.3162391284117487 1 0 0
1009 0 1 0 4.4291575161358026 7.411251323501459 5.639502793001996 1 0 0
1273 0 1 0 8.479890029503084 14.885905624318818 -0.17154107470864666 0 0 0
121 0 1 0 6.439240126626724 15.640872543137553 1.497040693656082 0 0 0
318 0 2 0 -4.275762802640037 12.912733367645718 11.696463523669797 2 -1 0
1286 0 2 0 7.038166974663164 6.322439251690011 0.5753283720673632 2 2 0
998 0 2 0 -0.14684020891843896 3.4787349196297446 8.734231261335802 1 1 0
2403 0 2 0 5.498448099255916 13.568412122934443 15.197040133554557 0 0 0
324 0 2 0 3.2094873927799314 -4.267041722212618 13.990316876570583 0 -1 0
1562 0 2 0 -3.2150217087849553 16.899886173602972 4.592962917261602 0 -1 0
529 0 1 0 11.943741574452538 3.6210105138978115 0.6522039980899712 -1 1 0
949 0 1 0 2.4569192648670715 -0.8574309402828697 5.5880443065851075 0 0 0
650 0 2 0 9.098556629516585 7.639196274454089 2.754039640892369 0 -1 0
86 0 2 0 0.18340501633742806 14.719221556229027 -0.7614909455499481 1 1 0
588 0 2 0 -6.162971137102244 17.808707738741333 0.9485565291028042 0 0 0
1520 0 2 0 9.11385912766779 9.520769943792827 3.9043114434500135 0 1 0
348 0 2 0 9.031308641119546 -2.511124696666553 13.523917361235668 0 1 0
1152 0 2 0 -5.544806611141168 10.857447350416752 9.707444979658707 0 0 0
927 0 2 0 5.443890347924859 8.394313265291714 14.178886369122976 -1 0 0
150 0 2 0 -3.6193763351141506 15.294687526763049 11.968828050623827 1 0 0
469 0 1 0 3.717996826469262 14.798417145998737 2.0298786378688525 -1 -1 0
1104 0 2 0 0.3422932582118375 10.723589464214337 14.027172522321548 0 0 0
1028 0 2 0 4.65957176542213 15.19080029577206 8.09280383903121 0 -1 0
1294 0 1 0 11.990343563358685 2.5538479800480474 13.46293624018913 1 0 0
471 0 2 0 3.8095037714462285 14.008440170746232 2.5701499115611894 -1 -1 0
480 0 2 0 -6.397081201948762 17.002864839269623 3.919113677345572 0 0 0
970 0 1 0 5.940615626999722 -3.0668556302354215 13.971364949765757 0 -1 0
248 0 2 0 -3.0460754466413005 11.385899783483628 13.424905268319689 0 0 0
800 0 2 0 -1.0462019922647539 8.075290627279303 4.950628972732553 -1 -1 0
19 0 1 0 6.289427374336296 -1.8181075067105432 11.481419123460396 1 0 0
1102 0 1 0 0.24986349783150502 10.558962380385427 15.003283441164966 -1 0 0
801 0 2 0 -1.5529774332914705 9.497273411598503 5.14582686434403 -1 -1 0
420 0 2 0 5.2944217334442625 3.4239821998894655 13.577436416003907 0 0 0
715 0 1 0 -7.152365292721482 15.790772285268584 11.853922511275195 0 -2 0
889 0 1 0 -4.215659944649584 5.790620676861569 14.561178548632512 0 0 0
1026 0 2 0 0.09781570063852 17.878349295123098 2.773199432692624 0 -1 0
245 0 2 0 11.7457049591765 2.390626530390551 5.4817526349612296 1 0 0
252 0 2 0 -6.761291746217192 15.111384704746902 4.139379975958419 0 -1 0
767 0 2 0 6.059973024989675 11.660614059967216 6.082405276135558 0 0 0
1023 0 2 0 4.917143354781139 7.237308714573308 9.94075829744452 0 0 0
995 0 2 0 -3.112954974547999 4.677462263121504 8.802764477675865 1 0 0
834 0 2 0 9.069447096796567 -0.2741829183056499 7.838689423331795 0 -1 0
1005 0 2 0 1.630779586390767 13.97312571486412 0.1208459468348837 1 -1 0
943 0 1 0 6.334080776702637 15.103096174450702 8.358729890947215 0 -1 0
14 0 2 0 10.183206857669136 -0.2035540052966427 14.28504008130987 0 1 0
1091 0 2 0 4.148901520455455 0.8883385416388156 10.73519638213512 0 1 0
1020 0 2 0 10.246356717909112 -0.5454450540886147 3.833746102251385 0 2 0
964 0 1 0 10.444063853676374 4.734777037397204 13.319493657031515 0 0 0
1 0 1 0 8.316765387371325 7.24734001707891 7.514428671177491 2 2 0
731 0 2 0 11.709486560492426 -2.8018666243875696 8.640104497875056 0 -1 0
832 0 1 0 8.7970057545696 -0.026878180227149162 8.726592660394077 0 -1 0
2300 0 2 0 14.437702021944547 -0.3762475706305608 6.9991096691824755 0 1 0
1018 0 1 0 10.40556924487345 0.07360296200480487 3.074333775895412 0 2 0
1066 0 1 0 7.54446692937488 3.408053881838595 -0.4083805267151337 0 1 0
1054 0 1 0 7.277753967112551 -0.2512477538470803 4.5312282959835635 0 1 0
479 0 2 0 -6.825886442071906 17.046438669339103 5.36505012192354 0 0 0
1284 0 2 0 -4.601799097736193 13.918907772667875 1.5927580874421103 1 1 0
431 0 2 0 -0.5297555705895475 7.282163604083957 8.001654275080123 2 0 0
1262 0 2 0 -0.3071168773753335 14.618979172560717 15.580153514552487 0 0 0
1133 0 2 0 8.820643880993625 7.300856533837654 13.839948477044935 0 0 0
662 0 2 0 4.790761814348787 1.491409071578237 2.2150166730093597 -1 -2 0
452 0 2 0 8.390893722091853 5.9779734567322365 6.0120128634343795 0 1 0
1278 0 2 0 0.4454011850595638 3.8250583002611225 -0.5137681033678487 1 1 0
762 0 2 0 13.497773814612282 -3.040900731498916 12.482011842255835 1 1 0
957 0 2 0 12.195753249978525 0.5426518748880071 10.083544653338972 -1 0 0
459 0 2 0 4.686079616749947 10.867283017065931 8.87150010190882 0 0 0
196 0 1 0 1.1306714487736427 14.464703017700971 4.435140347682115 0 0 0
64 0 1 0 2.4210482116665117 17.154323399959573 2.4832624464753055 0 0 0
654 0 2 0 -4.02740765503838 10.969409676087384 7.398402464946937 1 1 0
572 0 2 0 -7.756463068080141 17.278612673319962 9.131038961425979 0 -1 0
87 0 2 0 -0.14322113292330033 14.913215645135129 0.7073356005666596 1 0 0
1158 0 2 0 -0.30533237695365073 -1.8338483455714512 15.60809738131749 -1 0 0
587 0 2 0 -6.272069831528877 18.64740637138248 2.1963915741583127 0 0 0
1250 0 2 0 1.445705171235462 21.054169065069004 -0.23814073859747742 0 -1 0
774 0 2 0 5.8217787236998 18.667048381164683 3.182376937806297 0 -1 0
628 0 1 0 11.785502710573684 2.206973944221144 10.761117642838098 0 0 0
649 0 1 0 8.955874377051309 7.397833031078967 1.8396075018390392 0 -1 0
677 0 2 0 10.805955117201822 -1.4158185171652913 10.459477705763561 0 2 0
953 0 2 0 3.540422596723631 15.146870679771002 15.08113460530607 -1 -2 0
912 0 2 0 -1.2952167934175922 11.380783001710821 1.0679274748198848 0 1 0
1077 0 2 0 3.9060469414699646 13.816906821420947 -0.6577079705699174 1 1 0
2161 0 1 0 3.3505839983123904 12.317207350404926 3.6864232768571705 0 0 1
1264 0 1 0 2.3001512504151096 5.495908945220236 9.27420190089476 0 -1 0
15 0 2 0 11.149266442817506 -0.164054353287721 15.45356496351936 0 1 0
979 0 1 0 -1.9363107058364302 4.72031470298 15.539499476340717 0 -1 0
1093 0 1 0 9.328034535364242 13.073601830195006 3.5713319307846136 -1 0 0
729 0 2 0 2.146648129005453 9.385802924243027 12.161503480804532 0 0 0
407 0 2 0 -4.036267518633256 17.225910570505604 8.86874976297943 0 0 0
921 0 2 0 5.718315949862095 6.827597239912246 4.63493366185348 0 2 0
833 0 2 0 8.980433022177426 0.9304370551892012 9.006997082864576 0 -1 0
1280 0 2 0 0.4251182290464543 2.1116367555928637 6.317045682251457 1 0 0
146 0 2 0 -6.363190793017902 14.890864391803362 -0.12775407062485455 1 -1 0
707 0 2 0 5.300448298741127 13.579562813676224 12.88863283588305 0 0 1
880 0 1 0 2.9185144459577175 13.45985248087041 10.412513754353615 0 -1 0
186 0 2 0 0.3403618388612255 -5.416295092548943 15.73783719978728 2 0 0
1035 0 2 0 6.376493781348406 13.192238884023073 3.5031631146301017 1 1 0
3 0 2 0 7.790025978660501 6.6274516760139415 8.126488328538771 2 2 0
718 0 1 0 3.137111414334502 -0.11592456386273842 15.504463737641787 1 1 0
874 0 1 0 8.16120947093746 3.0677973165952634 10.845399651113766 0 0 0
1110 0 2 0 -3.4280196230684044 13.726966592977746 4.173151835380676 0 -1 0
963 0 2 0 1.4558581538488329 10.284252823099468 -1.117426271387823 0 0 0
366 0 2 0 -1.868761643914744 3.674059299401745 12.543462260146951 1 0 0
46 0 1 0 10.863467211266524 7.940039023206475 0.055724556296031125 0 0 0
219 0 2 0 13.218059220809534 0.9185700515002052 1.6258016458677305 -1 -1 0
88 0 1 0 7.934816974675995 10.803602178290879 13.237195370588028 0 2 0
2222 0 2 0 1.6563084191865864 8.314748201086559 8.211793321724006 1 0 1
446 0 2 0 0.8975935985187194 11.41604581891087 12.085578596017356 1 1 0
1279 0 1 0 0.6659313298706411 1.4992926892039002 5.618517001030459 1 0 0
1201 0 1 0 3.3092507457829914 -2.384748622962579 10.880532511635408 0 0 0
845 0 2 0 6.453674589907083 12.213348657296818 1.438629206304706 0 -1 0
747 0 2 0 0.22706171757554852 17.951731384506882 5.133693137932435 -1 0 0
973 0 1 0 9.724679863723802 5.4168160077778555 10.908751865601955 0 0 0
317 0 2 0 -3.039662089911786 12.085149386578637 11.227031092003225 2 -1 0
40 0 1 0 -3.349207062046262 6.428534488361542 9.60759451210264 1 1 0
2223 0 2 0 3.1312611665003836 8.19236363052211 8.567618729807577 1 0 0
728 0 2 0 3.7522543641562267 9.699043019811835 12.218894824014727 0 0 0
966 0 2 0 10.9770500554697 3.8783123268112645 13.324911367924093 0 0 0
956 0 2 0 12.696029300641968 -0.4110094859820368 11.04439106011961 0 0 0
456 0 2 0 -0.3617831726946148 5.721636113817228 6.389155097153894 0 1 0
155 0 2 0 14.953938972933559 -2.4178665190914064 7.431441798001666 0 1 0
1183 0 1 0 1.7756727781190436 5.8470109972500035 14.5472781244887 2 2 0
439 0 1 0 2.4029744518607137 1.217720886267513 7.893311175864223 -1 -1 0
1003 0 1 0 2.4779210944245658 13.508893993844875 0.17546508370399683 1 -1 0
343 0 1 0 10.157226378933052 10.47257937504065 2.6392738341833457 1 0 0
751 0 1 0 8.072718405364416 12.204215499043764 8.210295847493597 1 1 0
753 0 2 0 8.661709577385489 12.89194685716874 8.4103950316642 1 1 0
1034 0 2 0 6.519170679406296 11.782089215815112 3.794619434954795 1 1 0
680 0 2 0 9.36759484212652 3.8531849332353945 2.504737652771465 0 1 0
600 0 2 0 -2.1988353976121005 12.976278373314711 -0.5552165468122601 2 1 0
629 0 2 0 10.973361664343855 2.611512332084175 10.313398037175304 0 0 0
868 0 1 0 1.5718283238433932 11.270630541295873 8.681802403746321 0 -1 0
260 0 2 0 4.218992564436237 3.4924216013558547 -0.19278842053233003 1 0 0
743 0 2 0 15.179793549747787 -4.690076979973679 13.300664280939221 0 0 0
1118 0 2 0 4.344836196376244 9.82313904621559 -1.0299102366421482 0 1 0
363 0 2 0 -2.295232805366579 16.684351903295045 6.660597567202111 0 0 0
292 0 1 0 1.3822624727558812 2.0774582988008277 12.612303575580038 0 1 0
197 0 2 0 1.4107600210426623 13.54987812668816 4.350351403029455 0 0 0
945 0 2 0 6.721076843169257 14.760514404644255 9.176918185686572 0 -1 0
1282 0 1 0 -4.44196121748498 13.990717303769156 2.616221406330454 1 1 0
652 0 1 0 -3.569663734181921 10.29958032843232 6.894634835055804 1 1 0
280 0 1 0 -2.6662153736609513 8.080460477919587 14.688336264375268 0 0 0
451 0 1 0 8.558943757754161 5.449283708770966 5.164763820787105 0 1 0
17 0 2 0 8.979583285493607 -3.6057429389580093 10.152233902902767 1 1 0
723 0 2 0 1.2135876521308122 -2.9527735928591627 13.010022717853888 1 1 0
955 0 1 0 12.514030609424402 -0.37513951646839416 10.105128875192788 0 0 0
217 0 1 0 12.72910972036216 1.3269014695665986 2.380083120680961 -1 -1 0
681 0 2 0 10.326321854246375 4.3381804357806795 1.506061625207845 0 1 0
971 0 2 0 6.0664113540387605 -2.731894736333687 13.090923370287099 0 -1 0
32 0 2 0 -3.8563408260435015 10.835980396380947 0.9983778892301576 0 -1 0
1591 0 1 0 -3.765745593451919 7.504178559316209 7.1929302803097706 1 0 0
364 0 1 0 -2.3620546052511733 3.4748949797920305 11.74309292800016 1 0 0
41 0 2 0 -3.67622551632481 6.9179386160520515 8.815944865542138 1 1 0
547 0 1 0 1.574316065527412 16.605909043953215 8.18154465234677 0 1 0
969 0 2 0 1.6360882563333732 16.781811439685303 11.503664129666571 -1 0 0
1064 0 2 0 4.475357460401194 5.618371670978628 6.901350562834262 1 1 0
900 0 2 0 14.483816593279919 2.3173943264717995 -1.1339379917485775 0 0 0
1135 0 1 0 -3.0894351108827345 13.8480706024163 14.902226768409312 0 0 1
882 0 2 0 2.403137661883169 13.435453595768848 11.250669162279854 0 -1 0
545 0 2 0 10.605384203351779 2.0136641930640637 7.77823024490549 0 1 0
614 0 2 0 6.767622945830509 14.82516193697597 4.985697172547841 1 1 1
829 0 1 0 -4.875792211716234 14.577560292275766 6.940149298856065 1 0 0
867 0 2 0 9.907163823466842 7.907090292274466 7.835963322267398 -1 0 0
1261 0 1 0 -0.12197475746375391 13.908622094944203 14.907374896787674 0 0 0
311 0 2 0 13.140945895322263 2.4130806676866365 9.461650716179781 1 1 0
1090 0 1 0 4.287824521152689 1.0096121992786027 9.74250248557678 0 1 0
875 0 2 0 8.552548536650967 3.9347672506556206 10.8736199910736 0 0 0
1211 0 2 0 3.7803005855249694 19.874653268786723 1.7226036823401376 -1 0 0
952 0 1 0 2.700675710107749 15.65838836158963 15.074916192704949 -1 -2 0
1203 0 2 0 3.199908522641773 -3.1159578936150094 11.465325584666877 0 0 0
244 0 1 0 11.645953737382639 3.3172337629617283 5.117364822332445 1 0 0
1134 0 2 0 8.647752675485101 6.4879387587849315 15.159178499524147 0 0 0
279 0 2 0 -0.04855682296070876 11.460498890565349 4.010890180060655 1 1 0
247 0 1 0 -2.7003560656712002 10.947453904118765 14.18176665255583 0 0 0
485 0 2 0 14.004081593421919 1.4908890615340977 3.7434453925162794 0 1 0
152 0 2 0 0.6869816961186163 8.745515461908177 5.505291282679115 0 0 0
211 0 1 0 5.554287361940398 1.498964621062913 14.00309186953958 0 0 0
520 0 1 0 14.24203868036916 0.7390249964815803 -0.17506873727798078 1 1 0
123 0 2 0 6.325889648382736 16.610234682898653 1.4194226659241562 0 0 0
983 0 2 0 2.796743014498729 8.14176315023925 15.33797115928616 0 0 0
263 0 2 0 0.39204668763792416 6.981126201881213 14.64812386874409 0 0 0
173 0 2 0 -4.555397754097459 19.042935599618158 1.5162885968898987 -1 0 0
151 0 1 0 1.6606202790662155 8.812737537516943 5.304478085342126 0 0 0
361 0 1 0 -1.6485509462967056 16.685616366784505 7.389667302117722 0 0 0
766 0 1 0 5.662359866366542 11.832736306890165 6.9011839141436955 0 0 0
708 0 2 0 4.732247570679222 13.530034144230537 11.44619473250803 0 0 1
1247 0 2 0 -0.20765858990930636 5.257822804501121 12.330618740135106 0 1 0
1266 0 2 0 2.9476029552257335 5.245976738687915 8.607346848393027 0 -1 0
870 0 2 0 2.0286168604772294 10.387880710664096 8.60249380606802 0 -1 0
869 0 2 0 2.0006420161615925 11.711054526174866 9.455449522502734 0 -1 0
968 0 2 0 2.1248095647513203 16.63780141332432 9.933899291737701 -1 0 0