LAMMPS data file via write_data, version 23 Jun 2022, timestep = 174511000

2592 atoms
2 atom types

0 31.164 xlo xhi
0 21.490526 ylo yhi
-0.8757657377665922 32.56026972581112 zlo zhi
-9.197534 0.8188321488330895 -11.220516649577696 xy xz yz

Masses

1 1.008
2 15.999

Atoms # full

1119 0 2 0 8.912130102059262 8.88437625928568 15.564967021684804 -1 -1 0
1128 0 2 0 -2.349444897337644 2.6962645416933717 9.623119283534486 5 3 0
858 0 2 0 1.7106528183001182 7.942509447744838 -0.5949393252180135 0 1 0
1032 0 2 0 2.1095102287941714 4.299770727627394 4.690715494450966 2 2 0
142 0 1 0 6.633243957101822 14.152305475489126 14.677200466183972 1 -2 0
351 0 2 0 -3.4824259196080956 16.097079523234655 14.172347078597678 -2 -6 0
2435 0 2 0 2.976134322452259 4.142365004872847 6.984169755048377 0 -2 1
645 0 2 0 1.3079394619606541 5.692733386150343 14.300765774172113 2 2 0
933 0 2 0 -3.014249486066239 17.163685385851274 3.663012339409744 2 -3 0
695 0 2 0 4.044213760761352 18.26326199507054 5.577913408328959 3 3 0
335 0 2 0 1.8522206739540656 11.02157698802526 7.878930156413372 0 -1 0
106 0 1 0 3.1282396701469084 7.426174499972398 4.773436516790226 0 -4 0
1171 0 1 0 4.133232062572595 16.54280680271112 6.714182103493882 -1 2 0
1065 0 2 0 -3.3618068464331956 8.328565760736764 7.13192669982214 -1 2 0
935 0 2 0 7.6147249375939445 7.711804097671782 3.5729741091494303 -1 0 0
772 0 1 0 4.575424750231359 7.573185103562839 0.9871762865434872 1 -1 0
943 0 1 0 4.239476393558338 3.733439668306639 -0.12541329540061585 0 -2 0
2300 0 2 0 13.147033548051443 2.4850479207538556 -0.5112494602561717 2 0 0
1002 0 2 0 0.9789454485723285 13.475159353118128 0.9286150157666382 -1 -1 0
1215 0 2 0 11.725909893704168 -1.3385722516899659 10.552272890803627 1 4 0
2496 0 2 0 5.091718057605415 5.044104252612505 11.191277377661603 1 3 1
489 0 2 0 0.8615028723782525 0.3956821237566164 13.04544512259826 -1 0 0
2429 0 2 0 -7.177715779119052 16.085445650208634 9.264574531143179 1 0 1
2200 0 1 0 -6.247717506556251 11.740595013976797 11.376742010307089 -1 -1 1
29 0 2 0 -2.7884373561807236 13.021721675882562 4.786489580956314 -1 -2 0
484 0 1 0 2.9200979598727272 12.695666589388026 7.561677086496189 -2 -3 0
2486 0 2 0 0.26407665924235724 2.1078248829122233 14.830052211823448 -2 1 0
580 0 1 0 8.886794198101517 9.777004219926756 12.754448595584856 -2 -2 0
107 0 2 0 2.8969788326799364 7.8082816768921095 5.643331589990232 0 -4 0
698 0 2 0 8.98838659630452 0.15369620314837285 13.866395193021559 2 -3 0
908 0 2 0 -1.394672689944748 16.627062982413346 13.052254325439508 1 -3 0
745 0 1 0 11.4865834888323 3.296849443160904 8.30949767517746 -1 0 0
516 0 2 0 -1.4969132582348041 5.35540994357569 4.603249216884368 0 -3 0
2208 0 2 0 1.0935972376557352 15.941592929543852 2.1668641127371426 1 0 1
1665 0 2 0 -0.9558971199606612 12.225701161683705 12.62092069219588 2 2 0
23 0 2 0 1.6857496632033653 15.961704952054383 8.587589355710627 1 0 0
2448 0 2 0 7.611173754914915 5.13839000195304 4.3618297858672515 0 2 1
1036 0 1 0 -3.4925281013522365 5.259780807554101 15.61946998412163 0 -5 0
2411 0 2 0 10.49263410563774 4.8841038138214365 5.9154543016982855 0 3 1
108 0 2 0 2.6821858790190847 7.77601865686317 3.9746302255151766 0 -4 0
230 0 2 0 8.750047478207266 3.3131471680807727 5.268465263105946 -3 0 0
907 0 1 0 7.213406983315131 -4.437103098140404 13.657382826900152 1 -2 0
2487 0 2 0 -1.1241207213662827 2.361386155809048 14.446283817228974 -2 1 1
527 0 2 0 8.361138157653349 15.13171485811149 0.7569269340488294 1 1 0
1664 0 2 0 0.4868906642835859 12.471634076906504 12.549938294765738 2 2 0
2434 0 1 0 2.0969026626488376 3.9328507054761057 6.58309506726949 1 -2 1
1627 0 1 0 3.8925793771954464 -0.5731336362357853 12.831654219950344 1 6 0
2202 0 2 0 -5.797174427276044 12.307896679106763 10.744308389832531 -1 -1 1
1177 0 1 0 -7.826524207551394 20.269089737546455 2.0960136859257457 -1 0 1
2446 0 1 0 7.205282565885507 6.045017659606046 4.228676063772642 0 2 1
1468 0 1 0 11.651705613219557 5.117995702864524 12.315601736267901 0 0 0
1447 0 1 0 0.08266266614570705 7.120337430978564 8.762424429259688 -1 4 0
418 0 1 0 11.093028155811473 -1.2159621408402441 6.938958714260852 -2 -1 0
265 0 1 0 -3.780129401515897 9.734128006321008 14.919544854679035 1 -1 0
671 0 2 0 -3.6009803338837747 9.509123786434479 8.820106381449225 -1 -2 0
330 0 2 0 5.720959578566522 10.218037086963095 2.8936404990895053 1 -2 0
945 0 2 0 5.026023103203353 3.2748397000952947 0.1668478902928976 0 -2 0
546 0 2 0 2.0438729995815095 0.4769479887935564 15.33251247244728 0 4 0
2341 0 1 0 3.632493037422667 9.237010814015433 15.246651885171516 2 0 1
2574 0 2 0 10.123275351440341 3.0230067726760117 12.066378217484367 -2 -2 1
703 0 1 0 10.292347986414518 11.053768387268018 -0.2282922166419309 -1 -1 0
2263 0 1 0 3.1328333123126515 1.379117383831684 1.9339113946783186 2 -3 1
605 0 2 0 5.902029269958339 7.5574288694564675 -0.2675026674658617 1 0 0
139 0 1 0 6.895824515863801 1.9780522900366124 12.255432573473982 0 -2 0
105 0 2 0 2.3335566326404025 -3.5424232044289896 11.102973145739105 1 -2 0
224 0 2 0 -4.240014162941024 13.431532562499529 8.290869811154332 -3 -2 0
1045 0 1 0 15.095180526421276 -0.5286483054533182 1.1758003067565586 1 0 0
971 0 2 0 8.151735431045738 3.9709980036307786 7.241092165699353 -1 -2 0
898 0 1 0 7.541003692416115 -1.0319439380488262 15.684503415267322 2 3 0
163 0 1 0 8.41780798589205 7.047303003399273 6.614857432013281 -1 4 0
1699 0 1 0 -0.27846475369196155 18.154434117583474 0.05946608873655845 0 -1 0
1241 0 2 0 -0.9097183626000778 18.690047198703684 4.268521765095432 0 0 0
723 0 2 0 -6.632212254199075 18.62711003443793 2.7495913780068024 2 1 0
177 0 2 0 2.3755727027075744 5.294424299202024 2.392829889548248 4 7 0
2412 0 2 0 10.765431780518586 4.8075781732667355 7.328743722406358 0 3 1
2264 0 2 0 2.73865702336107 2.272663837362086 1.8190475404841218 2 -3 0
442 0 1 0 2.564992573455182 11.77215779654199 2.2124830520628054 1 -1 0
246 0 2 0 14.393733120350209 -1.649079631373378 6.036776717057518 0 0 0
2465 0 2 0 2.191961935855928 10.336696416085948 -0.6795366718741631 0 0 1
755 0 2 0 6.6167659897522055 13.209149670470818 4.4345311344846 -1 -3 0
522 0 2 0 -4.041904993316602 8.700677854020633 11.676414196385101 2 1 0
140 0 2 0 6.231762531523988 2.6720265619746444 12.425586498028302 0 -2 0
379 0 1 0 7.358752177885128 13.220999162739494 8.51616348656048 1 -1 0
840 0 2 0 5.251425924023801 7.775804531055805 12.026326462311234 3 0 0
164 0 2 0 9.267831782274852 6.636164684457189 6.777434808497987 -1 4 0
336 0 2 0 1.8763546991035178 9.521999604722808 7.821303047410151 0 -1 0
811 0 1 0 -1.366063299839112 13.145026640398344 8.605885125019922 1 2 0
199 0 1 0 -0.6206865224847828 10.361329203690076 3.1851993585238842 -1 2 0
2453 0 2 0 3.416631089014815 2.12542384898601 10.185511164489458 0 0 1
514 0 1 0 -0.7811235129622516 5.941671492485711 4.3252448000301165 0 -3 0
1230 0 2 0 4.046535212699887 0.31362274620235864 0.6592551932067043 0 2 0
1266 0 2 0 0.9657807088527415 4.4300071105662795 12.095231060366615 -2 -4 0
837 0 2 0 5.370954305788697 6.370872100931332 7.619587608684931 -2 -2 0
699 0 2 0 9.989707583320174 0.38540355017090544 15.08053765259879 2 -3 0
711 0 2 0 4.980662503207454 0.6877639220369902 6.765221581495304 -1 -1 0
835 0 1 0 5.41937132203937 7.30940688713174 7.70626167698147 -2 -2 0
1237 0 1 0 3.165367328593813 14.32211757469343 4.709855028789201 1 0 0
2407 0 1 0 -3.8143200797627577 15.074074160111586 7.166089870068356 3 0 1
2495 0 2 0 6.453084443145948 4.827299114400315 10.564705097786561 1 3 1
813 0 2 0 -1.0641105189499267 12.396200541320493 9.170555874429477 1 2 0
2366 0 2 0 10.568145858520653 -0.614767313150252 1.9588177690760231 -2 0 1
18 0 2 0 9.364085030082375 -2.0086340276845447 6.412678417233675 1 3 0
1083 0 2 0 -4.9565090854266325 12.008748845914319 12.722561319691726 1 0 0
629 0 2 0 2.8431384133923547 11.42101816499992 12.982315788603788 1 -1 0
870 0 2 0 -1.1935365078655933 8.68951205585594 6.1369028396679335 -2 -2 0
1088 0 2 0 3.5168200971599375 9.825477067272006 2.700672369340129 0 -1 0
1247 0 2 0 -0.2864112682543786 5.466373192093972 8.269440428885384 0 2 0
1663 0 1 0 -0.12883057831861505 11.770056554279165 12.620077811134236 2 2 0
593 0 2 0 14.60203839129693 -4.230885867121655 15.50473583411894 0 0 0
1070 0 2 0 1.3609023691634752 -1.5100951579478608 5.398396728419913 1 1 0
2460 0 2 0 4.445777597691893 16.82014381594113 3.304873802936231 -3 -4 1
911 0 2 0 -2.302079366116332 13.81278259326076 12.111808252788203 -2 2 1
607 0 1 0 2.4623035544333454 -4.622025388769719 14.926689326433516 1 1 0
881 0 2 0 2.4868298358061915 -1.435025842511671 13.464353786790234 1 0 0
2172 0 2 0 12.066442360817483 2.3296386487896736 13.059057344480303 -1 -5 1
1094 0 2 0 1.9104834135808995 7.415888961516018 7.940023209051084 2 1 0
381 0 2 0 6.914951340700108 13.922829631377551 8.041341329579007 1 -1 0
972 0 2 0 7.767299845765714 5.452495952082083 7.386273612133429 -1 -2 0
553 0 1 0 -0.4877617797745888 -1.8701797773760007 15.418780258989088 1 4 0
169 0 1 0 -1.161693780588157 15.532913952246801 0.25620527832769757 0 -3 0
2452 0 1 0 4.349992658818892 2.109830975805426 9.897240357701154 0 0 1
1126 0 1 0 -2.027185491721873 2.7226840344535606 8.712741803060549 5 3 0
157 0 1 0 3.1338762577515746 2.434875532399052 13.074338890770683 -1 0 0
313 0 1 0 11.952635088472174 1.3422776194846548 5.832809993473451 1 -1 0
860 0 2 0 9.036972509005615 -2.122156922419396 12.93395785248262 0 0 0
485 0 2 0 3.57561056325732 12.664531098308952 6.822949369422726 -2 -3 0
744 0 2 0 5.217452827349257 8.306103475686026 5.892970167160874 0 1 0
167 0 2 0 7.529854066560841 5.772202407527521 2.067972608976259 0 -2 0
394 0 1 0 5.0348195678848455 12.383300946873876 5.215944661601126 -1 0 0
706 0 1 0 2.6513486010374017 11.351153732722643 11.231306986688887 -1 1 1
876 0 2 0 7.985020380836053 4.647951047866061 13.542827342743909 2 1 0
909 0 2 0 7.64223709080496 -4.1802026474569365 14.514067021457445 1 -2 0
202 0 1 0 0.9593204753052708 14.625425346387477 7.6590118311671205 1 -1 0
670 0 1 0 -3.2033357148144903 10.307813828684242 9.242062752838894 -1 -2 0
2232 0 2 0 9.18970415242567 10.425708409755376 7.272692582799092 -2 -2 1
595 0 1 0 4.710690917688434 4.600307981313256 7.628622418057979 2 2 0
716 0 2 0 9.877123771081179 11.615165279432787 3.045308123966437 0 -2 0
1 0 1 0 1.2908640200887829 8.34356634060475 2.684051582201028 4 -1 0
148 0 1 0 0.5052725875738253 1.1836537679381063 3.9253210560962435 -3 -5 0
526 0 1 0 8.989321495860551 14.550708074844774 1.2833548237099186 1 1 0
789 0 2 0 -3.405959963200628 16.92948768483094 0.570840102203666 0 5 0
696 0 2 0 12.439222193905897 -2.03802521808932 5.503447209917107 3 4 0
2546 0 2 0 8.07219856217581 2.2109430214537396 14.06341959553385 -2 1 1
204 0 2 0 0.6288439964870692 14.926658628477913 6.808480617046285 1 -1 0
328 0 1 0 6.602849161536665 10.653290235591294 3.008392794085228 1 -2 0
419 0 2 0 11.63510266729708 -1.2669711482111077 7.715186918134718 -2 -2 0
77 0 2 0 -3.9316722416850007 12.439041074651584 1.5862515595045887 5 6 0
160 0 1 0 -2.586196875888134 14.599425686594849 10.395063304030115 2 3 0
209 0 2 0 6.36901124857064 0.5904102979504078 11.085064185583404 -3 1 0
2329 0 1 0 9.099672920916792 -0.5734018069379769 10.10762932749545 -1 0 0
408 0 2 0 -1.0298722644643312 3.904799015532177 1.9872184489935947 0 5 0
1057 0 1 0 7.717208023686482 0.2648194445599916 7.717279100286465 0 5 0
70 0 1 0 6.486639047370309 15.577145536731877 0.025310901755848714 0 3 0
1080 0 2 0 -1.015797998763682 1.637072099591225 11.562852049510049 0 1 0
96 0 2 0 12.041937097498536 0.9574458079658318 0.7792832583915876 0 3 0
19 0 1 0 -5.060467257981203 14.849514850479704 11.84571828226242 3 -1 0
10 0 1 0 2.0284927439031084 7.0884169607066925 15.048697072324039 -2 -2 0
238 0 1 0 9.189187201360843 7.859511837322198 0.4889434616770332 2 2 0
303 0 2 0 14.610541566471621 -3.8958533164541533 12.908584721206696 -2 -2 0
1160 0 2 0 5.357031859528752 15.305548042708256 1.838833291898657 2 0 0
734 0 2 0 -0.9695539551718819 3.550899325390626 6.207539293175544 3 -2 0
2245 0 1 0 -5.524908015093049 17.153873328672773 10.361147672421229 0 1 1
1000 0 1 0 1.1846779811512906 14.383482107524483 0.884531992414396 -1 -1 0
138 0 2 0 -6.136054768667375 12.36874297119515 7.51568478157823 2 -1 0
1449 0 2 0 -0.12401498400606198 7.531379257476724 9.58150477300255 -1 4 0
520 0 1 0 -3.2063221874882064 9.24166558149187 11.812456376453374 2 1 0
2229 0 2 0 9.907181609993815 1.2228304396874998 -0.767221976455003 -1 -1 1
642 0 2 0 -0.2715142386480349 5.821970601189905 1.586284923701065 -2 -3 0
719 0 2 0 10.696280041045135 0.4633721940092159 10.105362090969546 -3 1 0
363 0 2 0 14.27745132983645 -2.4802033139935307 11.345461742708071 2 -1 0
934 0 1 0 8.079839312747351 8.375100952382963 2.9602746900645927 -1 0 0
1052 0 2 0 12.094584035440471 4.1562470773100815 4.69395746976968 1 -1 0
150 0 2 0 -0.24539459399664126 1.6106548737834185 4.336575490619443 -3 -5 0
601 0 1 0 -5.358036019718717 15.386519976721093 2.711198192369674 -1 2 0
949 0 1 0 -4.6957545730079095 17.97752008679526 5.914478854669558 2 1 0
1051 0 1 0 11.455690865887732 3.7024572445901565 4.114373203278571 1 -1 0
874 0 1 0 7.457528998933861 5.426151658911791 13.56443134941535 2 1 0
17 0 2 0 -1.1244000761630815 18.6239691149707 6.805184238103214 1 2 0
581 0 2 0 9.362025817715955 10.318069936850794 12.111649530649732 -2 -2 0
2466 0 2 0 2.3635086500247535 11.435974970492438 0.44395137524422457 0 0 1
2233 0 1 0 -2.04246719095972 7.970417926280522 2.952380104400334 1 1 0
2209 0 1 0 2.7666181057542754 5.273734221949169 9.541508600658547 -1 0 1
1087 0 1 0 4.3296682708497425 9.336109676785096 2.8556280553026423 0 -1 0
1229 0 2 0 -4.663966898000165 20.768147367736894 -0.36293878693731974 0 1 0
1159 0 1 0 5.3216154146477095 15.336523925721895 2.7813187111339928 2 0 0
868 0 1 0 -1.314603851435696 7.83816966607187 6.518240335890152 -2 -2 0
252 0 2 0 6.712648682463319 7.596611657764946 15.53003965521685 -2 2 0
596 0 2 0 5.544792470534226 4.197966445419661 7.935231838065917 2 2 0
389 0 2 0 -6.058301661894986 17.900454973690685 8.768882979033886 2 2 0
35 0 2 0 8.42493082113674 4.994543076807513 9.455927960719837 0 0 0
361 0 1 0 14.44080497622265 -2.195626626309285 12.26795245927202 2 -1 0
791 0 2 0 6.678393541862924 17.309918691798856 2.5604676415893497 0 1 0
921 0 2 0 7.199563034413028 16.13687038626619 10.434557313592398 4 1 0
743 0 2 0 4.646293583739449 8.948410053867239 4.616940171634094 0 1 0
686 0 2 0 5.158728320272387 -1.7056071450449726 5.604464986513902 -2 -3 0
250 0 1 0 6.233167578912686 8.333948678967655 15.083703722522369 -2 2 0
1041 0 2 0 0.6553472100312988 17.88018183256023 9.017666976660363 0 3 0
521 0 2 0 -3.268370969959195 9.826906441520538 11.030156425479834 2 1 0
2572 0 1 0 9.609093016592247 2.9303558214283134 11.28833565266045 -2 -2 1
350 0 2 0 -3.88590837692071 14.998797825033206 15.144124362511928 -2 -6 0
223 0 1 0 -4.74147164014997 12.691526168881241 8.730231272433798 -3 -2 0
76 0 1 0 -3.252387860292834 13.074683205652239 1.2518674160739005 5 6 0
2331 0 2 0 8.4221776462881 -0.2089050231548475 9.559543434936552 -1 0 0
266 0 2 0 -2.905999590923644 9.336677167611047 14.781107676002227 1 -1 0
2 0 2 0 0.8067836090751603 7.553597373247637 2.287470689634865 4 -1 0
301 0 1 0 5.503609757650924 16.62906595096304 13.076205709478318 -2 -3 0
1246 0 1 0 -0.34274244746669347 4.611197138286302 7.782149987688738 0 2 0
2494 0 1 0 5.621119203583165 4.38655933917407 10.834082598430145 1 3 1
158 0 2 0 2.343051791763486 2.831364043299769 12.598870857864606 -1 0 0
2402 0 2 0 -1.7147727389600156 12.461549689000353 1.0253432522544883 0 -1 0
797 0 2 0 3.5531161201496304 -0.4550431443249552 6.022168958659046 1 -1 0
602 0 2 0 -4.994541225843865 15.084721023832817 3.5365115778558405 0 2 0
672 0 2 0 -2.2319626493719413 10.2186344027231 9.137133128865667 -1 -2 0
576 0 2 0 4.538770863190697 5.105919345662121 14.737351879110662 -2 -3 0
31 0 1 0 7.073084370229058 10.986776575480699 14.302818424220792 3 4 0
51 0 2 0 10.358483167810892 1.252005000356828 2.795209991272994 -4 -2 0
317 0 2 0 3.789981968795347 13.31627971429358 9.24472249012468 3 2 0
171 0 2 0 -1.5396278204124334 15.850035205994748 1.0680722675576821 0 -3 0
1116 0 2 0 9.624761789472592 3.867208016623363 -0.2147988498797604 1 3 0
1114 0 1 0 9.84246434664687 4.041486778407471 0.6812618444009801 1 3 0
458 0 2 0 8.933887375610585 0.17324719936515787 4.02267177672651 -1 1 0
569 0 2 0 14.055582463899832 0.2793834016263852 3.149295135647596 -2 3 0
135 0 2 0 -0.4754389998487136 0.9366424039894894 7.284302714387811 0 1 0
2447 0 2 0 6.256585331010888 5.948758104357054 4.407703123686932 0 2 1
166 0 1 0 7.507019966633241 5.441809569733968 1.1606992446661835 0 -2 0
487 0 1 0 0.5027156337828869 0.5364687482229318 12.123030651767115 -1 0 0
457 0 1 0 9.846102771427192 -0.21385852398946925 3.994664442368534 -1 1 0
564 0 2 0 4.093270684560721 15.130217237940622 10.803957991677725 -4 1 0
445 0 1 0 -0.7828310579558103 10.933434384869564 5.783525428585198 0 3 0
2545 0 1 0 8.118348723890476 2.987274739700216 14.631570731099023 -2 0 0
143 0 2 0 5.975121743916681 14.287411334450251 13.97284940325623 1 -2 0
362 0 2 0 13.505393886468417 -1.7351791526198146 12.40316827047638 2 -1 0
709 0 1 0 5.351191486518245 1.5982597048469307 6.966122910306739 -1 -1 0
1031 0 2 0 1.3642345581645425 3.6319573036552097 3.568360867230157 2 2 0
628 0 1 0 3.096446754221443 11.676425642344919 13.842791096524623 1 -1 0
393 0 2 0 4.600854750878505 13.98575839932647 0.26712265757374976 -2 -4 0
1152 0 2 0 -5.553796400821803 12.71304624001179 14.856300816754018 0 -2 0
391 0 1 0 4.618920358942672 13.23710879773478 0.87999561188539 -2 -4 0
318 0 2 0 5.327031880105555 13.521642327242652 9.676429168180247 3 2 0
1071 0 2 0 -8.307104474635661 19.66551643569755 3.9978895871537343 1 0 0
927 0 2 0 3.6761230946157535 18.093758322771926 -0.433799702311157 -2 -1 0
1242 0 2 0 -0.16453073460890044 18.146130725803804 3.020222508576967 0 0 0
736 0 1 0 -0.971348550502394 8.04028331456345 11.54102658447914 -2 -8 0
1629 0 2 0 4.644029983242445 -1.1718531158964272 12.656954737922142 1 6 0
836 0 2 0 6.19835063924619 7.501214547954218 8.24691965286454 -2 -2 0
2365 0 1 0 1.5284751078076586 20.275691028818883 1.2222669760599145 -2 -1 0
1095 0 2 0 3.42637645418284 7.737621044957152 8.005024882919928 2 1 0
774 0 2 0 3.7418040153063314 7.87813536099738 0.5869907254225826 1 -1 0
1076 0 2 0 5.683193845241028 18.022593287605684 9.20425647881347 3 -1 0
323 0 2 0 10.359960804099593 -3.7695820596008334 14.073188797622368 -3 -1 0
1245 0 2 0 4.772491631631209 19.571537430821532 1.0230530829071696 1 0 0
1075 0 1 0 14.093638133715174 -3.0847429767895447 9.667895935039764 3 0 0
32 0 2 0 7.334686798180064 11.846305478934607 14.582290422906333 3 4 0
932 0 2 0 -3.312631886801894 17.26679526071552 5.132785615330779 2 -3 0
2573 0 2 0 10.103488280091886 2.3053607742354183 10.773051516826403 -2 -2 1
828 0 2 0 13.065746667131016 0.053542233340722944 9.175204930760083 -1 0 0
1250 0 2 0 6.8863417491098655 11.546145795781538 8.43771156257448 1 4 0
1265 0 2 0 -0.30942362351316904 4.027045430438147 11.258415072050068 -2 -4 0
2206 0 1 0 1.150500131570585 16.628739061606478 2.860004944912668 1 0 1
388 0 1 0 -6.427671926122967 18.366545569098577 8.00630716082735 2 2 0
2444 0 2 0 7.050755807012875 3.5939413478486095 0.8645165852477792 -1 -2 0
612 0 2 0 9.760952508928169 7.285345320099948 13.890670558076057 0 -1 0
644 0 2 0 0.5850044519534487 4.211262829424103 14.411199639109585 2 2 0
296 0 2 0 1.3801726130742091 2.9852260123173044 10.488986946981317 3 -1 0
2454 0 2 0 4.735917261842921 2.7939795341003553 10.458349434505367 0 0 1
2250 0 2 0 6.332004752684203 -2.0669217872609 11.74991258446227 1 2 1
251 0 2 0 6.798571725514892 9.1180163990587 14.962436564343761 -2 2 0
472 0 1 0 7.336458170459329 12.774617309985569 11.638673262799847 0 -1 0
1161 0 2 0 6.152139302771783 14.980879264392605 3.1936901626277736 2 0 0
304 0 1 0 7.102536251812212 18.565180126214642 -0.38186655467023084 0 1 0
910 0 1 0 -2.087763579280114 13.33885578368455 12.887432146306997 -2 2 1
1285 0 1 0 -4.526380484935065 10.737468752138637 6.011029551711739 1 3 0
537 0 2 0 9.671014754299119 8.974613433620998 4.641181683935783 0 1 0
2410 0 1 0 10.51902130680271 5.456243073872654 6.678652796359638 0 3 1
1561 0 1 0 2.9436721460260236 -0.8228984971445197 9.929997060475834 -1 -5 0
880 0 1 0 1.7585195362401067 -2.020940530234233 13.892481252737337 1 0 0
779 0 2 0 7.013192120242109 9.798573048566325 5.426312175305618 4 1 0
2248 0 1 0 6.038610774869522 -2.2380613212058953 12.65981923468633 1 2 1
1279 0 1 0 12.018052481164007 -1.061018148446137 12.39548682652657 1 3 0
2342 0 2 0 2.8810671241251704 8.669501952589957 14.94530950574036 2 0 0
1019 0 2 0 6.0373799080643655 -1.3503586301588655e-05 14.947165661816404 1 0 0
989 0 2 0 -1.3738394469014035 15.649434213761909 11.009831000437549 0 1 0
315 0 2 0 11.278855713788294 1.7899075633332058 5.23461561334053 1 -1 0
179 0 2 0 3.82750662826922 14.279210357909754 14.70175145275633 -2 2 0
68 0 2 0 -2.7055107130950224 19.622293185609205 2.561946806590122 -2 0 0
176 0 2 0 1.989724747091114 5.801092613778071 1.0501309484505132 4 7 0
396 0 2 0 5.012760485878437 11.458650996008048 4.914190366766416 -1 0 0
950 0 2 0 -5.407601995878557 17.932939697614472 5.205660884908057 2 1 0
603 0 2 0 -4.593719121004317 15.47058792323714 2.185254782065092 -1 2 0
2568 0 2 0 4.6683092595939435 3.4210492785136903 4.282145308239813 3 1 1
990 0 2 0 -0.5995450842350234 17.05672466604625 10.751003803384036 0 1 0
1520 0 2 0 -1.5310886651641655 17.074799140589388 8.09623734359046 1 0 0
1264 0 1 0 0.6341118789406827 4.322767201027763 11.172969289194825 -2 -4 0
641 0 2 0 -0.48512865382792225 6.926369871610073 0.44438208664312295 -2 -3 0
2265 0 2 0 3.7789345596750437 1.6247592266773538 2.689462091536196 2 -3 1
2445 0 2 0 7.167593185374984 2.0778669505273806 0.5622399738915829 -1 -2 1
175 0 1 0 2.7664079541874003 5.523846987829463 1.5549078142105044 4 7 0
727 0 1 0 -4.92106315843612 11.271094688219291 2.268916831814754 -3 -1 0
861 0 2 0 7.642106161671497 -1.55807230170976 13.171671319711702 0 0 0
72 0 2 0 6.776855163900043 16.467798772900224 -0.2002409866345246 0 3 0
1173 0 2 0 3.449238142635451 16.0364305547648 6.234353026996246 -1 1 0
506 0 2 0 -0.9100247442014027 4.904234951304261 13.453540982758021 3 0 0
407 0 2 0 -2.2851624777682096 4.671174162411733 2.4104353931802573 0 5 0
1295 0 2 0 0.471785177507722 16.094515442155895 4.66908961655831 1 -4 0
2299 0 1 0 13.505753083796273 3.3630769783121965 -0.7310469898685217 2 0 1
1251 0 2 0 6.163542184685772 10.549962603748822 7.504775506290827 1 3 0
1591 0 1 0 1.9272905548548331 8.578240079201368 11.801845615592157 1 1 0
334 0 1 0 1.2744194714822596 10.265729815852444 7.983470305374363 0 -1 0
3 0 2 0 0.5732877083147894 8.919851998387578 2.9200606315744135 4 -1 0
715 0 1 0 10.421039690862502 11.127545296501747 2.4041469762478727 0 -2 0
36 0 2 0 9.02504064478169 4.520896672264948 10.814324883401447 0 0 0
1214 0 2 0 12.64836478554396 -2.110052762587595 9.53012828307289 1 4 0
1274 0 2 0 0.5457077998309141 12.703050971525796 4.862412289737039 1 2 0
229 0 1 0 8.649345626521452 3.788153564822587 4.433394159535164 -3 0 0
737 0 2 0 -1.8316741071379794 8.427738585292014 11.581179917421775 -2 -8 0
742 0 1 0 5.2097718514220395 9.143564663457836 5.434754080004874 0 1 0
1064 0 2 0 -3.7638904426493314 7.354792671116428 8.218144708296155 -1 2 0
866 0 2 0 1.2343159703759619 9.194561356918264 13.491368823353035 -3 -1 0
34 0 1 0 8.5684428756494 5.280715685148246 10.377811745349952 0 0 0
570 0 2 0 14.643042897987103 -0.016636920645392683 4.61160373611866 -2 3 0
597 0 2 0 4.082815411435667 4.6771295377752224 8.376625425344008 2 2 0
544 0 1 0 1.6252322981420724 1.137181288836782 14.794368322752499 0 4 0
58 0 1 0 4.5193183996590225 5.125736413389512 5.003902940937249 1 -2 0
649 0 1 0 7.3366353951688525 0.5154520587365597 0.9545827270561658 -3 -5 0
2547 0 2 0 8.952781412470339 2.8475841342606127 15.084695575023286 -2 0 0
2523 0 2 0 5.72066770566532 15.564337417861113 6.700342398024579 2 2 1
201 0 2 0 -0.7868974773607986 10.748508665777498 4.058512584683804 -1 2 0
161 0 2 0 -2.3410170639654226 14.12806078192973 9.600499508574309 2 3 0
2343 0 2 0 4.496477276444989 8.804296674266752 15.06938306554157 2 0 1
488 0 2 0 -0.0025628343368926387 -0.22591356777760563 11.779274218158347 -1 0 0
2459 0 2 0 3.839973447538004 18.09239388547491 3.793869095921167 -3 -4 1
159 0 2 0 3.732977472693084 3.2131296940834995 13.321064558058307 -1 0 0
951 0 2 0 -5.244880536454964 18.03253823115746 6.725430736323154 2 1 0
1249 0 1 0 6.4737635089860905 10.663904420520979 8.415849191575953 1 3 0
122 0 2 0 3.9177443725217604 6.221432828123354 12.620142217947228 -2 -1 0
2269 0 1 0 0.34891762120160963 0.6276729659563811 -0.3955791717120729 1 0 0
2228 0 2 0 10.104408431264128 -0.05125658794368504 0.10831999057742014 -1 -1 0
101 0 2 0 0.13975057310532002 2.2550839817958 0.8658805396796145 2 4 0
917 0 2 0 7.1524762838910565 0.9066271019409842 2.6198456915127255 0 0 0
12 0 2 0 2.766545628697698 6.668929820197974 15.535497312278487 -2 -2 0
392 0 2 0 5.536786371779744 12.981781520356286 0.9438600364061775 -2 -4 0
294 0 2 0 5.6692510578337165 10.61254783522848 10.085417044498694 0 -1 0
685 0 1 0 5.31633685061378 -0.7347930953789368 5.63848878851201 -2 -3 0
1039 0 1 0 8.950397816039528 -3.4109781641591215 9.326514876407348 0 4 0
2330 0 2 0 8.686551251845826 -0.7797139302436054 10.958801486018814 -1 0 0
2458 0 1 0 3.687146345404537 17.420565130978346 3.151742252444002 -3 -4 1
1115 0 2 0 9.114964157193791 4.675057573981615 1.0148938759378956 1 3 0
100 0 1 0 0.3407434944122657 2.693439227330103 1.7069453021361523 2 4 0
687 0 2 0 5.787561936637944 -0.402421592382348 4.873320311350296 -2 -3 0
1018 0 1 0 5.232323860411471 0.44721042688042 14.897326148500138 1 0 0
447 0 2 0 -0.1762171184316582 10.953959841679792 6.491402973348372 0 3 0
777 0 2 0 7.415812425744938 11.575102379011266 0.26559578508949366 2 1 0
178 0 1 0 3.588662269194322 15.159793650111887 14.367601645675123 -2 2 0
2210 0 2 0 1.850271522809977 5.303810655664601 9.308165505632783 -1 0 1
1008 0 2 0 -6.917737169489352 15.201690782004455 5.574300263341672 0 2 0
50 0 2 0 10.318867860832082 2.3495639617569926 1.6322253221846026 -4 -3 0
149 0 2 0 1.049517926261352 0.8134975915316038 4.594764554292945 -3 -5 0
931 0 1 0 -2.7195206923053834 16.855138017204084 4.520047383651717 2 -3 0
2403 0 2 0 -0.6684667605641633 11.595850907356326 0.21733305406014503 0 -1 0
790 0 1 0 6.7232646137715415 18.250916977863227 2.4461806660340386 0 1 0
24 0 2 0 2.4019260987457014 16.489164927774432 9.829586121642137 1 0 0
162 0 2 0 -3.4832778579615864 14.886068847955762 10.49034867172261 2 3 0
812 0 2 0 -1.815440868735665 12.743211019516018 7.864280301233906 1 2 0
210 0 2 0 5.143945737896424 0.4752185324402176 10.337159267239889 -3 1 0
1037 0 2 0 -2.7468700471716336 5.491555276771845 15.042557141205169 0 -5 0
786 0 2 0 -1.2085596052951177 14.127548531119334 14.288551192075591 -3 -3 0
690 0 2 0 1.4612715102890166 1.4971284612598552 8.401534877655685 3 1 0
785 0 2 0 -0.08141633255862668 13.786077973530105 15.275484221867902 -3 -3 0
1341 0 2 0 -5.45921523564441 14.215592991905353 -0.36666596901697224 2 -3 0
1339 0 1 0 -4.553897923838289 14.467837318794905 -0.6815718205208298 2 -3 0
960 0 2 0 -8.334744418604888 16.19101257967722 14.368755991326015 0 3 0
102 0 2 0 0.526280950065054 2.0085626772776166 2.3999608414344684 2 4 0
1628 0 2 0 3.8724706500073296 -0.00037564799014777606 12.052523420302842 1 6 0
710 0 2 0 4.855271637857572 1.8276177249693126 7.770591772168913 -1 -1 0
970 0 1 0 7.494257647815822 4.557690140277364 7.607470248201519 -1 -2 0
630 0 2 0 3.3340846044703767 10.869520675722084 14.309539853182413 1 -1 0
664 0 1 0 12.881110999888223 0.10791523715746099 14.763485563284963 0 -3 0
574 0 1 0 4.580905040042295 5.002266317571711 13.781439064635583 -2 -3 0
643 0 1 0 1.1098624319318806 4.790629629426964 13.858243852968242 2 2 0
523 0 1 0 1.535792473366643 13.945525935296235 12.14327894215985 -1 -6 0
444 0 2 0 1.8329693129866953 12.148449526250932 2.7119884190786983 1 -1 0
838 0 1 0 6.022881129078898 8.334756495095602 12.146058799431412 3 0 0
187 0 1 0 5.798893395646042 -2.7796766894539453 9.802976115267446 0 1 0
2242 0 1 0 -1.6569489562271509 7.411722702668525 -0.8340327153282445 1 -1 1
71 0 2 0 6.536852023193305 15.091829982719455 -0.7812551745246513 0 3 0
2367 0 2 0 2.4559439274570614 20.106487975246075 1.2458540053447287 -2 -1 0
1081 0 1 0 -4.332150362742446 11.996702370095012 13.479243048797349 1 0 0
1234 0 1 0 -1.534049383718997 7.947237585823036 14.933453722059902 1 -2 0
610 0 1 0 10.0778655577432 7.062227655159403 14.842264031200331 0 -1 0
2246 0 2 0 -5.345494365446483 16.358664971009723 10.857917954862039 0 1 1
28 0 1 0 -3.078892956725212 12.843725534879312 5.639477340908597 -1 -2 0
1448 0 2 0 -0.36235626683279565 7.679851859805336 8.082849919759184 -1 4 0
1239 0 2 0 3.795267466375405 14.734198760991427 4.099539242647367 1 0 0
1296 0 2 0 -0.6355913394722095 16.649129345978853 5.458781949864568 1 -4 0
697 0 1 0 9.632018996522845 0.7551710847917503 14.249461676187426 2 -3 0
2522 0 2 0 6.76334769190945 14.668390107963676 6.036117945198383 2 2 0
754 0 1 0 7.009989915595268 14.1587122038992 4.42725229888166 -1 -3 0
2340 0 2 0 -7.750165964222331 16.84780907093901 6.931262514278829 -1 0 1
912 0 2 0 -2.8819924691399783 12.853228739902395 13.168659773671251 -2 2 0
1053 0 2 0 11.99038604846266 3.3840290562372557 3.3741232813079405 1 -1 0
1179 0 2 0 -7.904416293805282 19.985369763510356 1.1822987871732207 -1 0 1
1700 0 2 0 -0.6270792256130847 17.21524877333327 0.12182151049149048 0 -1 0
914 0 2 0 1.943889245896839 12.477102980305725 14.893371649348856 -2 -2 0
324 0 2 0 10.286144060696877 -3.7335583999515145 12.480659291438352 -3 -1 0
1701 0 2 0 -0.11652034407202792 18.527282274162772 0.9735901674236405 0 -1 0
2464 0 1 0 2.2015654003244727 11.332430063735945 -0.5221746830016167 0 0 1
2510 0 2 0 13.767779508560704 2.9354784304172 1.4864475570828062 0 2 1