LAMMPS data file via write_data, version 23 Jun 2022, timestep = 8051000

2592 atoms
2 atom types

0 31.164 xlo xhi
0 21.490526 ylo yhi
-0.9938889803399853 32.67839295910606 zlo zhi
-9.197534 0.8246177096569299 -11.299796611442215 xy xz yz

Masses

1 1.008
2 15.999

Atoms # full

911 0 2 0 6.96317185675871 2.938328305995274 2.4110544932023004 0 1 1
215 0 2 0 6.734028684842025 12.129258213885272 13.022967563047363 0 0 0
975 0 2 0 11.083294063682837 6.055352003363305 5.963150621297809 0 -1 0
907 0 1 0 2.2058858569739765 15.680782923138354 15.562820436119296 0 0 0
963 0 2 0 -2.1059259520547453 6.607669628602565 6.86400588311694 0 0 0
1286 0 2 0 8.777215614719205 12.171744995358726 6.604775757897304 1 1 0
595 0 1 0 -1.1203756604972197 6.425637087523382 12.618830289144013 0 1 0
506 0 2 0 1.039932764430806 12.140507449599289 4.648409036466456 2 1 0
1058 0 2 0 -1.958738677957533 12.596694804046145 -0.01614044748542265 0 -1 0
1120 0 1 0 3.2085381504082227 9.755505357740514 6.861140207522844 1 0 0
2342 0 2 0 8.813316472814613 5.598911447003285 0.3887786540585103 0 0 0
829 0 1 0 3.2647150766560826 -3.3940079403003223 13.929541289491437 1 1 0
1039 0 1 0 0.6789213890891295 11.324480724564935 8.139441880469812 0 0 0
373 0 1 0 7.529095885599889 9.505113389394156 10.500120461123661 0 0 0
496 0 1 0 12.44490732884668 2.6412245547947295 6.955054625540227 0 -1 0
1245 0 2 0 -6.8656329154281694 17.581217751139953 2.1691000551202664 1 0 0
1079 0 2 0 5.637942878486788 12.48333163599645 0.20955747346694142 0 -1 0
2367 0 2 0 1.091322465400085 2.3714778477896714 10.742989252547 0 0 0
305 0 2 0 -0.5803888881067844 4.404510347792727 1.2150260360659413 0 1 0
138 0 2 0 3.5540994445858285 11.421262749778641 2.059381103287888 1 0 0
1090 0 1 0 2.962932534407887 19.399149848437673 4.870181265914435 0 0 0
800 0 2 0 9.234571326927636 1.5415746592215314 1.9611902227827867 0 0 0
409 0 1 0 4.662627871986121 -2.3538503931057457 8.356878562737316 1 1 0
651 0 2 0 -1.5286345078379526 15.49627729226747 13.065356493276399 1 0 0
42 0 2 0 -0.6367017124236709 9.818549997182593 5.403521527771425 0 1 0
67 0 1 0 -3.1259665295273105 10.867132222600471 10.018071188628918 0 1 0
1156 0 1 0 -4.845716725454149 18.846573591066264 0.8390198080965228 0 0 0
688 0 1 0 1.3863429456188192 -1.0216366748145957 8.760255031376072 1 1 0
824 0 2 0 7.0986288406739035 4.998652364516397 8.498912912971955 0 0 0
2401 0 1 0 -4.816133111419727 11.201945728223366 4.577523809551813 0 0 0
778 0 1 0 -2.6527817532081444 16.68943203777262 3.918141536479668 1 1 0
693 0 2 0 5.7245493208114056 13.561459761604928 10.24440017024971 -1 -1 0
1004 0 2 0 -0.08555301977313212 0.8775167395327896 11.157692851453913 1 0 0
1180 0 1 0 2.8139199498588194 -3.6900074083841248 10.986773381109158 0 1 0
913 0 1 0 4.823126017334268 7.842828764305436 3.6472718977186895 0 1 0
569 0 2 0 2.5722943362880444 16.19305475262533 11.08150464636102 0 1 0
949 0 1 0 4.957085870505613 3.409735158094894 -0.3159493249219383 0 0 0
113 0 2 0 2.9579217708179852 15.532962519569008 1.3283390009064577 0 -1 0
476 0 2 0 9.374272774330526 12.001587555414247 0.33079767935022586 0 -1 0
1293 0 2 0 4.244853811225443 -0.1623698979778847 2.8814917961676434 0 0 0
702 0 2 0 4.959233123225253 5.999238359022026 1.6551927842952754 0 0 0
154 0 1 0 -2.0768950576278806 8.429491312678177 15.105284015971254 0 0 0
551 0 2 0 2.788821944570407 -0.8112098310978584 12.010342298179642 1 1 0
735 0 2 0 -2.3498574546119024 4.2401456851532 10.376206276742273 0 0 0
727 0 1 0 -0.2644674647383495 14.493009571421402 12.152102970781849 0 0 0
11 0 2 0 0.611912632519432 -3.747128607888836 13.308702179486666 0 0 0
1023 0 2 0 0.20796963945604657 15.67273614759431 3.4339201746652748 0 0 0
852 0 2 0 9.244728309105883 1.504922425003893 8.089625602495303 0 1 0
670 0 1 0 -0.4975193865942032 15.51309149507052 8.956184534428482 0 0 0
2172 0 2 0 2.180011008074332 5.959297058225966 -0.7651475617139929 0 0 1
12 0 2 0 -0.3720105175045515 -2.70012660941656 12.73590473119281 0 0 0
1520 0 2 0 -3.6572279369678498 10.436488167808724 6.186600972382464 0 0 0
728 0 2 0 0.058321861375782935 14.032530815688215 12.934383418538562 0 0 0
1150 0 1 0 4.0200812200023766 -0.7659484546070514 10.619833325529333 0 1 0
1204 0 1 0 -1.3247080943307878 7.333449075409568 9.911388222943623 0 -1 0
918 0 2 0 -4.281194901397076 15.616636807470464 14.629094513239979 0 0 0
1054 0 1 0 5.253605111609255 8.663222362472741 14.770719938502245 0 0 0
890 0 2 0 8.088379346020343 -2.168180481388402 15.308153049973143 0 1 0
223 0 1 0 0.31730834304426214 0.25504306436075563 -0.09495301244418564 0 0 0
835 0 1 0 -2.6064803918985158 19.88094764159437 3.0849316663989477 0 -1 0
1175 0 2 0 6.132461309703668 5.873556509552028 13.691820582648095 0 0 0
1226 0 2 0 -2.981891022535777 13.33711958897942 3.599815956984604 1 0 0
198 0 2 0 0.6916925452339663 12.555459429018219 14.819248848767456 0 0 0
570 0 2 0 3.9995053551173476 16.185571131327556 10.527555351826052 0 1 0
13 0 1 0 -3.375008557357502 13.895867760084181 -0.4443790987195789 0 0 0
596 0 2 0 -1.6228701839433173 5.542633541562242 12.554346566703614 0 1 0
106 0 1 0 0.17959952803382218 3.6242734997189903 13.59589869231028 0 0 0
320 0 2 0 6.027509180857674 1.2432397397030974 7.6030474337109055 0 0 0
1217 0 2 0 -4.818649210379798 14.784429888592875 9.301231252990783 0 0 0
803 0 2 0 9.344335355373534 0.8998205013498177 14.945318814069212 -1 0 0
1227 0 2 0 -1.7377226952579743 13.988980488108034 2.9946928926864165 1 0 0
546 0 2 0 9.179731090651245 6.009998658560594 7.929201701428516 0 0 0
1091 0 2 0 2.9195457234497035 19.045203896685027 5.798492149990398 0 0 0
1722 0 2 0 11.458514593691525 -0.7623883710167405 14.991512813288262 0 0 0
271 0 1 0 -0.033823952461562876 20.487205652385246 0.8789279162388477 0 0 0
1062 0 2 0 6.432472727444158 -3.915206168266156 10.759944017987628 1 1 0
136 0 1 0 3.8882460158435146 10.530686657545921 2.261749616073501 1 0 0
354 0 2 0 11.979699083347652 3.4637280901261525 4.196508611813538 0 1 0
118 0 1 0 1.4891797111162817 6.652904831386212 8.379552230944535 1 0 0
1234 0 1 0 -3.248624664554715 8.434138759014926 12.03509103459876 0 -1 0
183 0 2 0 0.6078761673458255 2.1037536635028795 14.398380056010245 1 0 0
518 0 2 0 6.79908828966741 10.664143730408004 3.547916828856483 1 0 0
1067 0 2 0 14.22599936988548 0.6117030998651769 6.486739384447777 0 1 0
156 0 2 0 -1.1790475429098668 8.128049567795163 14.901574098001529 0 0 0
1244 0 2 0 -6.824666036538007 16.430189839197727 3.2032366582595495 1 0 0
671 0 2 0 -0.8790029008805268 14.757173702636633 9.378237587911936 0 0 0
165 0 2 0 2.0053403507510787 17.735223679907264 4.27786159010024 -1 -1 0
363 0 2 0 7.14355511325248 -0.38198182840340383 0.6177836329163455 0 1 0
1123 0 1 0 7.468267575352126 -2.958186944457296 12.255119788654396 0 1 0
126 0 2 0 10.782211312902975 4.18062789573953 9.000631917219795 1 1 0
268 0 1 0 8.708524906002257 10.472584537324526 3.149278164549468 -1 -1 0
1181 0 2 0 2.3834146544482966 -3.2661747275985435 11.765072480820258 0 1 0
1287 0 2 0 8.627462318094723 13.25752852589372 7.71719579533076 1 1 0
41 0 2 0 0.049053943182750775 10.080660717965838 6.815356180245313 0 1 0
1265 0 2 0 4.814606664103972 18.683934743603583 7.345621106354642 0 -1 0
1276 0 1 0 1.8523136534810365 1.5969077908483622 1.8328138736491164 1 1 0
203 0 2 0 12.396962470681693 1.063054170115219 7.219404769751636 0 0 0
1153 0 1 0 -3.2630983947481136 13.186461596185808 13.982060921576036 0 -2 0
1189 0 1 0 -6.642115069407149 12.990825277738413 14.715950056200322 1 1 0
446 0 2 0 3.8467069530205724 12.916662426652463 5.321625029049478 0 0 0
218 0 2 0 9.061824297545297 1.5451563123080914 -0.15911049663438392 0 0 0
1108 0 1 0 14.226209070980659 0.5971919497851818 -0.2568447243918125 -1 0 0
554 0 2 0 4.04973851335266 12.464078064676032 9.993316357948412 0 1 0
601 0 1 0 1.2442782829891625 6.241787186113812 0.5277296162577185 -1 0 0
365 0 2 0 4.712679752107012 1.2977290111670265 4.53965757829274 1 0 0
516 0 2 0 -0.7207799452071505 19.120704212140524 2.729670511654968 -1 -1 0
281 0 2 0 2.4430512113182563 14.193573800472947 7.342205316907469 0 0 0
347 0 2 0 6.13908884626523 17.535327075622405 1.4884437659175913 0 0 0
1201 0 1 0 2.6031857780784096 10.10231492544407 10.111617823389752 0 0 0
346 0 1 0 5.833654426377474 18.43467389727121 1.6166108795047407 0 0 0
834 0 2 0 -4.7597288772483495 8.20768702116027 13.775890425351845 1 -1 0
128 0 2 0 2.6929514244838626 9.550845962928022 15.28644096737386 1 1 0
2 0 2 0 2.9628102284978115 7.676513764391507 11.626962468416796 1 1 0
277 0 1 0 -0.9292603880946174 10.79942058735881 3.5766936870702395 1 1 0
889 0 1 0 8.906556025078526 -2.5298863205796285 15.797619809470355 0 1 0
553 0 1 0 4.792956082552808 12.520865412520687 9.396124589977681 0 1 0
1109 0 2 0 13.551684675622221 0.5963600263890513 0.4542565108295935 -1 0 0
450 0 2 0 2.2497523466717895 5.767274625846781 12.183802780988977 1 0 0
1020 0 2 0 4.4423702149285065 2.0768761004863747 9.00253924965508 0 2 0
116 0 2 0 -5.067752790798183 13.532191297862598 2.69977948849363 1 0 0
1157 0 2 0 -4.288828275303157 18.05996592071436 0.7820726169914434 0 0 0
115 0 1 0 -4.955358383710984 13.680011797986488 3.6791424787842066 1 0 0
177 0 2 0 12.922476342840584 1.3526287404800263 10.391915841471953 0 1 0
993 0 2 0 11.027709819163375 6.775366467363467 3.4632396888529957 0 1 0
205 0 1 0 6.226234688081743 -0.6901102552770064 6.841012755671585 1 0 0
725 0 2 0 -2.519204630365553 9.880667429343498 12.612442048016973 0 0 0
920 0 2 0 4.630503910812054 11.40385482982235 12.692787160772124 0 1 0
260 0 2 0 -6.844066490747733 16.204018331253888 11.292642475189844 1 0 0
2343 0 2 0 8.419570981396909 4.687770760764776 1.5803644193090203 0 0 1
1247 0 2 0 -3.2036338928565096 16.171232750552708 2.342851976681149 0 0 0
701 0 2 0 5.655277463313373 4.945052445044652 2.4886629307836343 0 0 0
592 0 1 0 0.8440647297758022 -1.4897633963475214 4.157634029376851 0 0 0
577 0 1 0 3.7419273711989454 10.007721387130395 -0.5679559746064036 0 -1 0
108 0 2 0 -0.09703288263501281 3.282105459951639 12.726202986354444 0 0 0
266 0 2 0 7.2569705297418965 7.655909281182808 5.767159334787083 1 2 0
267 0 2 0 7.73823658176442 7.293358271551091 4.384994895102991 1 2 0
560 0 2 0 3.5266514239946245 7.821157759918262 2.4206491282242952 1 0 0
2186 0 2 0 0.8250269282245031 10.401208112127735 0.4362926090910364 0 0 1
227 0 2 0 2.973557143688541 8.980811438360327 13.250549553292437 0 0 0
334 0 1 0 0.674978781802401 17.990868508923256 -0.33750274822401627 0 0 0
328 0 1 0 10.94454207027972 -2.019064670208661 7.579181541365124 0 1 0
1720 0 1 0 11.113889564750624 -0.18624329448836452 14.287651277270713 0 0 0
120 0 2 0 2.4578493978619123 6.523688285538302 8.447070746902275 1 0 0
1071 0 2 0 1.9859295393075795 -0.42735916482746594 7.060501692640232 1 0 0
252 0 2 0 0.7115130680184645 -1.6851892813949338 15.396884193633799 0 0 0
194 0 2 0 1.5687545698970156 8.286803915753561 3.001148209191305 1 0 0
797 0 2 0 1.5029606738492445 12.817131619048524 11.024977263082159 1 0 0
60 0 2 0 4.361867618933758 14.189338921594862 -0.4884375383316494 0 0 0
779 0 2 0 -3.4041913685978202 17.226152379256764 4.260964571016197 1 1 0
214 0 1 0 7.36297025696281 12.859915867322513 13.083452200052989 0 0 0
917 0 2 0 -5.5748056994452515 14.73595473258667 14.63188564167118 0 0 0
758 0 2 0 4.086247368556897 7.277249137984313 5.29792298087266 1 1 0
910 0 1 0 6.869670420734314 3.7817168970496042 1.9837184544819486 0 1 1
544 0 1 0 8.51020203615017 6.412397410167596 8.501478073705977 0 0 0
40 0 1 0 -0.1968900811389435 9.322552537081698 6.129427726726849 0 1 0
1096 0 1 0 6.668489487909727 -1.051657250774026 15.125829771460648 0 1 0
2366 0 2 0 2.4168978816981754 2.8503690148411085 10.249898879179415 0 0 1
399 0 2 0 1.7795474169969356 12.35937682286716 1.833392844416291 0 0 0
900 0 2 0 11.072887158502622 6.860512145170872 9.579330022433325 0 0 0
351 0 2 0 9.112409208708671 -1.9536845402638099 5.114117837590745 1 1 0
919 0 1 0 3.8670625457621166 11.957005973669283 13.07577299299089 0 1 0
710 0 2 0 6.252389594965742 8.836280543853807 7.908383495484701 1 1 0
181 0 1 0 0.8830894287771907 1.3750099293748832 15.024954687097349 1 0 0
515 0 2 0 0.1387767615146035 17.887495463955016 3.057337024376772 -1 -1 0
562 0 1 0 3.7668289804289556 16.3947533728982 2.6823526515868465 0 0 0
233 0 2 0 -4.188636255808648 6.098964245496024 14.832862578353293 0 0 0
422 0 2 0 7.801224438021923 1.165030077563898 3.599151928131687 0 1 0
2271 0 2 0 0.622264970488353 3.3080628423165375 -0.8137645201997231 1 0 1
980 0 2 0 11.133878935879563 -4.255791311687533 14.315766827876468 0 0 0
1169 0 2 0 2.6789037692611197 0.5351175188820472 15.236120816124512 0 0 0
887 0 2 0 6.286539093192991 10.947018705782812 6.602709078864773 1 0 0
561 0 2 0 3.1857914961069675 8.498355506447687 1.0898630381386365 1 0 0
1038 0 2 0 -5.630979123758993 17.80935852512575 7.258522466034767 0 -3 0
477 0 2 0 7.802953965100458 11.687742208272748 0.3333847755134851 0 -1 0
974 0 2 0 9.608341036778357 6.35059406719785 5.535216337987322 0 -1 0
568 0 1 0 3.198485015544006 15.644114771769287 10.615722422923957 0 1 0
557 0 2 0 1.5476983332727805 3.489972962291676 4.9844253898886 0 -1 0
249 0 2 0 -2.2651032097582244 5.204789620282768 15.423476978463068 0 0 0
220 0 1 0 7.348989212899352 -0.930694979258456 9.635507403809846 0 1 0
1060 0 1 0 -3.6758149306421433 17.436152496955497 10.542725121053788 1 0 0
1076 0 2 0 -0.02134877002570594 0.09447231041910753 1.8318717761577785 1 1 0
687 0 2 0 5.569065902757938 3.460502641144365 4.854533090754736 0 -1 0
1182 0 2 0 3.8197465700326436 -3.5355932858879555 11.089017454454602 0 1 0
673 0 1 0 0.8066641341124341 16.990571655197133 11.850584583611026 0 0 0
958 0 1 0 13.1949139267858 -2.0328442557463187 12.809551960541581 0 1 0
447 0 2 0 3.3479821315988527 13.109549028585867 3.8891394201663623 0 0 0
486 0 2 0 -2.622134675298481 15.323954460799326 5.343938924696609 1 0 0
757 0 1 0 3.6632223224995766 7.170074804597542 6.166334107372781 1 1 0
375 0 2 0 8.193677849944887 10.210065849821689 10.288078957997003 0 0 0
353 0 2 0 10.933419976207345 4.212708152652303 4.991959699794997 0 1 0
686 0 2 0 4.0757167818561175 3.4349270650301684 4.841413643394214 0 -1 0
395 0 2 0 9.573482873750542 9.888698262913774 13.200843264539575 0 1 0
326 0 2 0 8.451823616769845 6.860947472640588 2.2802200491210103 -1 0 0
545 0 2 0 7.956362932206106 7.022023770072822 7.972887330322228 0 0 0
726 0 2 0 -2.553135537911453 11.26266060139204 13.407384187957977 0 0 0
1101 0 2 0 -0.8975245381746834 7.31473814762556 3.3214211560700946 2 1 0
1018 0 1 0 4.05864886500217 1.9495147813199387 9.894840482777939 0 2 0
915 0 2 0 5.451510281906261 8.595130027487906 3.6005138149953115 0 1 0
1282 0 1 0 0.43295261290944004 2.3768197504428237 5.498530509044362 1 1 0
1283 0 2 0 -0.3232931395188049 2.574228572171144 4.92593277276141 1 1 0
301 0 1 0 -1.0751001804842577 -0.6287145674615413 15.109282525062632 0 0 0
261 0 2 0 -6.422313026713348 14.683179277012172 11.567689363646265 1 0 0
1261 0 1 0 3.759695078270533 5.973802500806301 15.135846261251942 0 0 0
1377 0 2 0 -4.616452472869037 12.649569140613082 12.301080586683867 0 0 0
799 0 1 0 10.091468211209618 1.6716931956708267 1.5083152570107 0 0 0
25 0 1 0 4.565710500541185 3.6803688611559675 11.98694727598505 -1 -1 0
825 0 2 0 6.306589575565774 3.765168117664267 8.234685709486063 0 0 0
925 0 1 0 -8.324829323369336 17.40022824458182 8.791620586028582 0 0 0
314 0 2 0 8.39062026409254 -2.432310249800627 9.888238510272236 0 0 0
1629 0 2 0 0.09233639346695835 15.048121720640253 1.2102756937264032 0 0 0
1159 0 1 0 5.314480229584362 14.312135207260246 6.906607807753029 -1 -1 0
3 0 2 0 4.299853838999371 7.215073222910213 12.273051397554818 1 1 0
159 0 2 0 10.84449275424198 4.499887748209727 0.9232942581982844 1 0 0
700 0 1 0 4.8832166550425695 5.544173320031441 2.512414389878692 0 0 0
1203 0 2 0 2.0945187599022788 9.278901011190563 10.16854844875139 0 0 0
859 0 1 0 5.659480187628401 19.560674954680792 4.153771294737941 0 0 0
689 0 2 0 1.248557824089222 -1.9763747230950082 8.810199361485536 1 1 0
916 0 1 0 -5.252541178646801 15.628071373029385 14.673076567882253 0 0 0
10 0 1 0 0.5911702579014694 -2.8881085520005305 12.918943577346191 0 0 0
1249 0 1 0 6.965128631719133 16.33726107975091 7.4783152355408795 0 -2 0
1056 0 2 0 4.851866283583051 7.8222905022637725 14.948605982000597 0 0 0
236 0 2 0 9.319602258372585 2.7707356950663393 9.928473541300951 0 0 0
247 0 1 0 -1.4331046348592174 4.783351377315802 15.722533342002716 0 0 0
498 0 2 0 11.818100007170116 2.942769781675108 6.248381753451969 0 -1 0
1225 0 1 0 -2.2408951158057584 13.132370931543624 3.0396561738664216 1 0 0
598 0 1 0 7.8387006386281515 6.766028698720929 11.146016522811793 1 0 0
1151 0 2 0 4.12924380169271 -1.325550530409358 9.868199024772302 0 1 0
672 0 2 0 -1.0012567923367925 16.27571109519543 9.194080403680777 0 0 0
92 0 2 0 5.943093256388217 9.875560757687223 13.544222920843504 0 -1 0
175 0 1 0 12.134406546559342 0.905418421198632 10.047538821362432 0 1 0
594 0 2 0 1.2408702517199786 -1.028675700009634 4.903065142275326 0 0 0
155 0 2 0 -2.235358127926348 9.222195099950598 14.48734031198906 0 0 0
1168 0 1 0 3.4541159079743133 -0.020319724700336828 15.04797844033543 0 0 0
558 0 2 0 2.1557523314567066 4.131242672000954 3.657986585298379 0 -1 0
2458 0 1 0 -6.562156579223624 20.531273995405545 -0.9336547994550813 0 0 1
329 0 2 0 10.05964691375221 -1.8177675568362743 7.201089431160192 0 1 0
86 0 2 0 -7.892182180745219 15.518521400909638 13.14885423282121 1 0 0
798 0 2 0 2.4411677915634526 13.99667861135482 11.009816266657172 1 0 0
1278 0 2 0 1.995311245799802 2.5945858681532394 1.8865762900355576 1 1 0
1263 0 2 0 3.0466862571445708 5.911643119784611 15.760272525926464 0 0 0
405 0 2 0 7.156418259848443 15.297647706382504 0.6685615733750632 -1 -1 0
360 0 2 0 -4.022780171668132 10.403639536914547 3.1513536223525556 0 0 0
602 0 2 0 1.6862567388718959 6.98936914665599 0.9248155488231173 0 0 0
2185 0 1 0 0.4799613931682732 10.750544183752064 1.2727281150801035 0 0 0
1021 0 1 0 -0.16520609510543843 14.815267863568941 3.0919544449481586 0 0 0
272 0 2 0 9.57856037645709 -0.8359144210385323 1.712719316486746 0 1 0
1019 0 2 0 4.01299102594863 1.0032727007963413 10.117041457902102 0 2 0
398 0 2 0 2.6424230392260233 13.585442237187314 1.460647622275347 0 0 0
1235 0 2 0 -3.421855905300711 8.468338345650015 11.08944130529823 0 -1 0
745 0 1 0 -8.027758926585994 18.910795871952082 1.4216636091338706 0 0 0
1025 0 2 0 -3.5144865274835118 9.300369181735853 -0.4141591255545908 0 0 0
823 0 1 0 6.403408198723192 4.471436514803866 8.891465239565038 0 0 0
879 0 2 0 -5.35716069076835 17.886144988457932 3.763452979694219 0 -1 0
216 0 2 0 7.092356613946693 13.483150500741427 12.35186660047505 0 0 0
711 0 2 0 5.633944253001358 7.585781787080393 7.271324205983067 1 1 0
146 0 2 0 11.25800694751863 7.328033711062485 -0.7023043908831128 0 -1 0
514 0 1 0 -0.6756078568483449 18.137433164103044 2.6051652909206875 -1 -1 0
603 0 2 0 0.4758372079994959 6.582037429760969 -0.06904852038732079 -1 0 0
924 0 2 0 5.218371871359872 7.633507211609195 0.25077467676189147 1 -1 0
1266 0 2 0 5.649587584344945 17.418823375511444 7.214624163412767 0 -1 0
878 0 2 0 -5.274090127815655 18.31253300518363 5.147146115538865 0 -1 0
979 0 1 0 10.946059491899677 -3.394992880258344 14.009448751313391 0 0 0
983 0 2 0 0.5097832252889187 4.72463767092752 7.967893039030729 0 0 0
1084 0 1 0 -1.7723869514794113 4.985916889409838 6.111921152987445 1 1 0
650 0 2 0 -1.7272625356490086 15.830820004768494 14.635765968999765 1 0 0
658 0 1 0 0.5491193302334385 11.129364175497084 12.303936997864938 0 0 0
848 0 2 0 4.708221825587007 0.9657286887306569 14.273941242590448 1 0 0
207 0 2 0 5.7191962084258705 -0.4408590019581604 6.05554030327057 1 0 0
270 0 2 0 9.505225057712194 10.973999312999856 3.37584216494973 -1 -1 0
1 0 1 0 3.7678978639720047 8.026684444057366 12.063382781092866 1 1 0
1628 0 2 0 0.013114589103331534 14.695166382022055 -0.2623187332012499 0 0 0
404 0 2 0 6.510341209291509 15.297855843787902 2.0517921718947787 -1 -1 0
1376 0 2 0 -5.507232440778933 11.763149969691563 11.33472205132834 0 0 0
442 0 1 0 7.943125368737062 7.323229574247312 14.472582654159007 0 0 0
552 0 2 0 1.5903320215090868 -1.4353809487876927 12.688062862729515 1 1 0
448 0 1 0 2.595582367924812 5.298993933346857 12.954376258976191 1 0 0
653 0 2 0 5.336800164425587 15.015058417538008 14.298116295616335 0 0 0
1209 0 2 0 1.4163023291463872 16.91245395158856 7.27984231289415 0 -1 0
164 0 2 0 1.1414897572303933 16.86818049630743 5.236126844826182 -1 -1 0
315 0 2 0 9.370150727773899 -2.9199150522416017 8.808659369940418 0 0 0
419 0 2 0 8.530685986807178 10.108664850645024 6.925631742956109 0 0 0
1036 0 1 0 -6.273145811417799 17.38708866167879 6.713904130617517 0 -3 0
2547 0 2 0 7.507242161048207 16.806985120773625 4.515756976720907 0 -1 0
652 0 1 0 4.522472234752786 14.53050352517079 14.548590600274682 0 0 0
171 0 2 0 7.1032026180488685 13.876198884742024 3.6928452875180513 0 0 0
2222 0 2 0 8.574709744899275 9.804578175843336 -0.6148527134193376 0 0 1
873 0 2 0 -1.6695330724318649 13.739837506636354 10.800370240837225 0 0 0
112 0 1 0 2.804980887760552 15.117204450751617 0.4301812988749867 0 -1 0
923 0 2 0 4.542833330506956 6.5141111536660565 -0.4148342519643875 1 -1 0
830 0 2 0 2.7355459657645413 -3.0008860090850233 14.650001722199207 1 1 0
914 0 2 0 5.329811750634806 7.044431246086093 3.480862203516878 0 1 0
1059 0 2 0 -2.136967693721413 12.48534214993434 1.5068475906392447 0 -1 0
344 0 2 0 4.623901787511222 6.77941675371434 10.176858319723236 1 0 0
692 0 2 0 6.181278654701695 15.134103489925074 10.445232824752564 -1 0 0
2187 0 2 0 -0.40442386419022935 11.068519398785718 1.0680846772266617 0 0 0
1155 0 2 0 -3.434634596500282 12.827294517140498 14.838847931833037 0 -2 0
792 0 2 0 10.047318520712329 -0.5400843284512522 13.003242256484116 0 2 0
804 0 2 0 7.82809393799898 0.55073481397966 15.077792501753827 -1 0 0
1248 0 2 0 -4.500900848512911 16.19429181226507 1.643035113938204 0 0 0
1264 0 1 0 4.844627641041795 17.844950471391062 6.893649717491657 0 -1 0
125 0 2 0 11.608662533190504 5.284902733266595 8.280937966391239 1 1 0
345 0 2 0 4.896737791752614 5.779025459472171 9.036963030275652 1 0 0
1627 0 1 0 -0.23087512516731104 15.371562494024852 0.399493322639521 0 0 0
1269 0 2 0 7.387713741496928 3.8037463817124517 10.394071650952199 0 0 0
2270 0 2 0 -0.02534923558364209 2.1320611639470006 -0.26625073447458847 1 0 0
1267 0 1 0 7.891398369114564 3.222443242969489 10.990003263400517 0 0 0
659 0 2 0 0.11758405154404067 11.266462191022436 13.205539378151585 0 0 0
1100 0 2 0 -2.3137467181796136 6.9248346446091436 3.357631833383694 2 1 0
102 0 2 0 2.3694490119717617 10.474719178241864 5.3282598938396095 1 0 0
1022 0 2 0 0.2795284896944801 14.07916950259863 3.5667481213185868 0 0 0
755 0 2 0 8.818124686432938 1.0823864900447422 5.934708452634796 0 0 0
330 0 2 0 11.383636757145954 -1.1703559461449395 7.5826560854554135 0 1 0
1061 0 2 0 -3.9633792435279354 16.488782163455205 10.549296684691669 1 0 0
23 0 2 0 14.06166507603534 0.9038358327164451 3.204854878150919 0 0 0
962 0 2 0 -1.46845575386366 7.997383365896993 6.710509408783549 0 0 0
497 0 2 0 12.213728529872094 3.120564191004221 7.735516746734055 0 -1 0
304 0 1 0 -1.3649749115472447 4.475426672501683 1.8292040709326653 0 1 0
902 0 2 0 6.37161887169448 10.046706886889806 0.8903466174375589 0 0 0
449 0 2 0 3.2308492232549044 4.758315696282512 12.483284401684529 1 0 0
790 0 1 0 9.533619999328433 -0.8129787879444432 12.235516500098626 0 2 0
1161 0 2 0 4.945660465068238 14.63429199653024 7.716094548269119 -1 -1 0
1174 0 1 0 5.759137281397951 6.042346668462035 12.811300713796587 0 0 0
202 0 1 0 12.733270767589397 0.15166343571084218 7.248653411017662 0 0 0
61 0 1 0 8.133246513605139 14.744404870043402 -0.598694921121502 0 0 0
667 0 1 0 -5.531018641996692 12.919406231894765 0.7888772225577565 0 -1 0
780 0 2 0 -2.1055521819386294 17.42286916089746 3.5373160954007012 1 1 0
833 0 2 0 -5.497650077864665 8.742439124547499 14.968141713279126 1 -1 0
319 0 1 0 5.4980459186658415 2.0625464319575855 7.603785828792541 0 0 0
1251 0 2 0 6.961815663397149 15.358474984924602 7.49085419427912 0 -2 0
313 0 1 0 9.10402123899789 -3.084196485132394 9.718611786090293 0 0 0
1040 0 2 0 0.37864933385572286 11.032756405576151 8.986119161323174 0 0 0
709 0 1 0 6.465489173427721 8.051767440601527 7.383667344143783 1 1 0
982 0 1 0 0.0258757817679523 3.9246314186333833 8.239154478345224 0 0 0
703 0 1 0 -5.1140952909574215 15.114958189557651 7.5274332209957215 0 -1 0
169 0 1 0 6.37744414034043 13.418535723609468 3.2206138278313974 0 0 0
1057 0 1 0 -1.9043569175119923 11.954656116116974 0.6988465580328154 0 -1 0
1085 0 2 0 -0.9216196772571513 5.379508249862455 5.978917534924538 1 1 0
1186 0 1 0 5.175503400392475 -1.594258825970277 12.843889674125885 0 0 0
349 0 1 0 8.574744139862243 -2.161135693843696 5.9133025214409525 1 1 0
228 0 2 0 1.7260053680483063 9.841933392577992 13.06212440701525 0 0 0
468 0 2 0 9.832890545016202 4.745980896805613 13.250682957781741 0 1 0
1116 0 2 0 7.7950557707832395 13.959789007416887 9.812610566726878 0 -1 0
195 0 2 0 0.9894079201390286 8.83707474625245 4.308593532768702 1 0 0
6 0 2 0 1.0970151201792284 -5.191175420677751 15.655029332438023 0 0 0
1205 0 2 0 -1.5815564890806424 7.37735082505366 8.977910706735383 0 -1 0
905 0 2 0 -2.65395664906919 3.348852994547472 12.669500439240544 0 1 0
1073 0 2 0 -3.880080759905989 7.941804703033053 6.2556267957767515 0 0 0
191 0 2 0 0.8588560168666619 6.78225360333886 15.162077525372602 0 0 0
1375 0 1 0 -5.154128347841138 12.63598696236934 11.483372910358606 0 0 0
445 0 1 0 4.060216336496898 13.389294843237774 4.468199263618839 0 0 0
36 0 2 0 -2.068777550326968 2.0194049613719285 15.393302208191244 0 1 0
1078 0 1 0 6.118802955085335 11.996697209110526 0.8737490587220786 0 -1 0
145 0 1 0 11.437469122811487 8.08524729708092 -0.036938074702020485 0 -1 0
335 0 2 0 0.1458368280419018 17.26865008805762 -0.12073385222439681 0 0 0
273 0 2 0 0.4405195643471031 20.99374547702494 0.23034591912395097 0 0 0
343 0 1 0 4.267152376630389 6.39218576010922 9.365062876339907 1 0 0
170 0 2 0 5.597957858365069 13.488331717748746 3.7901324970675727 0 0 0
517 0 1 0 5.931826980551291 10.357706650072242 3.8715240771818396 1 0 0
58 0 1 0 5.116894189750931 13.765571024209757 -0.8466111519540968 0 0 0
704 0 2 0 -5.544391692007817 15.722197524994774 6.928998260926597 0 -1 0
418 0 1 0 8.082216902670043 10.637199238086577 6.265275410992068 0 1 0
1003 0 1 0 -0.04009217151714506 1.2199441963246684 12.085865555732685 1 0 0
124 0 1 0 11.213040119241114 5.062701297792161 9.11439428960602 1 1 0
840 0 2 0 8.744861813925032 11.90642276209844 12.735677590945155 0 0 0
1117 0 1 0 -0.6061213969796562 10.024480889191814 10.17527350829968 0 0 0
80 0 2 0 3.4693542132320143 4.745206932505398 2.279048389418236 1 0 0
1176 0 2 0 6.485443381943767 6.357120155593429 12.233135124030673 0 0 0
691 0 1 0 6.259231774671241 14.245608641672874 10.764092919508702 -1 0 0
237 0 2 0 10.515827349192149 1.9709761239314223 9.766018661098904 0 0 0
968 0 2 0 8.390984999918963 2.76886908345943 14.11176658410486 -1 0 0
114 0 2 0 1.9105880438720408 15.458856863987824 0.21351499909191451 0 -1 0
690 0 2 0 2.0438207180104593 -0.8888080851522098 9.421105398784489 1 1 0
1218 0 2 0 -4.707387779906445 13.853402372058712 10.506795328720257 0 0 0
969 0 2 0 7.843808725513292 4.193807232021595 14.393261369527693 -1 0 0
731 0 2 0 5.361740892285289 5.291183940406895 15.776566465122826 0 -1 0
1098 0 2 0 6.129025192835012 -1.2241107574771135 14.360321844320746 0 1 0
644 0 2 0 -4.257327108540784 7.282353876139708 9.156016702738967 2 1 0
796 0 1 0 2.4211250848380046 13.056657164703427 11.057424330367645 1 0 0
341 0 2 0 8.194063626814819 16.658777899408197 -0.8874851692424512 -1 -1 0
374 0 2 0 7.8475643704553875 8.591693833495954 10.760865038636469 0 0 0
1024 0 1 0 -3.54958413603753 10.220756057204953 -0.7132896011332839 0 0 0
1207 0 1 0 0.5075352670250172 17.003503142430315 6.94178486737644 0 -1 0
192 0 2 0 1.2110318080895874 7.961422048573224 14.292993030811692 0 0 0
232 0 1 0 -3.680840289871015 6.248430022849808 15.646072272709535 0 0 0
927 0 2 0 -7.83262166925751 17.10567146785123 9.58022716829023 0 0 0
193 0 1 0 0.9391957781119571 8.083799148863358 3.6542345857244793 1 0 0
100 0 1 0 2.126702824516946 10.647600287004835 4.405010262571438 1 0 0
397 0 1 0 2.585298856922547 12.811394092976798 1.9869579526643437 0 0 0
119 0 2 0 1.3825770487178817 7.16585983923053 7.5980503369518075 1 0 0
182 0 2 0 0.1803264180460018 0.7007194122302334 14.963359108214783 1 0 0
1152 0 2 0 4.748802715261486 -1.024864056774967 11.265456184067082 0 1 0
107 0 2 0 1.0598781434870272 3.9748778956433517 13.63585456178905 0 0 0
168 0 2 0 10.649457074482974 -1.5680473484998751 10.90136214743911 0 0 0
336 0 2 0 0.38889319799579386 18.700390418967903 0.3045972136246198 0 0 0
420 0 2 0 8.153279958897011 10.11836638981725 5.4399893916214355 0 1 0
257 0 2 0 7.3061592424899 5.090184721041439 5.4399432244809525 0 0 0
1270 0 1 0 9.88514036605697 -0.9124324399211793 3.583425278126633 0 1 0
550 0 1 0 2.100246944693737 -0.6255271350494436 12.672209587526188 1 1 0
724 0 1 0 -2.080137029966337 10.475456730438427 13.285500340887376 0 0 0
1092 0 2 0 13.132507582544056 -1.8609167716196366 4.769755597925055 0 1 0
421 0 1 0 7.666492980900073 1.2100521094837877 2.650584882507621 0 1 0
903 0 2 0 7.19167086465215 8.716234110811788 1.3322479408548338 0 0 0
2341 0 1 0 9.087977737412041 5.317567734400066 1.2705028736753556 0 0 1
1271 0 2 0 10.751288089128202 -1.049027413363611 3.921633701629106 0 1 0
117 0 2 0 -5.687547833052973 14.25256493416537 3.97781899396531 1 0 0
1236 0 2 0 -2.5559660843360152 7.799410820806933 12.05389838347826 0 -1 0
69 0 2 0 -2.8771612286335086 11.651017828085784 10.481872452773302 0 1 0
1154 0 2 0 -2.7985398361170057 14.01950996468915 14.09465260060887 0 -2 0
494 0 2 0 11.811135162834248 0.9019893623644049 1.697261547022272 0 0 0
362 0 2 0 5.738685184440419 0.19661426417334493 0.6457963081471885 0 1 0