LAMMPS (23 Jun 2022)
include procedure.lmp
echo both
include		in.partitions
variable        pid world 0
include		in.temp
variable	temperature equal 260
variable        tempDamp equal 0.100 # this is 0.1 ps
include		in.pressure
variable        pressure equal 3039.75
variable        pressureDamp equal 1.0 #this is 1ps

variable	barostat string	   tri
variable	direction string   z
variable	direction_x_bool equal 0
variable	direction_y_bool equal 0
variable	direction_z_bool equal 1

include		in.seed
variable        seed world 745823

units           metal
atom_style	full
box tilt large
read_restart 	restart.lmp.${pid}
read_restart 	restart.lmp.0
Reading restart file ...
  restart file = 23 Jun 2022, LAMMPS = 23 Jun 2022
  restoring atom style full from restart
  triclinic box = (0 0 -0.8639367) to (31.164 21.490526 32.548441) with tilt (-9.197534 0.81825277 -11.212577)
WARNING: Triclinic box skew is large (../domain.cpp:224)
  2 by 1 by 2 MPI processor grid
Summary of lammps deepmd module ...
  >>> Info of deepmd-kit:
  installed to:       /u/sigbjobo/software/DEEPMD_FROM_SOURCE/deepmd-kit/install
  source:             v2.1.3
  source branch:       master
  source commit:      5a32c49
  source commit at:   2022-07-01 09:52:58 +0800
  surpport model ver.:1.1 
  build float prec:   double
  build with tf inc:  /u/sigbjobo/software/DEEPMD_FROM_SOURCE/tensorflow/install/include;/u/sigbjobo/software/DEEPMD_FROM_SOURCE/tensorflow/install/include
  build with tf lib:  /u/sigbjobo/software/DEEPMD_FROM_SOURCE/tensorflow/install/lib/libtensorflow_cc.so;/u/sigbjobo/software/DEEPMD_FROM_SOURCE/tensorflow/install/lib/libtensorflow_framework.so
  set tf intra_op_parallelism_threads: 0
  set tf inter_op_parallelism_threads: 0
  >>> Info of lammps module:
  use deepmd-kit at:  /u/sigbjobo/software/DEEPMD_FROM_SOURCE/deepmd-kit/install
  source:             v2.1.3
  source branch:      master
  source commit:      5a32c49
  source commit at:   2022-07-01 09:52:58 +0800
  build float prec:   double
  build with tf inc:  /u/sigbjobo/software/DEEPMD_FROM_SOURCE/tensorflow/install/include;/u/sigbjobo/software/DEEPMD_FROM_SOURCE/tensorflow/install/include
  build with tf lib:  /u/sigbjobo/software/DEEPMD_FROM_SOURCE/tensorflow/install/lib/libtensorflow_cc.so;/u/sigbjobo/software/DEEPMD_FROM_SOURCE/tensorflow/install/lib/libtensorflow_framework.so
  restoring pair style deepmd from restart
  2592 atoms
Finding 1-2 1-3 1-4 neighbors ...
  special bond factors lj:    0        0        0       
  special bond factors coul:  0        0        0       
     0 = max # of 1-2 neighbors
     0 = max # of 1-3 neighbors
     0 = max # of 1-4 neighbors
     1 = max # of special neighbors
  special bonds CPU = 0.000 seconds
  read_restart CPU = 0.007 seconds
include 	in.setup
variable	out_freq equal 2000
variable	out_freq2 equal 2000

timestep        0.0005

neigh_modify    delay 7 every 1

include         in.deepmd
# This is deepMD model

# create groups ###
#group ox type 2
#group hy type 1

mass 2 15.999
mass 1 1.008

pair_style      deepmd ../graph.pb
pair_coeff      * *

bond_style      none
angle_style     none
dihedral_style  none
improper_style  none
neigh_modify exclude none


neighbor        2.0 bin
neigh_modify    every 50 delay 0 check no

thermo          ${out_freq}
thermo          2000
thermo_style 	custom step temp pe etotal epair emol press lx ly lz vol pxx pyy pzz pxy pxz pyz

restart 	${out_freq} restart.lmp.${pid} restart2.lmp.${pid}
restart 	2000 restart.lmp.${pid} restart2.lmp.${pid}
restart 	2000 restart.lmp.0 restart2.lmp.${pid}
restart 	2000 restart.lmp.0 restart2.lmp.0


timer           timeout 23:50:00 every 1000
New timer settings: style=normal  mode=nosync  timeout=23:50:00


# Set number of time steps
variable 	nsteps_wall		equal	 6000000
variable 	nsteps_enhanced_coex    equal	300000000

variable     nsteps_enhanced_coex_upto equal (${nsteps_wall}+${nsteps_enhanced_coex})
variable     nsteps_enhanced_coex_upto equal (6000000+${nsteps_enhanced_coex})
variable     nsteps_enhanced_coex_upto equal (6000000+300000000)


# Set temperature for first step
if "$(step) < 1  " then    "velocity 	all create ${temperature} ${seed} dist gaussian"


# Always run thermo and barostat


######################################
# Run simulation with wall potential #
######################################
if " $(step) < ${nsteps_wall} " then    "fix             3 all plumed plumedfile plumed.equil.dat outfile plumed.equil.out"   "fix             1 all nph ${direction} ${pressure} ${pressure} ${pressureDamp}"   "fix             2 all temp/csvr ${temperature} ${temperature} ${tempDamp} ${seed}"   "run             ${nsteps_wall} upto"
if " $(step) == ${nsteps_wall} " then    "unfix 3"   "unfix 1"   "unfix 2"


############################
# Run enhanced coesistence #
############################
if "$(step) == ${nsteps_wall}" then    "fix             3 all plumed plumedfile plumed.start.dat outfile plumed.out" else    "fix             3 all plumed plumedfile plumed.dat outfile plumed.out"
fix             3 all plumed plumedfile plumed.dat outfile plumed.out

if "$(step) < ${nsteps_enhanced_coex_upto} && $(step) >= ${nsteps_wall} " then    "include         in.dump"    "fix             1 all nph ${direction} ${pressure} ${pressure} ${pressureDamp}"   "fix             2 all temp/csvr ${temperature} ${temperature} ${tempDamp} ${seed}"   "run             ${nsteps_enhanced_coex_upto} upto"    "unfix 3"   "unfix 1"   "unfix 2"
include         in.dump
dump            myDump all atom ${out_freq2} dump.water.${pid}
dump            myDump all atom 2000 dump.water.${pid}
dump            myDump all atom 2000 dump.water.0
dump            myDump2 all dcd ${out_freq2} dump.${pid}.dcd
dump            myDump2 all dcd 2000 dump.${pid}.dcd
dump            myDump2 all dcd 2000 dump.0.dcd
dump_modify     myDump append yes
dump_modify     myDump2 append yes

fix             1 all nph ${direction} ${pressure} ${pressure} ${pressureDamp}
fix             1 all nph z ${pressure} ${pressure} ${pressureDamp}
fix             1 all nph z 3039.75 ${pressure} ${pressureDamp}
fix             1 all nph z 3039.75 3039.75 ${pressureDamp}
fix             1 all nph z 3039.75 3039.75 1
fix             2 all temp/csvr ${temperature} ${temperature} ${tempDamp} ${seed}
fix             2 all temp/csvr 260 ${temperature} ${tempDamp} ${seed}
fix             2 all temp/csvr 260 260 ${tempDamp} ${seed}
fix             2 all temp/csvr 260 260 0.1 ${seed}
fix             2 all temp/csvr 260 260 0.1 745823
run             ${nsteps_enhanced_coex_upto} upto
run             306000000 upto

CITE-CITE-CITE-CITE-CITE-CITE-CITE-CITE-CITE-CITE-CITE-CITE-CITE

Your simulation uses code contributions which should be cited:

- USER-DEEPMD package:

@article{Wang_ComputPhysCommun_2018_v228_p178,
  author = {Wang, Han and Zhang, Linfeng and Han, Jiequn and E, Weinan},
  doi = {10.1016/j.cpc.2018.03.016},
  url = {https://doi.org/10.1016/j.cpc.2018.03.016},
  year = 2018,
  month = {jul},
  publisher = {Elsevier {BV}},
  volume = 228,
  journal = {Comput. Phys. Commun.},
  title = {{DeePMD-kit: A deep learning package for many-body potential energy representation and molecular dynamics}},
  pages = {178--184}
}

CITE-CITE-CITE-CITE-CITE-CITE-CITE-CITE-CITE-CITE-CITE-CITE-CITE

Generated 0 of 1 mixed pair_coeff terms from geometric mixing rule
Neighbor list info ...
  update every 50 steps, delay 0 steps, check no
  max neighbors/atom: 2000, page size: 100000
  master list distance cutoff = 8
  ghost atom cutoff = 8
  binsize = 4, bins = 11 9 9
  1 neighbor lists, perpetual/occasional/extra = 1 0 0
  (1) pair deepmd, perpetual
      attributes: full, newton on
      pair build: full/bin
      stencil: full/bin/3d
      bin: standard
Per MPI rank memory allocation (min/avg/max) = 6.231 | 6.232 | 6.232 Mbytes
   Step          Temp          PotEng         TotEng         E_pair         E_mol          Press            Lx             Ly             Lz           Volume          Pxx            Pyy            Pzz            Pxy            Pxz            Pyz      
 166379000   258.34857     -410.53026     -324.00595     -410.53026      0              3708.9734      31.164         21.490526      33.412377      22377.297      3960.2968      4085.6966      3080.9268     -860.61517     -1368.5033      1770.7837    
 166380000   257.29273     -409.05136     -322.88067     -409.0191       0              2904.5456      31.164         21.490526      33.40136       22369.918      2388.7512      2893.4973      3431.3883     -814.93783     -16.32149      -664.58025    
 166382000   261.20825     -409.09796     -321.61591     -409.06019      0              3333.6498      31.164         21.490526      33.406273      22373.208      5732.0499      245.88719      4023.0124     -631.66994     -695.85475      233.58019    
 166384000   257.35172     -409.11641     -322.92596     -409.07377      0              2874.2155      31.164         21.490526      33.623463      22518.667      3416.3833      1665.4412      3540.8221      1138.7575     -1203.7887     -1889.3842    
 166386000   264.41777     -409.71005     -321.1531      -409.71414      0              3826.7427      31.164         21.490526      33.527865      22454.643      1872.6308      4389.4013      5218.1961     -258.87646      661.10306     -1570.4192    
 166388000   265.76197     -408.73367     -319.72652     -408.70198      0              3356.3429      31.164         21.490526      33.459994      22409.187      3302.8881      3184.9977      3581.143      -486.55672     -460.77295     -225.68395    
 166390000   256.92846     -406.95685     -320.90816     -406.93558      0              2681.4727      31.164         21.490526      33.424503      22385.418      1773.4625      1877.7965      4393.1592      397.26921     -707.74353      272.32586    
 166392000   263.10634     -407.31939     -319.20165     -407.27237      0              575.41113      31.164         21.490526      33.445044      22399.174      1107.399      -703.88003      1322.7144     -288.06291      520.07704      2289.8703    
 166394000   260.59004     -408.82289     -321.54789     -408.79818      0              1697.6212      31.164         21.490526      33.733017      22592.039      1873.3639      1575.7162      1643.7835     -195.96198      585.87807     -648.81929    
 166396000   261.62474     -410.12811     -322.50657     -410.06474      0              3162.496       31.164         21.490526      33.419278      22381.918      5234.4885      2216.4837      2036.5158      525.35805     -549.4841      -1926.5696    
 166398000   264.1765      -411.07708     -322.60093     -411.00614      0              2417.9724      31.164         21.490526      33.454623      22405.59       1406.5737      4312.4931      1534.8504     -876.35055     -493.94206     -904.07845    
 166400000   255.19565     -411.80495     -326.3366      -411.74628      0              3992.4447      31.164         21.490526      33.489434      22428.904      4134.4441      3579.7675      4263.1223     -507.54272     -41.834024      796.97565    
 166402000   256.82784     -412.77529     -326.7603      -412.73355      0              664.98165      31.164         21.490526      33.566138      22480.275      1185.5964      1269.4922     -460.14368     -364.2835      -2282.4663      1121.3462    
 166404000   267.3154      -408.94533     -319.41791     -408.89661      0              2543.1488      31.164         21.490526      33.539206      22462.237      4422.3747      1475.4456      1731.6261      1767.0118     -908.73249      767.18653    
 166406000   258.57063     -407.49474     -320.89606     -407.42792      0              3665.3216      31.164         21.490526      33.557306      22474.36       4277.267       3395.7327      3322.965       221.98265      1315.2906     -273.69122    
 166408000   254.35389     -408.74037     -323.55394     -408.71892      0              3541.1255      31.164         21.490526      33.458319      22408.065      3565.2576      3052.8515      4005.2675      488.47682      241.66262      82.697116    
 166410000   262.06385     -405.78731     -318.01871     -405.74958      0              3974.2633      31.164         21.490526      33.240322      22262.066      3090.6208      4768.7437      4063.4253      752.14461      1143.3946      488.67479    
 166412000   263.21809     -408.82558     -320.67041     -408.76714      0              3319.9795      31.164         21.490526      33.374327      22351.813      2545.4496      3198.4587      4216.0303      1299.7589      135.54299     -1157.1901    
 166414000   260.57882     -412.31893     -325.04768     -412.23537      0              1684.6278      31.164         21.490526      33.265357      22278.833      1130.9657      436.4297       3486.4879      227.93195      457.61553     -500.80075    
 166416000   259.51424     -411.77363     -324.85893     -411.69086      0              1674.9478      31.164         21.490526      33.344289      22331.696      3968.2994      761.99558      294.54834     -905.97888      898.24578     -860.82166    
 166418000   253.28433     -408.74276     -323.91453     -408.64738      0              3985.8153      31.164         21.490526      33.169047      22214.331      2289.2427      6246.3226      3421.8805      1719.4923     -1022.7717      2119.8769    
 166420000   254.00205     -411.23922     -326.17062     -411.16815      0              2335.6722      31.164         21.490526      32.991942      22095.718      586.37141      3267.4036      3153.2415     -34.242313      285.18758     -796.56482    
 166422000   259.14442     -408.58316     -321.79231     -408.50883      0              4734.9726      31.164         21.490526      33.126376      22185.753      2850.4136      6648.706       4705.7981      1164.8922     -463.67562     -23.755434    
 166424000   255.60598     -410.90655     -325.30078     -410.7918       0              5390.6195      31.164         21.490526      33.264226      22278.075      5079.0853      4319.2707      6773.5023      813.48366      1535.0124     -857.55204    
 166426000   267.5895      -411.30073     -321.68152     -411.23198      0              4699.5885      31.164         21.490526      33.154991      22204.917      4085.9914      3651.0027      6361.7716      269.53755      462.16992     -1999.3047    
 166428000   264.57327     -407.85409     -319.24505     -407.77723      0              2347.9769      31.164         21.490526      33.298833      22301.253      979.68604      3400.4552      2663.7894     -237.80797      310.98285      1347.3703    
 166430000   265.34761     -407.80457     -318.93619     -407.7351       0              2875.2976      31.164         21.490526      33.254872      22271.81       3786.493       2529.1551      2310.2446     -911.79539     -232.12542      1259.4362    
 166432000   258.7594      -409.82191     -323.16002     -409.77024      0              1163.7745      31.164         21.490526      33.332109      22323.538      1138.8891      336.57725      2015.857      -437.90508      684.03605      1177.4814    
 166434000   267.60797     -410.23409     -320.60869     -410.1298       0              1374.3553      31.164         21.490526      33.150662      22202.018      3049.8952     -574.96879      1648.1393     -1610.9874      256.43948      715.92825    
 166436000   250.55337     -409.82598     -325.91239     -409.70531      0              3183.532       31.164         21.490526      33.205801      22238.946      1903.4827      3602.1279      4044.9856      560.09155      656.70851      537.66981    
 166438000   260.49338     -410.17025     -322.92762     -410.0726       0              2679.7986      31.164         21.490526      33.343472      22331.149      3940.2566      1652.5996      2446.5395      978.62215      704.07815      1496.7671    
 166440000   261.37329     -412.7417      -325.20438     -412.64306      0              1359.0488      31.164         21.490526      33.17605       22219.021     -247.69453      1823.9957      2500.8451     -645.71395     -136.09871      241.7253     
 166442000   265.77125     -409.47079     -320.46053     -409.40185      0              2983.4376      31.164         21.490526      33.357512      22340.551      1926.0698      1888.1774      5136.0657     -570.01822      1024.1053      420.88196    
 166444000   249.33851     -411.17532     -327.66861     -411.07905      0              1076.2927      31.164         21.490526      33.351117      22336.269     -1717.2799      2558.4016      2387.7564      617.3911       529.19935     -87.327421    
 166446000   257.56105     -410.95422     -324.69367     -410.88414      0              2800.6982      31.164         21.490526      33.491601      22430.355      2380.2885      2131.9469      3889.8592      1034.156      -483.29201     -940.04794    
 166448000   258.75166     -413.2663      -326.60699     -413.14755      0              2456.8826      31.164         21.490526      33.458939      22408.481      2585.863       1001.6832      3783.1016     -1251.9009     -549.7555      -14.55383     
 166450000   255.13725     -412.65213     -327.20334     -412.54308      0              2619.464       31.164         21.490526      33.553206      22471.614      1756.851       3252.8817      2848.6593     -2220.2694      1604.2331     -927.20478    
 166452000   260.07449     -412.01468     -324.91234     -411.94864      0              4608.361       31.164         21.490526      33.472256      22417.399      5028.5642      3671.8921      5124.6266     -1147.8425      1703.2076      647.50275    
 166454000   261.4536      -410.78722     -323.223       -410.69145      0              3016.3255      31.164         21.490526      33.359211      22341.689      2212.3966      3991.5851      2844.9949      1684.9126     -525.66344      162.41607    
 166456000   254.21252     -413.15421     -328.01513     -413.05625      0              3490.3189      31.164         21.490526      33.441936      22397.093      4317.0921      3595.9827      2557.882       968.51389     -750.75778     -792.05167    
 166458000   254.08386     -413.16014     -328.06414     -413.0644       0              1197.6384      31.164         21.490526      33.510545      22443.043      1463.3137      1750.1565      379.44505      61.013255     -210.14164     -125.55064    
 166460000   256.97818     -412.39133     -326.32599     -412.29641      0              3639.2108      31.164         21.490526      33.585761      22493.417      2346.1811      3255.9758      5315.4754     -1619.5728      1073.4354      604.98738    
 166462000   260.27654     -409.70967     -322.53966     -409.64157      0              1065.5085      31.164         21.490526      33.701815      22571.142     -227.18308      1980.062       1443.6465     -619.17516      1089.2118     -1143.524     
 166464000   257.96196     -410.49761     -324.10279     -410.38582      0              1828.7769      31.164         21.490526      33.579408      22489.162      1566.9336      1843.865       2075.5321      81.739514     -706.54591      209.45876    
 166466000   262.5359      -412.92444     -324.99775     -412.82489      0              3156.2058      31.164         21.490526      33.69043       22563.517      2627.5869      2588.2581      4252.7722      587.33643     -131.64667      540.39337    
 166468000   252.92557     -413.74118     -329.03311     -413.64992      0              3181.1287      31.164         21.490526      33.631473      22524.031      3322.5903      4147.7047      2073.0912      1012.5761      84.351338     -613.41572    
 166470000   259.04409     -411.30617     -324.54893     -411.21042      0              1258.2718      31.164         21.490526      33.625551      22520.065      339.22502      1952.879       1482.7114      963.6792      -372.97744     -157.2526     
 166472000   258.19343     -409.50875     -323.0364      -409.45256      0              2195.7051      31.164         21.490526      33.614988      22512.991      1431.5326      2283.2301      2872.3526     -658.57928     -197.09652      234.77153    
 166474000   256.50161     -413.41803     -327.5123      -413.3192       0              3649.2811      31.164         21.490526      33.65242       22538.061      1905.9545      5234.4289      3807.4599      137.69066      920.03569      927.71442    
 166476000   251.75085     -409.82559     -325.51094     -409.74641      0              1242.1472      31.164         21.490526      33.783886      22626.107      872.99492      589.60098      2263.8457     -2030.2359      208.90637      1067.9863    
 166478000   257.55141     -411.09198     -324.83466     -411.00083      0              5182.718       31.164         21.490526      33.608117      22508.389      4373.6544      5321.4809      5853.0186      1608.9407     -518.97445      1548.5232    
 166480000   266.52015     -413.46481     -324.20374     -413.39651      0              3270.7498      31.164         21.490526      33.583812      22492.112      3877.7857      3050.9912      2883.4725      1171.2717     -118.39778      122.07552    
 166482000   257.72643     -411.66093     -325.34499     -411.55249      0              1938.517       31.164         21.490526      33.552475      22471.124      240.77984      2212.4212      3362.3499      1330.8194     -1799.0997      2511.081     
 166484000   254.21911     -409.44609     -324.3048      -409.348        0              3622.1167      31.164         21.490526      33.256544      22272.931      3140.3846      4428.5739      3297.3915     -1566.862       1314.3367     -440.45104    
 166486000   260.9116      -410.57588     -323.19319     -410.46208      0              3088.0596      31.164         21.490526      33.334231      22324.96       3366.4545      1600.7924      4296.9318      960.37889      442.9403       1462.3472    
 166488000   261.74848     -408.81        -321.14703     -408.6876       0              1855.8956      31.164         21.490526      33.519498      22449.039      508.15664      2403.2496      2656.2806     -2125.8573      272.71653      177.73189    
 166490000   264.58077     -411.62168     -323.01013     -411.51342      0              1528.6384      31.164         21.490526      33.348464      22334.492      1967.0441      2055.7592      563.11196      1001.1826      275.87797      65.997614    
 166492000   258.43777     -409.95035     -323.39617     -409.86147      0              3427.7278      31.164         21.490526      33.422193      22383.87       3264.1764      4679.5993      2339.4076     -1941.2417     -438.73864      508.2213     
 166494000   260.59888     -409.0277      -321.74973     -408.94648      0              3067.3452      31.164         21.490526      33.551752      22470.64       2404.4124      3873.4694      2924.1536      3.1278607     -194.59054     -929.54455    
 166496000   257.27241     -410.77069     -324.6068      -410.68593      0              2866.4627      31.164         21.490526      33.432304      22390.642      1057.9029      4185.1382      3356.3469      415.83046      1281.3356     -30.820618    
 166498000   260.33693     -408.01134     -320.82111     -407.94447      0              2498.4178      31.164         21.490526      33.697098      22567.983      2211.984       2733.5145      2549.755       1572.8018      1560.75        397.07733    
 166500000   255.9572      -409.35527     -323.63186     -409.29115      0              4012.317       31.164         21.490526      33.538706      22461.903      3304.1252      5141.1184      3591.7074      601.00773     -963.04076      298.82201    
 166502000   254.65006     -410.84912     -325.56349     -410.76644      0              3001.1061      31.164         21.490526      33.459232      22408.676      2678.6344      2897.3997      3427.2842     -912.48671      1776.2493     -824.55228    
 166504000   265.2547      -407.97217     -319.13491     -407.9532       0              3791.8144      31.164         21.490526      33.549985      22469.457      4617.3611      2637.2877      4120.7944      760.26927     -284.57059     -1086.6169    
 166506000   257.48532     -410.05708     -323.82189     -409.98871      0              5017.6791      31.164         21.490526      33.295707      22299.159      6100.0179      3173.3983      5779.6212      69.657023     -1818.5456      1556.6167    
 166508000   263.24939     -412.56955     -324.4039      -412.47516      0              4972.4896      31.164         21.490526      33.488943      22428.575      5294.6462      6622.463       3000.3597     -1239.7049     -350.93123     -872.36881    
 166510000   251.07315     -412.80933     -328.72166     -412.74541      0              3849.6576      31.164         21.490526      33.623901      22518.961      4311.0502      2713.7357      4524.1868     -1145.0194      514.26401      100.92315    
 166512000   267.01701     -412.31743     -322.88995     -412.24231      0              4017.7319      31.164         21.490526      33.423902      22385.015      3317.6336      3098.1365      5637.4257     -242.54379     -647.15052      846.5487     
 166514000   253.92615     -411.11412     -326.07094     -411.01484      0              2987.4805      31.164         21.490526      33.322441      22317.063      2881.2284      1770.649       4310.5641      504.38269     -179.30975      457.01073    
 166516000   256.15413     -409.98773     -324.19838     -409.90471      0              1367.7505      31.164         21.490526      33.62061       22516.756     -1652.0793      3473.3943      2281.9366     -1321.4504      606.63248      527.28309    
 166518000   249.22576     -413.57323     -330.10427     -413.46958      0              3516.69        31.164         21.490526      33.662637      22544.903      3672.3642      3250.4413      3627.2644     -778.721        119.13612     -1987.3205    
 166520000   266.13571     -414.14446     -325.01214     -414.02048      0              2151.436       31.164         21.490526      33.516133      22446.785      2855.0921      1173.3542      2425.8618     -230.08157      708.20963      948.1478     
 166522000   259.73795     -412.37489     -325.38526     -412.24417      0              2481.5651      31.164         21.490526      33.44881       22401.697      1270.3006      3219.0135      2955.3813      536.69734      224.19082      1779.5236    
 166524000   251.34569     -409.18834     -325.00939     -409.09843      0              2541.7244      31.164         21.490526      33.562761      22478.013      1054.2321      3186.5797      3384.3614     -996.77934      56.163295     -15.626251    
 166526000   256.61425     -412.37374     -326.43028     -412.29304      0              3612.2755      31.164         21.490526      33.600816      22503.5        4779.0435      3060.3395      2997.4436     -145.48507     -440.92455      1054.5138    
 166528000   262.30297     -409.8297      -321.98101     -409.72258      0              1569.7927      31.164         21.490526      33.501399      22436.917      2215.8268      455.4883       2038.0629     -757.78093      500.73525      585.27019    
 166530000   260.49757     -413.12765     -325.88361     -413.01664      0              2111.4497      31.164         21.490526      33.444486      22398.801      1139.2124      3600.2572      1594.8795     -325.74215     -60.025281     -584.72941    
 166532000   257.87429     -413.84212     -327.47666     -413.70866      0              3313.637       31.164         21.490526      33.315775      22312.599      2372.3982      3685.8913      3882.6215     -95.755764     -746.38122      25.287639    
 166534000   263.33928     -414.20621     -326.01045     -414.08591      0              3539.854       31.164         21.490526      33.467951      22414.516      3779.3661      4388.7786      2451.4172     -1473.6085      1737.8385      54.903816    
 166536000   258.49351     -414.53109     -327.95824     -414.40418      0              5980.8317      31.164         21.490526      33.420334      22382.625      5623.6538      7267.9597      5050.8816      2171.2256     -1336.7583      669.91289    
 166538000   261.05221     -412.00355     -324.57376     -411.89493      0              2397.3878      31.164         21.490526      33.48316       22424.702      1371.7304      1355.1246      4465.3085     -160.73484      488.82445     -933.61091    
 166540000   260.60105     -414.53305     -327.25436     -414.42818      0              4453.8741      31.164         21.490526      33.350852      22336.091      2562.4059      4716.6185      6082.5978      2007.6005      539.82435     -759.41687    
 166542000   256.26141     -413.01193     -327.18664     -412.91532      0              2671.6363      31.164         21.490526      33.378375      22354.524      3132.4054      4252.4947      630.00878      1671.935       6.1992179     -490.29347    
 166544000   266.603       -412.5589      -323.27008     -412.46918      0              3534.9004      31.164         21.490526      33.414023      22378.399      4334.6492      3725.5094      2544.5425     -1450.1302     -200.02925      786.30272    
 166546000   251.1137      -414.01379     -329.91253     -413.91418      0              4000.4217      31.164         21.490526      33.385085      22359.018      4449.6501      5367.4705      2184.1444     -336.55017     -91.966342     -430.73118    
 166548000   259.31756     -411.78325     -324.93442     -411.68866      0              3560.8435      31.164         21.490526      33.468738      22415.043      4167.1534      3830.1297      2685.2473     -1305.9795      392.0194      -592.86235    
 166550000   257.03056     -413.91689     -327.83401     -413.84157      0              1929.9314      31.164         21.490526      33.534462      22459.06       2222.1463      1942.4897      1625.1581     -2041.1448      1213.4856      143.8322     
 166552000   256.09259     -410.37172     -324.60298     -410.28508      0              3312.3527      31.164         21.490526      33.572634      22484.626      2833.9262      5309.7154      1793.4164      1200.5514      1031.4958      388.52786    
 166554000   254.79924     -411.82509     -326.4895      -411.72903      0              3736.6513      31.164         21.490526      33.726575      22587.724      2460.4462      4632.4331      4117.0746     -1879.7374      1830.1616     -430.58052    
 166556000   255.40263     -411.78713     -326.24946     -411.71022      0              1715.8383      31.164         21.490526      33.575027      22486.228      166.75448      2006.2415      2974.5189      367.44342      740.32614      92.609509    
 166558000   255.51369     -411.66594     -326.09107     -411.56774      0              3053.7292      31.164         21.490526      33.446594      22400.213      3238.3386      2583.012       3339.8371      626.05468      342.64156      335.44905    
 166560000   260.07326     -413.02804     -325.92611     -412.89697      0              3643.1711      31.164         21.490526      33.323595      22317.837      3050.6057      3850.4199      4028.4876      718.26475      1058.8849     -1602.0483    
 166562000   260.07614     -410.54257     -323.43968     -410.45341      0              2733.2837      31.164         21.490526      33.343406      22331.104      2014.4952      2901.7596      3283.5962      1358.2098      1211.9197     -1087.6249    
 166564000   253.52755     -410.86761     -325.95793     -410.79469      0              2439.2583      31.164         21.490526      33.48966       22429.055      2017.1043      1158.4898      4142.1809      317.23835      344.1709      -778.15464    
 166566000   261.38147     -412.91056     -325.3705      -412.80827      0              4531.4229      31.164         21.490526      33.239603      22261.584      3604.6177      5954.7811      4034.87        264.39234      105.83312     -976.48671    
 166568000   257.02417     -412.14495     -326.06421     -412.0485       0              3101.1013      31.164         21.490526      33.370948      22349.55       836.88551      4546.2275      3920.1909     -562.61459     -761.88709     -338.38382    
 166570000   259.40611     -408.90037     -322.02188     -408.81923      0              3774.4808      31.164         21.490526      33.578483      22488.542      4341.2855      3493.0673      3489.0897      405.77716     -471.80257     -1289.8583    
 166572000   258.27349     -409.35274     -322.85358     -409.26197      0              4162.0345      31.164         21.490526      33.615281      22513.187      2812.8646      6599.9139      3073.325       541.02348      233.24844     -1394.5782    
 166574000   255.86402     -408.91959     -323.2274      -408.83218      0             -308.66513      31.164         21.490526      33.830382      22657.247      1000.9649     -377.49979     -1549.4605      840.57247      193.3592      -63.929662    
 166576000   260.9704      -409.61256     -322.21017     -409.55101      0              2937.8205      31.164         21.490526      33.736492      22594.366      2073.048       2567.0032      4173.4104      641.52503     -795.83361      169.77768    
 166578000   262.86226     -409.93168     -321.89568     -409.86932      0              2319.5495      31.164         21.490526      33.586542      22493.94       877.96022      3206.1904      2874.4979     -624.63548      896.03619     -1032.0348    
 166580000   261.11415     -410.63479     -323.18426     -410.54923      0              3237.3961      31.164         21.490526      33.365122      22345.648      3533.1272      3279.3408      2899.7204      179.65221      286.42365     -306.94746    
 166582000   253.78777     -413.85531     -328.85847     -413.76776      0              3853.1045      31.164         21.490526      33.370924      22349.534      4871.483       2377.5649      4310.2656      957.12499     -1026.1869     -1703.0539    
 166584000   261.20451     -415.62427     -328.14347     -415.51835      0              2337.5509      31.164         21.490526      33.265769      22279.109      1235.7461      1050.4501      4726.4565      892.76627      638.67323      1395.3006    
 166586000   258.74894     -410.18564     -323.52724     -410.10896      0              1561.8797      31.164         21.490526      33.454119      22405.252      1364.8483      2128.0634      1192.7276     -920.31937      1597.1142     -390.11205    
 166588000   262.96551     -412.0292      -323.95863     -411.93697      0              4806.6574      31.164         21.490526      33.125322      22185.047      5062.3231      4719.0879      4638.5613     -394.11774     -1543.023      -178.1697     
 166590000   259.8598      -410.69873     -323.6683      -410.60533      0              4668.3307      31.164         21.490526      33.230127      22255.238      4254.8455      5985.0938      3765.0527     -515.61286     -2012.8271     -1925.2216    
 166592000   258.23925     -408.17768     -321.68999     -408.11196      0              4451.3782      31.164         21.490526      33.477802      22421.113      5478.4649      2808.5987      5067.0712      1252.9544     -475.2005       1074.8236    
 166594000   257.66625     -414.81187     -328.51608     -414.68421      0              1777.3976      31.164         21.490526      33.523004      22451.387      1713.0827      2550.5353      1068.5748      152.46435     -548.91328      119.9071     
 166596000   261.62323     -409.59885     -321.97782     -409.50728      0              1471.2757      31.164         21.490526      33.486324      22426.821      1594.4385      2260.8389      558.5497       1229.5991      1040.2212      1145.6849    
 166598000   258.65        -410.28456     -323.6593      -410.21886      0              3375.3124      31.164         21.490526      33.554863      22472.724      2688.8417      3175.9333      4261.1621      96.696203      1236.7277     -1094.776     
 166600000   259.54406     -411.22206     -324.29737     -411.12744      0              2915.9937      31.164         21.490526      33.640697      22530.209      3426.8215      2139.9526      3181.2069      783.79678      46.98673       626.47924    
 166602000   255.94477     -408.14551     -322.42627     -408.08893      0              1522.9128      31.164         21.490526      33.712132      22578.052      3213.4118      1620.6108     -265.28413     -841.65017     -1232.0317      462.45269    
 166604000   264.3617      -410.1861      -321.64792     -410.116        0              2738.2896      31.164         21.490526      33.445911      22399.755      1936.2539      4259.648       2018.9669      716.28897      1100.4213     -1097.5091    
 166606000   262.09122     -408.1725      -320.39473     -408.12135      0              1390.3129      31.164         21.490526      33.431371      22390.017      2107.9889      990.18901      1072.761      -601.72262      1830.3805      540.92433    
 166608000   265.36866     -409.16154     -320.28612     -409.10762      0              2541.2845      31.164         21.490526      33.361269      22343.068      3254.3806      3149.5607      1219.9122      782.4609       1464.5705     -1177.0642    
 166610000   259.98039     -407.08787     -320.01705     -407.04308      0              668.96942      31.164         21.490526      33.719062      22582.693     -11.875816      1639.1012      379.68287     -815.13005      2501.3261      1318.6852    
 166612000   260.22747     -408.95115     -321.79758     -408.89992      0              3670.7628      31.164         21.490526      33.724726      22586.486      4821.7251      3297.6783      2892.885      -959.97371      124.25809      294.87499    
 166614000   255.06118     -412.4248      -327.00149     -412.35281      0              2165.226       31.164         21.490526      33.398317      22367.88       2190.665       2595.6028      1709.4102      549.67423     -332.8462      -110.19806    
 166616000   256.10957     -410.82367     -325.04923     -410.77455      0              4849.9809      31.164         21.490526      33.472987      22417.889      3810.5122      5952.9428      4786.4878      182.17287      818.04657     -246.33691    
 166618000   263.01594     -414.65219     -326.56473     -414.60688      0              1592.1192      31.164         21.490526      33.693658      22565.679      2200.4447      1887.3621      688.5507      -302.7533       138.12682     -279.98977    
 166620000   262.08266     -410.93384     -323.15894     -410.85951      0              3488.6219      31.164         21.490526      33.327369      22320.364      3777.4571      4033.3342      2655.0746     -580.50363      506.70493     -252.85953    
 166622000   268.05318     -411.81547     -322.04097     -411.76081      0              2356.7378      31.164         21.490526      33.616495      22514          3623.4945      990.04643      2456.6724      1161.1769     -221.69738      1225.4072    
 166624000   269.82054     -410.16007     -319.79366     -410.10993      0              2811.0651      31.164         21.490526      33.450341      22402.722      2244.3387      4031.2829      2157.5736      529.64929      802.79547      1091.0862    
 166626000   259.94662     -409.01685     -321.95734     -408.99053      0              2234.8754      31.164         21.490526      33.556926      22474.105      3495.3256      1981.3592      1227.9413     -1563.7722      2269.7492      1090.3384    
 166628000   256.74726     -410.59601     -324.608       -410.54387      0              2087.0408      31.164         21.490526      33.436378      22393.37       2841.2477      3559.3498     -139.47524     -461.40479      470.90501     -1785.2247    
 166630000   268.10669     -409.33645     -319.54403     -409.2886       0              6210.0141      31.164         21.490526      33.319885      22315.352      4315.8789      6205.3222      8108.8413     -2.6179089     -1259.1252     -104.02551    
 166632000   261.53536     -411.67891     -324.0873      -411.61771      0              5077.3622      31.164         21.490526      33.166425      22212.575      5482.6865      4216.445       5532.955      -417.54749     -781.976       -950.54097    
 166634000   259.79837     -408.98414     -321.97428     -408.93589      0              3669.9474      31.164         21.490526      33.411065      22376.418      2370.334       4052.897       4586.6113      139.31286     -322.12261      841.08678    
 166636000   259.92623     -410.36153     -323.30885     -410.29817      0              5237.6532      31.164         21.490526      33.380247      22355.778      5213.2135      5434.5636      5065.1823      1810.7086     -574.86446     -232.14781    
 166638000   255.50364     -412.04724     -326.47575     -411.97817      0              3461.8277      31.164         21.490526      33.291365      22296.251      3973.7844      1627.7756      4783.923      -426.96198     -1419.9928     -740.41008    
 166640000   256.48322     -410.66969     -324.77011     -410.60992      0              2461.0455      31.164         21.490526      33.269231      22281.427      4014.9051      2008.4954      1359.7359      362.09668      981.83014      1029.8275    
 166642000   260.92427     -406.97615     -319.58921     -406.94         0              3459.6042      31.164         21.490526      33.192896      22230.303      1288.8091      4664.269       4425.7345      108.5726       1208.3607      179.58992    
 166644000   253.87079     -410.55186     -325.52722     -410.51635      0              4715.4857      31.164         21.490526      33.329825      22322.009      5078.715       4536.8702      4530.8721     -175.62796      534.72493      178.84158    
 166646000   263.65834     -410.27523     -321.97261     -410.21227      0              5081.2976      31.164         21.490526      33.106558      22172.48       6847.1383      4238.2171      4158.5375      1349.3956      1548.6251     -657.31319    
 166648000   250.59236     -409.2349      -325.30825     -409.19275      0              2430.4373      31.164         21.490526      33.159363      22207.845      2007.1901      2572.8205      2711.3013     -576.17765     -29.185439     -2433.3611    
 166650000   256.06547     -413.57405     -327.81438     -413.50754      0              4845.6555      31.164         21.490526      33.229093      22254.546      5133.9523      4161.1168      5241.8976     -32.498375      1404.8948      352.38165    
 166652000   259.70911     -408.50407     -321.5241      -408.4378       0              4005.6689      31.164         21.490526      33.326528      22319.801      2602.0154      5781.7767      3633.2146      525.3142       1098.5014      1261.7428    
 166654000   262.60214     -410.14099     -322.19211     -410.07522      0              2322.0067      31.164         21.490526      33.30565       22305.818      1114.1121      2015.3123      3836.5956      177.87783      60.820243     -799.57123    
 166656000   257.64924     -409.24776     -322.95768     -409.14359      0              2941.213       31.164         21.490526      33.214369      22244.684      2951.1784      4193.8899      1678.5709      823.20083     -858.16012     -424.01544    
 166658000   265.87823     -410.72196     -321.67588     -410.623        0              2692.5437      31.164         21.490526      33.27729       22286.825      2356.54        615.72089      5105.3703      682.47949     -1541.6753      1075.2282    
 166660000   262.54663     -411.84979     -323.9195      -411.78617      0              3953.7842      31.164         21.490526      33.260584      22275.636      1789.6345      5934.8524      4136.8658      708.3781       454.56574      116.14689    
 166662000   262.56443     -411.49911     -323.56285     -411.40556      0              2363.9367      31.164         21.490526      33.410461      22376.013      4252.8207      1296.7115      1542.2778     -324.41165     -1118.5659      493.90578    
 166664000   259.98609     -411.487       -324.41427     -411.40591      0              3444.7704      31.164         21.490526      33.356834      22340.097      4527.6139      1865.9984      3940.699       812.92648      534.50667     -321.41711    
 166666000   254.34373     -412.27664     -327.0936      -412.20935      0              1641.4783      31.164         21.490526      33.527502      22454.399      2098.9042      2223.9648      601.56588     -2116.559       906.05852     -688.78445    
 166668000   257.58256     -408.8768      -322.60904     -408.80294      0              887.09178      31.164         21.490526      33.540259      22462.943      879.75258      2808.2112     -1026.6884      212.05533      13.891912      1000.6175    
 166670000   261.10417     -409.19349     -321.7463      -409.14355      0              1610.9049      31.164         21.490526      33.404075      22371.736      3043.551      -510.23985      2299.4037     -990.48446      738.37955     -985.74063    
 166672000   257.74341     -413.11506     -326.79344     -413.02614      0              3625.9384      31.164         21.490526      33.294342      22298.245      1266.5613      4648.3185      4962.9354      974.37235      1721.6009      361.43115    
 166674000   261.28072     -408.23041     -320.72409     -408.18507      0              3330.4902      31.164         21.490526      33.354808      22338.741      1559.2003      3594.8757      4837.3947      606.90067      110.63938      481.85797    
 166676000   259.70248     -413.08203     -326.10428     -413.011        0              2922.25        31.164         21.490526      33.312888      22310.665      3292.2018      1791.3968      3683.1516     -106.4359      -444.98872     -580.20289    
 166678000   252.93622     -410.90766     -326.19603     -410.85942      0              3301.7099      31.164         21.490526      33.27585       22285.86       3332.1622      2066.7124      4506.255      -356.172       -535.52549     -2372.5927    
 166680000   259.90589     -410.71294     -323.66707     -410.65734      0              4385.8412      31.164         21.490526      33.255569      22272.277      3926.3655      6219.1872      3011.9708      475.51005     -285.64731     -89.420371    
 166682000   255.12005     -410.91526     -325.47223     -410.82071      0              3839.9777      31.164         21.490526      33.241888      22263.115      6395.4828      3295.4208      1829.0297     -781.51883     -289.26379      259.84514    
 166684000   261.61086     -411.51758     -323.90069     -411.43818      0              3519.3453      31.164         21.490526      33.336745      22326.643      2583.2958      3954.8014      4019.9388      1750.4807      605.59777     -926.25186    
 166686000   262.17882     -409.48619     -321.67909     -409.45215      0              1717.5902      31.164         21.490526      33.297523      22300.375      3410.1203     -511.14049      2253.7908     -1410.9386     -1089.2785     -505.78107    
 166688000   258.98256     -409.80913     -323.0725      -409.70709      0              2604.3374      31.164         21.490526      33.407894      22374.294      1797.4098      3530.5833      2485.019       257.33304      470.70434      549.2303     
 166690000   264.28488     -410.8883      -322.37585     -410.83025      0              2068.1182      31.164         21.490526      33.425324      22385.967      2844.0092      1345.5079      2014.8375     -682.35674      982.29155     -346.24559    
 166692000   258.72161     -412.25757     -325.60833     -412.18889      0              1407.5796      31.164         21.490526      33.533595      22458.48       1812.7482      1094.7654      1315.2251      1412.3584     -136.74848     -911.33935    
 166694000   264.7333      -413.24899     -324.58636     -413.17809      0              3597.8088      31.164         21.490526      33.405833      22372.914      2706.6696      3112.6702      4974.0867     -848.29555     -834.97558     -2071.6072    
 166696000   259.60819     -410.64142     -323.69525     -410.57843      0              3002.6303      31.164         21.490526      33.365548      22345.934      2880.3606      3070.0764      3057.4538     -133.84588      710.63683      920.8185     
 166698000   266.3821      -409.56246     -320.34762     -409.50813      0              3429.3012      31.164         21.490526      33.571495      22483.863      2968.4979      3291.7749      4027.6307      1658.6523      1860.843      -943.40298    
 166700000   258.28874     -412.13917     -325.6349      -412.08424      0              3671.62        31.164         21.490526      33.611352      22510.556      3128.1288      4858.7769      3027.9542     -1512.7583     -306.06451      277.8578     
 166702000   258.57675     -410.38776     -323.78703     -410.34272      0              1307.8199      31.164         21.490526      33.745689      22600.526      1565.187       1691.6858      666.58701      1032.8737      509.17454     -945.18989    
 166704000   269.10574     -413.41219     -323.28517     -413.32721      0              2424.1541      31.164         21.490526      33.737096      22594.771      4549.3826      1147.6955      1575.3841     -73.357368      1839.5209     -896.56407    
 166706000   260.34039     -412.83973     -325.64834     -412.7687       0              2153.5741      31.164         21.490526      33.644116      22532.499      4164.1517      544.76077      1751.8099      65.428478      1333.5604      1304.1288    
 166708000   259.89209     -412.9994      -325.95815     -412.93479      0              1626.4864      31.164         21.490526      33.663541      22545.509      1122.7899      2985.4463      771.22297      1093.1304      768.35389      43.635872    
 166710000   257.93082     -413.11608     -326.73169     -413.0443       0              1738.4474      31.164         21.490526      33.627866      22521.616      1860.966       2998.527       355.84916     -870.76994     -979.71341      423.252      
 166712000   262.76181     -411.62574     -323.62338     -411.55109      0              3882.3793      31.164         21.490526      33.735868      22593.948      3030.041       4088.7399      4528.3569      164.71454      952.74799      1164.5035    
 166714000   250.72698     -412.86075     -328.88902     -412.78873      0              3322.7728      31.164         21.490526      33.546873      22467.373      3984.4977      2228.8339      3754.9868     -2112.2038      899.86149     -288.89147    
 166716000   262.02897     -411.14532     -323.38841     -411.0842       0              1139.5184      31.164         21.490526      33.637811      22528.277      1208.3542      2974.217      -764.01606      404.62766     -305.78743     -1187.534     
 166718000   261.656       -410.59606     -322.96406     -410.52499      0              2768.7033      31.164         21.490526      33.69318       22565.359      2482.1452      3168.9179      2655.0469     -27.160087      49.635775      1593.6844    
 166720000   261.11125     -411.25759     -323.80803     -411.1954       0              3217.6659      31.164         21.490526      33.452352      22404.069      1850.3155      2851.6565      4951.0256     -1339.6478      339.3614       1453.9888    
 166722000   258.33786     -410.17332     -323.6526      -410.12593      0             -298.9833       31.164         21.490526      33.534954      22459.39      -1080.2219      27.029841      156.24213      986.8767      -1370.6642     -286.27119    
 166724000   256.4429      -408.39433     -322.50826     -408.33476      0              3832.8232      31.164         21.490526      33.626458      22520.673      5194.5113      2589.4822      3714.4761      1369.1494     -102.17235     -1091.8022    
 166726000   259.37133     -411.80345     -324.93661     -411.72236      0              2849.3388      31.164         21.490526      33.476721      22420.39       2661.5547      1910.5611      3975.9004      669.67148      507.61024      46.615833    
 166728000   262.98418     -414.30973     -326.2329      -414.23887      0              2978.861       31.164         21.490526      33.428584      22388.151      4117.2556      1651.8903      3167.437      -8.3529254     -1699.0297      34.482284    
 166730000   261.20069     -411.08996     -323.61044     -411.04879      0              1930.259       31.164         21.490526      33.543751      22465.281      2682.932       552.93472      2554.9102      452.81342     -1459.8107     -273.55349    
 166732000   253.95831     -413.10531     -328.05136     -413.03785      0              3098.8817      31.164         21.490526      33.453699      22404.971      2029.0764      2833.1715      4434.3971     -145.68877      306.96612     -1574.7343    
 166734000   257.7345      -408.81711     -322.49846     -408.77334      0              2206.0652      31.164         21.490526      33.601125      22503.706      471.52049      5564.5641      582.11104      669.39773     -83.25578      -316.1491     
 166736000   259.08235     -410.21668     -323.44662     -410.12535      0              1713.3274      31.164         21.490526      33.470539      22416.249      2708.0498      1035.5741      1396.3584      442.79689     -967.00601     -469.63467    
 166738000   258.91454     -409.8634      -323.14955     -409.79691      0              1555.5599      31.164         21.490526      33.616639      22514.097      1657.3074      1275.3542      1734.0182     -1160.4535     -200.31527      951.69372    
 166740000   256.77333     -409.25823     -323.2615      -409.22526      0              1787.7673      31.164         21.490526      33.559468      22475.808      2139.8332      1954.6034      1268.8652      334.50806     -236.35589     -250.51145    
 166742000   260.36103     -410.17368     -322.97538     -410.10658      0              3095.1052      31.164         21.490526      33.623515      22518.702      2971.4747      2991.6969      3322.1439      16.564071     -866.55162      1135.5286    
 166744000   262.24026     -408.64708     -320.8194      -408.58014      0              1488.4353      31.164         21.490526      33.51676       22447.205      2268.7534      1342.9622      853.59028      466.51788     -37.729533     -768.00928    
 166746000   260.60437     -412.51957     -325.23977     -412.45077      0              2603.9415      31.164         21.490526      33.468283      22414.739      2946.0458      632.57168      4233.2071     -132.10762     -614.94835     -242.05888    
 166748000   261.99406     -411.43155     -323.68632     -411.38862      0              1927.8117      31.164         21.490526      33.665968      22547.134      1125.3482      4057.7768      600.31012      149.64889      80.272589     -958.75919    
 166750000   256.70599     -413.5716      -327.59742     -413.51088      0              4401.9841      31.164         21.490526      33.555595      22473.214      4507.2445      4938.9339      3759.774      -1305.5748      255.16836     -408.91587    
 166752000   252.48855     -413.59689     -329.03518     -413.52265      0              2531.6967      31.164         21.490526      33.268708      22281.077      1992.9831      3680.5994      1921.5077      798.85852      463.57037     -1264.4354    
 166754000   262.72463     -411.49607     -323.50617     -411.44608      0              2839.0969      31.164         21.490526      33.505921      22439.945      3216.3722      1880.0629      3420.8555      1067.1553      1420.1855      140.51323    
 166756000   258.99363     -413.68449     -326.94415     -413.61869      0             -1036.2362      31.164         21.490526      33.707776      22575.134     -1108.0279      221.3139      -2221.9946     -1743.4182      19.638433      701.05141    
 166758000   261.12545     -410.26071     -322.80639     -410.19858      0              4790.1625      31.164         21.490526      33.422648      22384.175      5076.4511      4128.222       5165.8143     -1748.2631     -1077.7648      349.56332    
 166760000   258.56492     -410.0552      -323.45843     -409.98344      0              2121.1286      31.164         21.490526      33.370065      22348.958      1693.1484      3312.8974      1357.3401     -1769.0831      1122.5125     -398.67783    
 166762000   261.2812      -408.25781     -320.75133     -408.191        0              1513.7539      31.164         21.490526      33.474684      22419.025      3202.5168      1104.0701      234.67465     -731.47324     -559.38661      580.92409    
 166764000   255.39344     -412.63653     -327.10194     -412.5824       0              4350.6665      31.164         21.490526      33.322541      22317.131      5363.469       1888.1625      5800.368       256.02457      363.21226      1031.7384    
 166766000   265.04317     -412.58679     -323.82038     -412.51521      0              3142.8557      31.164         21.490526      33.326259      22319.62       3331.5236      3355.0471      2741.9964      1725.1972     -1025.0042      1182.902     
 166768000   253.7412      -412.43249     -327.45126     -412.36894      0              2556.1862      31.164         21.490526      33.355033      22338.891      3317.5682      1420.7151      2930.2753     -324.58909     -370.02589      1137.1371    
 166770000   259.96462     -411.74475     -324.67921     -411.67637      0              5078.2073      31.164         21.490526      33.488413      22428.22       5962.9525      5852.0239      3419.6456     -842.59231      224.27361      199.28302    
 166772000   257.47674     -408.9388      -322.70648     -408.91769      0              1778.6188      31.164         21.490526      33.429695      22388.895      2089.4507      1804.284       1442.1216     -672.40009      1758.5004      712.06594    
 166774000   258.78549     -410.73911     -324.06847     -410.68202      0              2953.8507      31.164         21.490526      33.370463      22349.225      2862.0278      3769.5373      2229.987      -368.56778     -1550.5083     -310.77954    
 166776000   253.4234      -409.45267     -324.57787     -409.43212      0              1852.5021      31.164         21.490526      33.597731      22501.434      482.70495      2848.6885      2226.1129     -214.13152      263.02156     -750.34713    
 166778000   254.55461     -413.72396     -328.4703      -413.68905      0              1828.7078      31.164         21.490526      33.635803      22526.932      356.04816      2411.5345      2718.5408     -274.30978     -125.56253      832.60613    
 166780000   260.49868     -410.46297     -323.21857     -410.41721      0              2662.4122      31.164         21.490526      33.565436      22479.804      1786.0764      2545.5394      3655.6207      923.62151     -809.4483       1775.699     
 166782000   259.69489     -410.7368      -323.7616      -410.68331      0              4365.1615      31.164         21.490526      33.448123      22401.237      6324.54        4345.8706      2425.0741     -94.570221     -1117.7452     -771.68152    
 166784000   260.91645     -411.67331     -324.28899     -411.60996      0              4399.7023      31.164         21.490526      33.288865      22294.576      5193.5102      4000.2782      4005.3184      1302.2226     -1879.9459     -480.85797    
 166786000   257.6817      -410.44031     -324.13935     -410.4127       0              2040.2409      31.164         21.490526      33.56882       22482.071      1769.4425      1361.9782      2989.302      -1195.0387      518.5033       477.5178     
 166788000   263.87195     -408.9398      -320.56564     -408.87626      0              1737.093       31.164         21.490526      33.304004      22304.716      1719.9765      1194.9395      2296.363       1072.8351      548.40064     -292.31782    
 166790000   265.42904     -408.36567     -319.47002     -408.30951      0              3127.4655      31.164         21.490526      33.18973       22228.183      4335.1943      1183.0659      3864.1363     -1083.2779     -3075.4439      995.92055    
 166792000   254.0698      -411.7536      -326.66231     -411.68999      0              1496.1739      31.164         21.490526      33.512679      22444.471      2366.8297      1304.0132      817.67895     -468.88191      2021.9645     -1187.1454    
 166794000   251.32574     -410.34409     -326.17182     -410.27444      0              3888.3095      31.164         21.490526      33.30132       22302.918      2287.7674      3732.7372      5644.4238     -329.86855     -1237.3156      483.54382    
 166796000   258.89603     -410.4728      -323.76514     -410.41958      0              2544.6179      31.164         21.490526      33.381054      22356.319      1747.2796      3546.0597      2340.5145      1329.3643      19.477419      594.85769    
 166798000   262.68916     -409.02235     -321.04432     -408.9717       0              4146.6978      31.164         21.490526      33.414182      22378.505      4900.5526      3060.6151      4478.9256      1198.5437     -773.33277      50.3201      
 166800000   260.33424     -409.8707      -322.68137     -409.84503      0              2006.9095      31.164         21.490526      33.729062      22589.39       3871.4086      1222.1587      927.16135     -237.06106     -456.88853     -963.94608    
 166802000   259.89661     -408.98854     -321.94578     -408.93321      0              1287.2985      31.164         21.490526      33.590421      22496.538      1078.2415      1799.6362      984.01768      399.99746      1762.1863     -1504.9048    
 166804000   257.34989     -408.67327     -322.48344     -408.64274      0              3124.4143      31.164         21.490526      33.519831      22449.262      2453.338       4104.9411      2814.9638      1124.4902     -6.0194788      118.64985    
 166806000   254.53594     -410.84447     -325.59707     -410.7912       0              2076.045       31.164         21.490526      33.531339      22456.969      496.72811      1488.948       4242.4589      747.53978      762.88707     -424.73637    
 166808000   255.9789      -409.46416     -323.73349     -409.42151      0              3903.5337      31.164         21.490526      33.478015      22421.256      3046.7013      5520.2062      3143.6937      1188.2102     -2180.1967      608.53484    
 166810000   257.53        -410.4537      -324.20355     -410.37759      0              1736.4678      31.164         21.490526      33.442844      22397.701      843.62637      963.09011      3402.687      -179.62301      114.17505      2327.432     
 166812000   260.91197     -411.14458     -323.76176     -411.07904      0              4650.0352      31.164         21.490526      33.46347       22411.515      4153.5761      3992.6124      5803.9171      1349.2605     -847.83819      1761.1983    
 166814000   257.81261     -413.49017     -327.14536     -413.42967      0              1889.9799      31.164         21.490526      33.560408      22476.438      2115.8985      1719.2525      1834.7887     -510.41567      600.37765      68.507116    
 166816000   258.57901     -413.5605      -326.95902     -413.49507      0              1648.0502      31.164         21.490526      33.609499      22509.315      1359.8993      1696.1076      1888.1436      844.92163     -1091.2714      372.03157    
 166818000   262.31324     -409.41645     -321.56432     -409.37214      0              3552.3804      31.164         21.490526      33.491743      22430.45       6744.47        1357.5269      2555.1443     -132.55778      2550.6867      1079.5538    
 166820000   259.49917     -415.38835     -328.47869     -415.33299      0              2221.1989      31.164         21.490526      33.396415      22366.606      2982.802       2313.2826      1367.5121      1751.4129     -766.28629     -321.47704    
 166822000   261.70622     -411.47555     -323.82672     -411.41913      0              4858.303       31.164         21.490526      33.489971      22429.263      5373.3962      5155.833       4045.6797      928.56529      665.08549      136.39235    
 166824000   254.0735      -410.97957     -325.88704     -410.90742      0              3033.0026      31.164         21.490526      33.278133      22287.389      3640.2387      1566.4329      3892.3361     -62.119188      875.27874     -183.86277    
 166826000   260.96283     -408.63405     -321.2342      -408.55419      0              4593.8628      31.164         21.490526      33.442152      22397.238      5449.1196      5003.9894      3328.4795     -176.82347     -235.29791      1593.2429    
 166828000   254.09478     -410.57775     -325.47809     -410.51384      0              2626.6917      31.164         21.490526      33.284823      22291.87       2056.476       3325.6322      2497.967      -350.37416     -418.92941     -452.15584    
 166830000   253.96138     -412.46859     -327.41361     -412.40594      0              2603.6752      31.164         21.490526      33.361542      22343.251      2569.8256      2287.078       2954.1219      745.61286     -455.14306      1845.289     
 166832000   264.46668     -413.16424     -324.5909      -413.10078      0              2611.6339      31.164         21.490526      33.465425      22412.824      3575.2129      1018.9197      3240.7691      583.36031     -590.59299     -1936.0001    
 166834000   264.07951     -408.96174     -320.51807     -408.93833      0              3302.5768      31.164         21.490526      33.571102      22483.599      4571.4094      3239.8813      2096.4396      234.6849      -331.23771      1055.6944    
 166836000   254.84885     -411.00224     -325.65004     -410.95125      0              3569.5857      31.164         21.490526      33.473836      22418.457      4337.3164      5014.8611      1356.5797     -815.8218       212.775       -1190.7718    
 166838000   258.01745     -411.56295     -325.14954     -411.51037      0              2553.0441      31.164         21.490526      33.646404      22534.032      2363.116       2229.805       3066.2113      954.25015     -2480.1477     -528.21625    
 166840000   256.67397     -408.65503     -322.69158     -408.64523      0              3555.8272      31.164         21.490526      33.74152       22597.734      5478.5735      2370.6537      2818.2542      1182.3056      137.19933      729.56212    
 166842000   258.57226     -408.41873     -321.81951     -408.39065      0              1615.45        31.164         21.490526      33.788785      22629.389      2335.0673      2674.8809     -163.59812      1621.7318     -24.257424     -903.87226    
 166844000   259.83398     -410.20712     -323.18534     -410.15489      0              3413.9169      31.164         21.490526      33.592508      22497.936      4159.9581      3817.5277      2264.2649      152.48382     -422.06153     -1375.1967    
 166846000   263.80686     -407.7558      -319.40344     -407.69065      0              807.77463      31.164         21.490526      33.665014      22546.495      1443.146      -896.021        1876.1989      823.77627      758.88117     -445.47881    
 166848000   258.92087     -408.62521     -321.90924     -408.55945      0              2357.9167      31.164         21.490526      33.682078      22557.923      2157.4369      2728.5426      2187.7707      688.20333     -1273.6768      1105.7552    
 166850000   257.68739     -407.38178     -321.07891     -407.31461      0              2457.3139      31.164         21.490526      33.417263      22380.569      3171.0127      1523.6196      2677.3094     -843.21375      240.549       -949.31723    
 166852000   257.68128     -409.75928     -323.45846     -409.70162      0              3226.6152      31.164         21.490526      33.393475      22364.637      2060.547       4907.2882      2712.0105     -1585.2276      715.53264     -1533.6463    
 166854000   261.70282     -410.88824     -323.24056     -410.83335      0              2923.0532      31.164         21.490526      33.127836      22186.73       2398.5155      4027.8996      2342.7445      496.14858     -2444.2124     -1230.6378    
 166856000   260.70205     -412.22442     -324.9119      -412.14583      0              2627.6454      31.164         21.490526      33.165836      22212.18       2780.6101      1843.7816      3258.5445      810.80056      576.6062       341.87304    
 166858000   263.07446     -414.78084     -326.67377     -414.71443      0              5103.1865      31.164         21.490526      33.210965      22242.405      5382.8133      3734.0039      6192.7424     -645.98563      38.45309       1204.8232    
 166860000   252.29187     -412.75778     -328.26194     -412.69437      0              4603.3369      31.164         21.490526      33.418467      22381.375      5332.9326      3544.8166      4932.2615      267.19703      725.21556      1359.1737    
 166862000   257.13112     -412.27687     -326.16031     -412.20796      0              2107.3062      31.164         21.490526      33.322942      22317.399      3729.0757      1309.3524      1283.4906      300.88298     -514.53955     -1236.9582    
 166864000   265.58454     -410.72037     -321.77265     -410.61356      0              6431.1229      31.164         21.490526      33.354951      22338.837      4991.046       6133.0162      8169.3066      1475.9479     -838.29181      278.10991    
 166866000   255.93415     -411.68822     -325.97254     -411.60097      0              3636.956       31.164         21.490526      33.310133      22308.821      4071.1574      5029.0902      1810.6202      275.92108     -102.32059      259.59386    
 166868000   263.11104     -411.83813     -323.71881     -411.75817      0              1731.5228      31.164         21.490526      33.301341      22302.932      2879.6547     -412.51636      2727.43       -74.231263     -1239.2551      1362.5678    
 166870000   262.53077     -408.74342     -320.81844     -408.68921      0              4006.009       31.164         21.490526      33.360583      22342.608      5821.9508      3510.4578      2685.6184     -647.53303     -32.870929      1088.6622    
 166872000   258.14866     -412.90427     -326.44692     -412.79871      0              3777.3268      31.164         21.490526      33.348249      22334.348      3662.632       5007.5659      2661.7826      696.34061     -534.79168     -880.27622    
 166874000   262.34375     -412.03502     -324.17268     -411.94302      0              4560.2728      31.164         21.490526      33.407685      22374.154      4814.37        4847.9537      4018.4947     -1674.8587      714.37916     -1239.5219    
 166876000   254.17092     -413.07335     -327.94819     -413.00006      0              2743.5934      31.164         21.490526      33.56727       22481.033      2477.801       2149.0608      3603.9185      1769.0262      1137.7916      436.19503    
 166878000   258.76073     -409.04696     -322.38461     -408.96322      0              3581.157       31.164         21.490526      33.603672      22505.413      2867.8621      3068.515       4807.094       212.82298     -24.699149     -630.25803    
 166880000   268.82588     -411.76831     -321.73502     -411.69046      0              4317.8858      31.164         21.490526      33.648959      22535.742      4174.8714      4187.501       4591.2851      715.57043     -744.63093     -605.9767     
 166882000   256.03489     -410.99476     -325.24533     -410.91617      0              1575.6546      31.164         21.490526      33.652915      22538.392      537.27302      1558.5536      2631.1373      342.25227      107.73776     -687.55945    
 166884000   258.42744     -411.08936     -324.53864     -411.03041      0              2705.7857      31.164         21.490526      33.68081       22557.074      2714.2184      2750.7759      2652.3627     -492.25281      212.23786     -2267.2083    
 166886000   259.34717     -412.59294     -325.73419     -412.53488      0              2520.3895      31.164         21.490526      33.778601      22622.568      3223.6174      1854.701       2482.8502     -415.29878     -1697.708       778.22393    
 166888000   264.81939     -409.37063     -320.67917     -409.31959      0              3912.9946      31.164         21.490526      33.611194      22510.45       5685.0955      1133.4312      4920.4571      1631.4267     -1443.5407     -485.12344    
 166890000   257.41807     -409.70139     -323.48872     -409.66799      0             -334.29888      31.164         21.490526      33.55095       22470.103     -61.401965      562.47674     -1503.9714      967.34636     -838.2201       335.8894     
 166892000   254.42749     -406.84065     -321.62956     -406.81206      0              2312.2789      31.164         21.490526      33.422863      22384.319      1429.9399      4063.4922      1443.4047     -876.87559      375.46681      791.49748    
 166894000   251.16418     -408.88934     -324.77119     -408.84233      0              4010.6935      31.164         21.490526      33.452301      22404.035      3461.4144      5271.3672      3299.2988      713.90741      741.91878     -844.32907    
 166896000   266.60601     -410.99012     -321.70029     -410.94409      0              2370.2429      31.164         21.490526      33.597129      22501.03       791.31246      5310.8632      1008.553       2148.3282      176.60704      157.54951    
 166898000   260.09006     -410.90943     -323.80188     -410.87997      0              2301.7523      31.164         21.490526      33.558849      22475.393      2848.0795      691.44193      3365.7355      88.78948      -316.20738      1750.1161    
 166900000   259.56588     -410.63862     -323.70662     -410.57848      0              2560.7441      31.164         21.490526      33.821963      22651.609      1878.1496      3503.7989      2300.2837     -1316.4259      232.74651     -81.537564    
 166902000   262.3762      -410.38574     -322.51253     -410.33255      0              3632.9521      31.164         21.490526      33.749186      22602.868      2888.8549      3398.4942      4611.5073      1988.6399      307.06677      2379.0384    
 166904000   252.65811     -410.02003     -325.40153     -409.95576      0              2549.234       31.164         21.490526      33.651202      22537.245      2790.9757      2782.3216      2074.4046     -973.76036     -490.59613      441.99183    
 166906000   270.04876     -413.8582      -323.41535     -413.7894       0              4627.6839      31.164         21.490526      33.456018      22406.524      6060.6211      3890.2174      3932.2134     -1373.0486     -1549.4575     -316.31486    
 166908000   259.24316     -410.85679     -324.03287     -410.79141      0              2350.3012      31.164         21.490526      33.601559      22503.997      2652.6297      2076.1507      2322.1232     -972.90285     -576.66353      1159.7126    
 166910000   266.20464     -412.45235     -323.29695     -412.36349      0              3197.5673      31.164         21.490526      33.654979      22539.775      2776.1254      2904.1783      3912.3982     -273.91976     -665.6936       188.07545    
 166912000   251.97985     -412.80943     -328.41809     -412.71992      0              3886.8666      31.164         21.490526      33.225552      22252.174      3925.2602      4057.9889      3677.3505     -946.20386      10.918965      849.62624    
 166914000   263.82579     -413.5392      -325.18051     -413.45048      0              2658.3142      31.164         21.490526      33.299932      22301.988      4853.0506     -1571.7975      4693.6895     -58.502241      812.91159      150.81345    
 166916000   265.4372      -410.13871     -321.24033     -410.07926      0              3219.0818      31.164         21.490526      33.313556      22311.113      3629.5969      1046.4994      4981.149       520.11852      120.95924      2528.2339    
 166918000   264.29537     -409.36513     -320.84916     -409.32126      0              2815.7448      31.164         21.490526      33.420935      22383.028      3044.4224      4691.4292      711.38285      782.49152     -1972.7731      1687.3107    
 166920000   261.91842     -411.10829     -323.38839     -411.04961      0              3757.2677      31.164         21.490526      33.297681      22300.481      3375.3562      3733.8727      4162.574      -1218.0889     -276.00994     -1378.902     
 166922000   258.93507     -413.24208     -326.52135     -413.16957      0              4000.8087      31.164         21.490526      33.396825      22366.881      3233.8349      6558.4283      2210.163      -871.37741      1296.4809      1520.4895    
 166924000   263.74611     -410.25387     -321.92186     -410.18412      0              4526.6112      31.164         21.490526      33.428638      22388.187      5877.6659      5133.7521      2568.4155     -72.876565      681.62358      474.82221    
 166926000   260.89021     -409.63305     -322.25752     -409.56475      0              1825.1317      31.164         21.490526      33.591662      22497.369      2368.6334      1221.216       1885.5458     -1621.7617     -621.90516      1338.7495    
 166928000   260.37618     -407.66683     -320.46345     -407.60618      0              3310.7296      31.164         21.490526      33.441979      22397.122      2166.6946      3628.1616      4137.3325      1575.5149      1037.1337      28.904526    
 166930000   262.15682     -410.89265     -323.09292     -410.84237      0              3171.0728      31.164         21.490526      33.442264      22397.312      3376.3241      2552.6963      3584.1979     -195.63503     -470.80586      1334.3259    
 166932000   257.19132     -408.81066     -322.67394     -408.75746      0              4889.3058      31.164         21.490526      33.523086      22451.442      5798.2068      4344.5188      4525.1918     -1878.0192     -787.94665      831.08805    
 166934000   263.47888     -409.56603     -321.32352     -409.53397      0              2482.0508      31.164         21.490526      33.786147      22627.622      1466.7401      3241.663       2737.7493      2114.7859      273.95513      391.75521    
 166936000   258.37322     -408.11176     -321.5792      -408.04562      0              2296.2476      31.164         21.490526      33.592164      22497.705      3469.1108      805.66321      2613.9687     -791.75779      491.0084      -1257.3356    
 166938000   257.8691      -410.65307     -324.28935     -410.58618      0              4306.1082      31.164         21.490526      33.448399      22401.421      5229.1023      4362.4098      3326.8126     -164.25195      909.80304      580.93689    
 166940000   257.52999     -408.70931     -322.45916     -408.63689      0              4259.842       31.164         21.490526      33.426699      22386.888      6168.2415      2794.6255      3816.659      -926.68031     -1380.1323     -139.44717    
 166942000   260.75646     -408.23234     -320.9016      -408.1776       0              1854.8674      31.164         21.490526      33.537997      22461.428      1851.3424     -95.410417      3808.6702      323.97728      2474.936       322.51737    
 166944000   262.18434     -410.27968     -322.47073     -410.22568      0              1194.3904      31.164         21.490526      33.468151      22414.65       773.41045      1554.2273      1255.5334      1638.0578     -360.66747      1463.9417    
 166946000   260.62358     -410.85836     -323.57213     -410.79866      0              4112.0358      31.164         21.490526      33.400766      22369.52       3971.4047      2844.855       5519.8479      293.78089      2176.713      -396.55039    
[...]
 174368000   257.24515     -408.6692      -322.51445     -408.7079       0              2193.8174      31.164         21.490526      33.936316      22728.195      3757.2692      898.8517       1925.3312     -184.15595      159.00635     -538.26978    
 174370000   259.13938     -406.32597     -319.53681     -406.33521      0              649.08215      31.164         21.490526      33.71741       22581.586     -1485.339       1421.9298      2010.6557      1263.2562      1507.2923     -1086.8335    
 174372000   263.95837     -408.43684     -320.03374     -408.41321      0              3551.6641      31.164         21.490526      33.732718      22591.839      3414.0569      2796.0179      4444.9176      948.69606     -815.64034      950.03824    
 174374000   261.74966     -409.95684     -322.29347     -409.95798      0              1235.3275      31.164         21.490526      33.600862      22503.53      -89.505213      2327.9821      1467.5056     -1322.9555      6.8990312     -1618.4115    
 174376000   258.86109     -407.46905     -320.77309     -407.46355      0              4908.1075      31.164         21.490526      33.653974      22539.101      5243.4291      5366.0693      4114.824      -1906.3796      1494.4166      150.86692    
 174378000   260.5949      -407.93573     -320.6591      -407.92276      0              1650.2967      31.164         21.490526      33.837897      22662.28       1470.0279      3304.4157      176.44668      1898.1435      438.88985      312.66789    
 174380000   262.38779     -407.53309     -319.65599     -407.52818      0              2721.1142      31.164         21.490526      33.586606      22493.983      3275.3164      3678.053       1209.9732      279.82361      2055.6943     -494.57198    
 174382000   253.68948     -408.99096     -324.02705     -408.99267      0              3915.84        31.164         21.490526      33.497486      22434.296      4875.8114      3565.604       3306.1045     -260.71637     -612.64583     -516.75349    
 174384000   261.07787     -409.7491      -322.31072     -409.68962      0              2177.8786      31.164         21.490526      33.388542      22361.333      2086.7092      949.50261      3497.4239     -1107.0655      1669.5578      995.62365    
 174386000   257.4532      -408.30022     -322.07578     -408.25167      0              3027.2897      31.164         21.490526      33.242098      22263.255      1066.4423      1985.8664      6029.5602      260.9102      -155.9319       3737.6623    
 174388000   265.19104     -407.16031     -318.34437     -407.11838      0              2189.1464      31.164         21.490526      33.326872      22320.031      250.48286      1500.0178      4816.9386     -4.4322288      87.742091     -608.27744    
 174390000   255.46841     -411.36865     -325.80896     -411.30465      0              2781.327       31.164         21.490526      33.336433      22326.435      2303.1586      3274.8642      2765.9581      363.58686     -38.499724     -728.16567    
 174392000   256.67387     -407.66761     -321.70418     -407.61958      0              4306.7801      31.164         21.490526      33.526538      22453.754      5049.9639      2525.0492      5345.3272      1392.1323     -811.0671       1339.1055    
 174394000   254.65877     -406.50341     -321.21487     -406.45905      0              3920.4108      31.164         21.490526      33.27922       22288.117      3062.5626      3969.7586      4728.911       327.13194     -952.59986     -1017.3851    
 174396000   259.51018     -409.09248     -322.17913     -409.09767      0              2610.458       31.164         21.490526      33.459433      22408.811      2952.0578      2370.7954      2508.5208     -107.41859     -34.93347      -345.85417    
 174398000   258.12317     -406.05208     -319.60326     -406.04704      0              1927.3288      31.164         21.490526      33.6058        22506.838      4436.1254      219.762        1126.0989     -53.48589      -826.50986     -276.98446    
 174400000   260.95751     -407.9381      -320.54002     -407.94646      0              2214.2153      31.164         21.490526      33.564286      22479.034      2210.224       2295.3085      2137.1136     -1225.2711      1068.4677      471.15079    
 174402000   254.0166      -409.6694      -324.59593     -409.62902      0              3271.9983      31.164         21.490526      33.600448      22503.254      3147.0743      3733.725       2935.1957      446.98739      470.44173     -946.17789    
 174404000   257.26788     -407.87848     -321.71611     -407.83564      0              2844.5401      31.164         21.490526      33.489629      22429.035      4636.7924      1915.8191      1981.0088     -397.17276     -1223.1089     -320.10826    
 174406000   260.43906     -409.38746     -322.16303     -409.35402      0              2458.9953      31.164         21.490526      33.537747      22461.261      3084.55        600.94717      3691.4886     -1141.7783      463.11126     -111.46954    
 174408000   264.943       -405.76328     -317.03042     -405.70907      0              3465.3709      31.164         21.490526      33.331767      22323.309      2857.358       4278.28        3260.4746     -81.065222      734.39653      0.3222015    
 174410000   254.86886     -409.29179     -323.93288     -409.26526      0              2557.963       31.164         21.490526      33.420194      22382.532      875.06501      3681.8771      3116.9468      1982.5127      1146.0631      1122.2144    
 174412000   260.67731     -410.03982     -322.73559     -409.99447      0              2029.4831      31.164         21.490526      33.331467      22323.109      3503.5259      345.67146      2239.2518     -161.9758       652.92438      1289.9165    
 174414000   271.14149     -410.0672      -319.25838     -410.05157      0              3746.5723      31.164         21.490526      33.322016      22316.779      4786.9272      557.47622      5895.3135      326.22894      1736.1082      271.50345    
 174416000   264.77849     -406.76697     -318.08921     -406.72908      0              3517.4673      31.164         21.490526      33.433105      22391.179      2834.5648      4331.7557      3386.0814     -2006.4524     -152.45814     -1216.1697    
 174418000   257.01142     -408.35078     -322.27431     -408.31769      0              1592.3228      31.164         21.490526      33.271959      22283.254      2966.6907      553.21527      1257.0624     -701.05777     -262.8614       1107.7612    
 174420000   262.70073     -405.63807     -317.65617     -405.58705      0              2241.4134      31.164         21.490526      33.308706      22307.865      180.5498       2537.281       4006.4094      951.12607     -430.12905      337.42935    
 174422000   259.75415     -411.08134     -324.08629     -411.03996      0              3191.2738      31.164         21.490526      33.471127      22416.643      4516.7112      2955.4673      2101.6429     -281.65681      899.57803      2599.9204    
 174424000   253.89966     -410.70323     -325.66892     -410.6568       0              3843.527       31.164         21.490526      33.219056      22247.823      3690.8211      4069.3311      3770.4286     -922.87833      1017.8153      245.49962    
 174426000   256.00182     -408.19251     -322.45417     -408.15854      0              1574.8855      31.164         21.490526      33.522755      22451.22       1712.6721      2654.2632      357.72131     -665.1419       299.80899     -852.13187    
 174428000   259.92236     -410.47404     -323.42265     -410.40745      0              4305.3367      31.164         21.490526      33.285407      22292.261      3853.3618      4676.0679      4386.5802      797.89875      1605.3427     -82.029878    
 174430000   261.28679     -408.44163     -320.93327     -408.40618      0              3086.9754      31.164         21.490526      33.358166      22340.99       1644.0492      4162.0173      3454.8596     -1672.7013      597.73117     -1690.943     
 174432000   252.30022     -409.78714     -325.2885      -409.74803      0              2622.3036      31.164         21.490526      33.33707       22326.861      2201.7167      3619.0256      2046.1684      11.632476      34.605356      909.86797    
 174434000   262.58167     -407.87132     -319.9293      -407.82553      0              3052.1647      31.164         21.490526      33.380103      22355.682      2893.6923      2113.4656      4149.3363     -640.70253      461.26607      1314.8251    
 174436000   263.46029     -408.85632     -320.62004     -408.80638      0              1888.9105      31.164         21.490526      33.531519      22457.09       1643.8159      1680.7002      2342.2153     -452.84416      1655.2416      255.83518    
 174438000   256.81789     -407.38824     -321.37658     -407.35048      0              3809.4182      31.164         21.490526      33.291693      22296.47       4036.0593      4240.8588      3151.3366     -1295.3669     -788.08941     -553.09801    
 174440000   254.632       -408.31306     -323.03348     -408.26431      0              2701.8474      31.164         21.490526      33.470475      22416.207      2870.1545      3504.1986      1731.1891     -278.6641       1280.366       1048.4771    
 174442000   253.14116     -407.74353     -322.96325     -407.69961      0              1368.2455      31.164         21.490526      33.574683      22485.997      1596.9773      1035.4506      1472.3086      2632.4198     -889.35164      213.96799    
 174444000   261.43343     -411.44926     -323.8918      -411.41304      0              3681.4836      31.164         21.490526      33.353685      22337.988      4174.8766      2569.6775      4299.8965      2128.2856     -377.13604      1863.2177    
 174446000   261.10145     -407.87475     -320.42847     -407.84757      0              2558.5261      31.164         21.490526      33.4973        22434.172      2015.5316      4058.4215      1601.6252     -1566.9222     -1048.5059     -1325.3193    
 174448000   261.04801     -409.44846     -322.02008     -409.41934      0              3580.3682      31.164         21.490526      33.509205      22442.145      2963.271       2888.6596      4889.1742      1717.6867     -490.39617      1429.1409    
 174450000   259.25128     -410.48426     -323.65763     -410.4272       0              1321.831       31.164         21.490526      33.52449       22452.382      2314.7213      2126.5831     -475.8115       398.75612     -1622.58        985.51534    
 174452000   267.83816     -406.4935      -316.79101     -406.4566       0              5163.3667      31.164         21.490526      33.227074      22253.194      2878.1297      7030.6718      5581.2985      634.27779      49.966464     -1058.7988    
 174454000   254.62654     -410.62082     -325.34308     -410.56151      0              4705.8463      31.164         21.490526      33.254101      22271.294      4075.2153      4625.2806      5417.0428      1700.4372      772.69605     -777.36586    
 174456000   262.92223     -409.63616     -321.58008     -409.56481      0              3741.2315      31.164         21.490526      33.270426      22282.227      1427.0472      3635.8572      6160.7902     -1105.6158      236.72207      192.35286    
 174458000   267.07826     -409.81431     -320.36632     -409.75425      0              2917.699       31.164         21.490526      33.508361      22441.58       2108.4183      3630.7795      3013.8991     -815.96142      1786.5453     -1110.903     
 174460000   253.2463      -410.91028     -326.09479     -410.85757      0              2205.7008      31.164         21.490526      33.541226      22463.59       5751.3397     -153.39843      1019.1611     -653.74959     -494.53283      1294.7038    
 174462000   260.91905     -410.63376     -323.24857     -410.5866       0              3944.4557      31.164         21.490526      33.603678      22505.417      5744.9205      1979.4726      4108.974      -519.07124      540.1415      -157.39793    
 174464000   257.94777     -412.58557     -326.1955      -412.53616      0              2369.0675      31.164         21.490526      33.394051      22365.023      1293.0407      1739.3816      4074.7803      992.62461     -134.89177      1136.5215    
 174466000   262.58845     -412.04914     -324.10484     -411.9958       0              4208.7429      31.164         21.490526      33.453478      22404.823      5195.1634      4728.8549      2702.2104     -1473.9221      536.33651     -238.27576    
 174468000   262.12909     -409.69358     -321.90313     -409.63296      0              3196.0766      31.164         21.490526      33.723549      22585.698      3445.1173      1766.1008      4377.0118      389.90495     -1299.4322      1338.7124    
 174470000   256.84176     -410.81888     -324.79923     -410.77584      0              2643.4471      31.164         21.490526      33.475722      22419.72       3404.2098      3076.0982      1450.0333     -290.29711     -1469.3292      686.90191    
 174472000   260.29288     -410.90299     -323.72752     -410.84967      0              1103.2687      31.164         21.490526      33.465893      22413.137      2365.4572      473.54806      470.80095      490.69586     -2449.7702     -123.4547     
 174474000   267.5041      -407.87691     -318.2863      -407.8114       0              3754.5985      31.164         21.490526      33.479163      22422.025      3376.9342      4644.7278      3242.1336     -704.9804      -219.54342      738.7139     
 174476000   265.08427     -410.97043     -322.19026     -410.93459      0              2197.9177      31.164         21.490526      33.546886      22467.381      2897.9752      2898.9414      796.83653      155.73034     -1864.519       404.49422    
 174478000   256.50604     -409.59179     -323.68457     -409.55184      0              3550.9824      31.164         21.490526      33.439519      22395.474      5483.4574      2502.3535      2667.1363     -864.72119     -810.89412     -1321.4118    
 174480000   261.2881      -411.54508     -324.03629     -411.50195      0              2261.1053      31.164         21.490526      33.654479      22539.44       2597.71        1316.4667      2869.1392     -1065.6121     -142.88827      1031.6029    
 174482000   257.49103     -408.10562     -321.86852     -408.07467      0              3144.5767      31.164         21.490526      33.729869      22589.93       3207.1378      4166.1768      2060.4157      854.12048      597.5087      -1320.2977    
 174484000   257.799       -409.84375     -323.5035      -409.80061      0              1915.5185      31.164         21.490526      33.567088      22480.911      2086.045       1772.6272      1887.8834      1240.1605      1062.6094      443.71858    
 174486000   258.12972     -410.48022     -324.02921     -410.44075      0              2368.1348      31.164         21.490526      33.744521      22599.744      1278.8629      4537.5091      1288.0324      588.73399     -223.02789     -629.27091    
 174488000   253.7304      -409.49062     -324.513       -409.44058      0              1800.5601      31.164         21.490526      33.564052      22478.878      2351.3504      1879.0331      1171.2969     -1499.5811      1222.0406      605.59759    
 174490000   257.81627     -413.19575     -326.84972     -413.1318       0              4076.064       31.164         21.490526      33.44538       22399.4        5042.9581      1066.1965      6119.0374     -1025.4627     -756.59074      874.4659     
 174492000   260.62549     -412.14149     -324.85462     -412.07865      0              2384.7909      31.164         21.490526      33.43371       22391.583      2632.6815      1620.2221      2901.4692     -662.09159     -1074.0275     -228.31381    
 174494000   254.2992      -410.30127     -325.13315     -410.26305      0              1400.8106      31.164         21.490526      33.303906      22304.65       3463.565       2114.2263     -1375.3596     -954.44483      47.601661     -654.60346    
 174496000   271.47242     -409.04773     -318.12808     -408.97947      0              3364.3515      31.164         21.490526      33.515129      22446.112      2795.8763      5056.184       2240.9943     -628.15293      481.99084      354.63997    
 174498000   260.22185     -408.40276     -321.25107     -408.33309      0              3023.7199      31.164         21.490526      33.22847       22254.128      3706.2706      13.572758      5351.3162      532.54886      615.37549     -339.20362    
 174500000   269.32685     -409.47628     -319.27521     -409.43005      0              4820.6894      31.164         21.490526      33.354889      22338.795      5325.4504      5119.0095      4017.6084      291.60688     -1115.1945      2474.0003    
 174502000   255.92183     -410.66468     -324.95312     -410.58299      0              3759.3909      31.164         21.490526      33.386002      22359.632      4984.952       3272.1218      3021.099      -533.43422     -792.52931      252.12007    
 174504000   261.6258      -411.08509     -323.4632      -411.03983      0              4432.5939      31.164         21.490526      33.35124       22336.351      5653.7334      3092.1759      4551.8725      118.21895     -487.3589      -1201.6611    
 174506000   260.75692     -413.85863     -326.52774     -413.78535      0              4148.9909      31.164         21.490526      33.178669      22220.775      3222.6367      5033.7316      4190.6043      1650.8653     -411.91948      1311.7822    
 174508000   254.82542     -406.94978     -321.60542     -406.94711      0              1497.6048      31.164         21.490526      33.25023       22268.702      2932.2401      761.35538      799.21904     -2.9993394     -386.96384     -266.6014     
 174510000   258.66911     -407.95666     -321.32501     -407.89881      0              1453.3694      31.164         21.490526      33.268599      22281.004      2251.8583      237.3166       1870.9332      2001.9214      1101.0761      633.15518    
WARNING: Wall time limit reached (../timer.cpp:193)
Loop time of 85797 on 4 procs for 8132000 steps with 2592 atoms

Performance: 4.095 ns/day, 5.861 hours/ns, 94.782 timesteps/s
1543.8% CPU use with 4 MPI tasks x no OpenMP threads

MPI task timing breakdown:
Section |  min time  |  avg time  |  max time  |%varavg| %total
---------------------------------------------------------------
Pair    | 22769      | 22896      | 23105      |  84.0 | 26.69
Bond    | 0.75535    | 0.79399    | 0.82618    |   3.4 |  0.00
Neigh   | 683.29     | 696.74     | 709.92     |  49.9 |  0.81
Comm    | 2643.5     | 2862.4     | 2996.3     | 250.3 |  3.34
Output  | 326.58     | 326.58     | 326.6      |   0.0 |  0.38
Modify  | 58987      | 58993      | 58998      |   2.0 | 68.76
Other   |            | 22.26      |            |       |  0.03

Nlocal:            648 ave         657 max         637 min
Histogram: 1 0 1 0 0 0 0 0 0 2
Nghost:           4149 ave        4175 max        4122 min
Histogram: 2 0 0 0 0 0 0 0 0 2
Neighs:              0 ave           0 max           0 min
Histogram: 4 0 0 0 0 0 0 0 0 0
FullNghs:       160514 ave      164721 max      156035 min
Histogram: 2 0 0 0 0 0 0 0 0 2

Total # of neighbors = 642054
Ave neighs/atom = 247.70602
Ave special neighs/atom = 0
Neighbor list builds = 162640
Dangerous builds not checked
unfix 3
unfix 1
unfix 2


# Finalize simulation
write_restart	restart.lmp.${pid}
write_restart	restart.lmp.0
System init for write_restart ...
Generated 0 of 1 mixed pair_coeff terms from geometric mixing rule
write_data	data.final.${pid} nocoeff
write_data	data.final.0 nocoeff
System init for write_data ...
Generated 0 of 1 mixed pair_coeff terms from geometric mixing rule
Total wall time: 23:50:11
