LAMMPS (23 Jun 2022)
include procedure.lmp
echo both
include		in.partitions
variable        pid world 0
include		in.temp
variable	temperature equal 260
variable        tempDamp equal 0.100 # this is 0.1 ps
include		in.pressure
variable        pressure equal 3039.75
variable        pressureDamp equal 1.0 #this is 1ps

variable	barostat string	   tri
variable	direction string   z
variable	direction_x_bool equal 0
variable	direction_y_bool equal 0
variable	direction_z_bool equal 1

include		in.seed
variable        seed world 745823

units           metal
atom_style	full
box tilt large
read_restart 	restart.lmp.${pid}
read_restart 	restart.lmp.0
Reading restart file ...
  restart file = 23 Jun 2022, LAMMPS = 23 Jun 2022
  restoring atom style full from restart
  triclinic box = (0 0 -0.9943007) to (31.164 21.490526 32.678805) with tilt (-9.197534 0.82463788 -11.300073)
WARNING: Triclinic box skew is large (../domain.cpp:224)
  2 by 1 by 2 MPI processor grid
Summary of lammps deepmd module ...
  >>> Info of deepmd-kit:
  installed to:       /u/sigbjobo/software/DEEPMD_FROM_SOURCE/deepmd-kit/install
  source:             v2.1.3
  source branch:       master
  source commit:      5a32c49
  source commit at:   2022-07-01 09:52:58 +0800
  surpport model ver.:1.1 
  build float prec:   double
  build with tf inc:  /u/sigbjobo/software/DEEPMD_FROM_SOURCE/tensorflow/install/include;/u/sigbjobo/software/DEEPMD_FROM_SOURCE/tensorflow/install/include
  build with tf lib:  /u/sigbjobo/software/DEEPMD_FROM_SOURCE/tensorflow/install/lib/libtensorflow_cc.so;/u/sigbjobo/software/DEEPMD_FROM_SOURCE/tensorflow/install/lib/libtensorflow_framework.so
  set tf intra_op_parallelism_threads: 0
  set tf inter_op_parallelism_threads: 0
  >>> Info of lammps module:
  use deepmd-kit at:  /u/sigbjobo/software/DEEPMD_FROM_SOURCE/deepmd-kit/install
  source:             v2.1.3
  source branch:      master
  source commit:      5a32c49
  source commit at:   2022-07-01 09:52:58 +0800
  build float prec:   double
  build with tf inc:  /u/sigbjobo/software/DEEPMD_FROM_SOURCE/tensorflow/install/include;/u/sigbjobo/software/DEEPMD_FROM_SOURCE/tensorflow/install/include
  build with tf lib:  /u/sigbjobo/software/DEEPMD_FROM_SOURCE/tensorflow/install/lib/libtensorflow_cc.so;/u/sigbjobo/software/DEEPMD_FROM_SOURCE/tensorflow/install/lib/libtensorflow_framework.so
  restoring pair style deepmd from restart
  2592 atoms
Finding 1-2 1-3 1-4 neighbors ...
  special bond factors lj:    0        0        0       
  special bond factors coul:  0        0        0       
     0 = max # of 1-2 neighbors
     0 = max # of 1-3 neighbors
     0 = max # of 1-4 neighbors
     1 = max # of special neighbors
  special bonds CPU = 0.000 seconds
  read_restart CPU = 0.018 seconds
include 	in.setup
variable	out_freq equal 2000
variable	out_freq2 equal 2000

timestep        0.0005

neigh_modify    delay 7 every 1

include         in.deepmd
# This is deepMD model

# create groups ###
#group ox type 2
#group hy type 1

mass 2 15.999
mass 1 1.008

pair_style      deepmd ../graph.pb
pair_coeff      * *

bond_style      none
angle_style     none
dihedral_style  none
improper_style  none
neigh_modify exclude none


neighbor        2.0 bin
neigh_modify    every 50 delay 0 check no

thermo          ${out_freq}
thermo          2000
thermo_style 	custom step temp pe etotal epair emol press lx ly lz vol pxx pyy pzz pxy pxz pyz

restart 	${out_freq} restart.lmp.${pid} restart2.lmp.${pid}
restart 	2000 restart.lmp.${pid} restart2.lmp.${pid}
restart 	2000 restart.lmp.0 restart2.lmp.${pid}
restart 	2000 restart.lmp.0 restart2.lmp.0


timer           timeout 23:50:00 every 1000
New timer settings: style=normal  mode=nosync  timeout=23:50:00


# Set number of time steps
variable 	nsteps_wall		equal	 6000000
variable 	nsteps_enhanced_coex    equal	100000000

variable     nsteps_enhanced_coex_upto equal (${nsteps_wall}+${nsteps_enhanced_coex})
variable     nsteps_enhanced_coex_upto equal (6000000+${nsteps_enhanced_coex})
variable     nsteps_enhanced_coex_upto equal (6000000+100000000)


# Set temperature for first step
if "$(step) < 1  " then    "velocity 	all create ${temperature} ${seed} dist gaussian"


# Always run thermo and barostat


######################################
# Run simulation with wall potential #
######################################
if " $(step) < ${nsteps_wall} " then    "fix             3 all plumed plumedfile plumed.equil.dat outfile plumed.equil.out"   "fix             1 all nph ${direction} ${pressure} ${pressure} ${pressureDamp}"   "fix             2 all temp/csvr ${temperature} ${temperature} ${tempDamp} ${seed}"   "run             ${nsteps_wall} upto"
if " $(step) == ${nsteps_wall} " then    "unfix 3"   "unfix 1"   "unfix 2"


############################
# Run enhanced coesistence #
############################
if "$(step) == ${nsteps_wall}" then    "fix             3 all plumed plumedfile plumed.start.dat outfile plumed.out" else    "fix             3 all plumed plumedfile plumed.dat outfile plumed.out"
fix             3 all plumed plumedfile plumed.dat outfile plumed.out

if "$(step) < ${nsteps_enhanced_coex_upto} && $(step) >= ${nsteps_wall} " then    "include         in.dump"    "fix             1 all nph ${direction} ${pressure} ${pressure} ${pressureDamp}"   "fix             2 all temp/csvr ${temperature} ${temperature} ${tempDamp} ${seed}"   "run             ${nsteps_enhanced_coex_upto} upto"    "unfix 3"   "unfix 1"   "unfix 2"
include         in.dump
dump            myDump all atom ${out_freq2} dump.water.${pid}
dump            myDump all atom 2000 dump.water.${pid}
dump            myDump all atom 2000 dump.water.0
dump            myDump2 all dcd ${out_freq2} dump.${pid}.dcd
dump            myDump2 all dcd 2000 dump.${pid}.dcd
dump            myDump2 all dcd 2000 dump.0.dcd
dump_modify     myDump append yes
dump_modify     myDump2 append yes

fix             1 all nph ${direction} ${pressure} ${pressure} ${pressureDamp}
fix             1 all nph z ${pressure} ${pressure} ${pressureDamp}
fix             1 all nph z 3039.75 ${pressure} ${pressureDamp}
fix             1 all nph z 3039.75 3039.75 ${pressureDamp}
fix             1 all nph z 3039.75 3039.75 1
fix             2 all temp/csvr ${temperature} ${temperature} ${tempDamp} ${seed}
fix             2 all temp/csvr 260 ${temperature} ${tempDamp} ${seed}
fix             2 all temp/csvr 260 260 ${tempDamp} ${seed}
fix             2 all temp/csvr 260 260 0.1 ${seed}
fix             2 all temp/csvr 260 260 0.1 745823
run             ${nsteps_enhanced_coex_upto} upto
run             106000000 upto

CITE-CITE-CITE-CITE-CITE-CITE-CITE-CITE-CITE-CITE-CITE-CITE-CITE

Your simulation uses code contributions which should be cited:

- USER-DEEPMD package:

@article{Wang_ComputPhysCommun_2018_v228_p178,
  author = {Wang, Han and Zhang, Linfeng and Han, Jiequn and E, Weinan},
  doi = {10.1016/j.cpc.2018.03.016},
  url = {https://doi.org/10.1016/j.cpc.2018.03.016},
  year = 2018,
  month = {jul},
  publisher = {Elsevier {BV}},
  volume = 228,
  journal = {Comput. Phys. Commun.},
  title = {{DeePMD-kit: A deep learning package for many-body potential energy representation and molecular dynamics}},
  pages = {178--184}
}

CITE-CITE-CITE-CITE-CITE-CITE-CITE-CITE-CITE-CITE-CITE-CITE-CITE

Generated 0 of 1 mixed pair_coeff terms from geometric mixing rule
Neighbor list info ...
  update every 50 steps, delay 0 steps, check no
  max neighbors/atom: 2000, page size: 100000
  master list distance cutoff = 8
  ghost atom cutoff = 8
  binsize = 4, bins = 11 9 9
  1 neighbor lists, perpetual/occasional/extra = 1 0 0
  (1) pair deepmd, perpetual
      attributes: full, newton on
      pair build: full/bin
      stencil: full/bin/3d
      bin: standard
Per MPI rank memory allocation (min/avg/max) = 6.228 | 6.229 | 6.23 Mbytes
   Step          Temp          PotEng         TotEng         E_pair         E_mol          Press            Lx             Ly             Lz           Volume          Pxx            Pyy            Pzz            Pxy            Pxz            Pyz      
  81289000   250.58277     -407.35123     -323.4278      -407.35123      0              2464.7982      31.164         21.490526      33.673105      22551.914      2389.5975      4115.2739      889.52327      1223.5539      1975.2369     -1367.4211    
  81290000   257.78541     -406.52968     -320.19399     -406.5819       0              1164.7804      31.164         21.490526      33.640243      22529.905      2859.4884     -1162.5323      1797.3851     -219.42761      523.36778     -81.747016    
  81292000   265.02839     -405.83256     -317.07109     -405.83476      0              2013.9118      31.164         21.490526      33.689031      22562.58       229.5783       3137.3357      2674.8213     -35.09523      -1075.9163     -406.27545    
  81294000   264.76706     -407.42655     -318.75261     -407.42095      0              3451.3639      31.164         21.490526      33.495798      22433.166      3902.2079      4161.5335      2290.3502     -173.56395     -1084.8792     -1167.2373    
  81296000   259.57657     -405.22358     -318.288       -405.22473      0              2873.2634      31.164         21.490526      33.771199      22617.611      3832.7352      3014.4608      1772.5943     -150.89837     -637.96993     -113.24587    
  81298000   266.70876     -406.17119     -316.84695     -406.14999      0              1825.6524      31.164         21.490526      33.653414      22538.726      311.26561      3001.8559      2163.8356      635.3753       34.793081      594.21573    
  81300000   261.67509     -406.92925     -319.29086     -406.94121      0              3536.5133      31.164         21.490526      33.750526      22603.765      4136.3         3444.7849      3028.4551      65.946526     -401.90389      394.7804     
  81302000   265.75598     -405.63402     -316.62888     -405.64394      0              3773.8263      31.164         21.490526      33.633765      22525.566      2633.3023      3172.7588      5515.4177     -88.538477      1136.3063      1336.5739    
  81304000   266.32233     -408.16922     -318.9744      -408.17465      0              2468.1968      31.164         21.490526      33.517527      22447.719      2750.5929      3157.2258      1496.7718     -863.517        1586.3489      1780.1714    
  81306000   257.95741     -406.79796     -320.40467     -406.79284      0              3568.1374      31.164         21.490526      33.579263      22489.065      1990.2047      4325.2733      4388.9341     -197.30924     -2246.5999      1776.541     
  81308000   260.89717     -409.61934     -322.24147     -409.60339      0              3814.7173      31.164         21.490526      33.58723       22494.401      5254.1943      3290.2237      2899.734      -867.04437      1127.012      -1018.5784    
  81310000   259.36424     -411.39923     -324.53476     -411.36822      0              1679.3625      31.164         21.490526      33.6404        22530.01       2682.3964      2264.0838      91.607116      949.80382      217.1035       612.79247    
  81312000   255.32301     -409.19525     -323.68425     -409.15406      0              1928.8423      31.164         21.490526      33.548308      22468.334      3213.9948      1625.5694      946.9628      -656.58393     -229.60593     -1315.7672    
  81314000   267.75009     -405.97638     -316.30339     -405.98702      0              1655.9551      31.164         21.490526      33.826691      22654.775      2032.7984      1392.0183      1543.0487     -461.40368      741.24309     -33.904239    
  81316000   257.03376     -404.76128     -318.67732     -404.77181      0              621.11484      31.164         21.490526      33.692776      22565.088      407.74801      621.34527      834.25125      27.669863     -151.58445      1672.6258    
  81318000   257.98639     -407.43579     -321.03278     -407.42327      0              4079.0728      31.164         21.490526      33.576616      22487.292      5599.5085      3926.5021      2711.2079     -1139.8123      2091.2271     -1179.7103    
  81320000   266.24322     -403.82812     -314.6598      -403.83432      0              2315.2287      31.164         21.490526      33.599263      22502.46       2682.0965      2810.8743      1452.7153      12.019555     -239.89418     -599.1111     
  81322000   266.27586     -406.37534     -317.19608     -406.37815      0              1977.9628      31.164         21.490526      33.656044      22540.487      2386.5641      2084.1488      1463.1755      478.7761      -1606.8528     -1067.7979    
  81324000   257.92979     -408.92279     -322.53874     -408.89996      0              5542.8477      31.164         21.490526      33.50479       22439.188      6243.6634      5167.1974      5217.6823      505.31686     -367.5471      -841.72633    
  81326000   257.97538     -407.76043     -321.36111     -407.73605      0              4848.8208      31.164         21.490526      33.65573       22540.277      6756.1181      4786.8007      3003.5436      360.98666      535.7032      -131.36315    
  81328000   255.92853     -406.6047      -320.89089     -406.57803      0              3967.4171      31.164         21.490526      33.64305       22531.785      3970.5011      5494.7198      2437.0303     -1468.7746     -1093.1785     -2398.3442    
  81330000   256.79336     -409.77112     -323.76767     -409.74679      0              2411.6991      31.164         21.490526      33.72319       22585.457      2394.4475      2078.2057      2762.444       829.60531      1053.0833     -91.61745     
  81332000   260.65488     -408.30072     -321.00401     -408.25549      0              4334.5517      31.164         21.490526      33.738313      22595.586      4377.6192      4315.5769      4310.4592      194.58364      116.62424      4.6449634    
  81334000   259.10747     -410.02481     -323.24634     -410.00281      0              2516.7494      31.164         21.490526      33.91889       22716.524      2039.1273      3081.9567      2429.1641      762.83018     -125.73071     -1187.7468    
  81336000   262.17573     -408.38553     -320.57946     -408.38223      0              2856.2382      31.164         21.490526      33.936529      22728.337      2314.2686      4809.2691      1445.1767      321.73225      893.51539      97.003188    
  81338000   262.16499     -406.38695     -318.58448     -406.39343      0              2388.3025      31.164         21.490526      33.756046      22607.462      178.54231      1966.1881      5020.177       521.04083      493.45221     -648.29285    
  81340000   259.85348     -404.46148     -317.43316     -404.44984      0              4603.6128      31.164         21.490526      33.453945      22405.136      2696.6166      5742.9429      5371.2788     -1338.235      -1096.3368      2111.3076    
  81342000   257.5825      -407.75813     -321.49039     -407.75102      0              2209.0877      31.164         21.490526      33.793087      22632.269      3160.3448      1616.9978      1849.9205      1037.9281      39.906535     -663.27189    
  81344000   263.84047     -408.70972     -320.34611     -408.66795      0              3138.9031      31.164         21.490526      33.451741      22403.66       4841.5575      3154.1483      1421.0036     -875.35451     -546.31514     -1609.6502    
  81346000   259.84369     -410.43189     -323.40685     -410.40316      0              4480.1948      31.164         21.490526      33.458093      22407.914      4187.7409      4815.7557      4437.0876      281.57699      67.492415     -2190.1994    
  81348000   258.50387     -408.36747     -321.79115     -408.32534      0              3917.5354      31.164         21.490526      33.277161      22286.738      3689.221       3550.2716      4513.1137      341.05099      1451.818      -974.51036    
  81350000   258.89301     -409.33091     -322.62426     -409.26833      0              3660.9844      31.164         21.490526      33.376057      22352.972      5235.2734      3026.8703      2720.8095      929.90277     -1009.7072     -924.56134    
  81352000   263.33853     -404.68091     -316.4854      -404.66814      0              3592.605       31.164         21.490526      33.407753      22374.199      4378.7205      4589.5805      1809.514       1001.0196      28.568693     -1163.97      
  81354000   257.2948      -410.86122     -324.68984     -410.82993      0              4100.4129      31.164         21.490526      33.4231        22384.478      2659.0392      4440.8657      5201.3338     -459.87202     -807.59485     -174.39868    
  81356000   263.78411     -408.62686     -320.28213     -408.60987      0              3655.3188      31.164         21.490526      33.252983      22270.545      3240.4349      3376.1255      4349.3959      2015.6772      1111.3181     -2088.1927    
  81358000   256.75881     -409.79471     -323.80283     -409.78212      0              2942.564       31.164         21.490526      33.604756      22506.139      4756.0456      3148.6287      923.01766     -152.60913     -568.28127     -1241.5357    
  81360000   257.19829     -410.33705     -324.19799     -410.31411      0              1775.4436      31.164         21.490526      33.468314      22414.759      1296.9766      1478.0841      2551.2702      816.38281     -1036.504      -526.65498    
  81362000   257.13948     -407.79344     -321.67408     -407.80019      0              3846.469       31.164         21.490526      33.446655      22400.253      5340.6659      1763.426       4435.3152     -1013.8644      62.338245     -1430.9855    
  81364000   256.86883     -405.44594     -319.41722     -405.47809      0              159.84891      31.164         21.490526      33.751905      22604.689      889.13052      358.48194     -768.06572     -319.92104     -360.37957     -436.43292    
  81366000   256.75082     -410.69001     -324.70081     -410.69876      0              3252.6629      31.164         21.490526      33.390857      22362.884      3561.6971      2880.9121      3315.3797     -9.5256886      1268.571      -668.35066    
  81368000   256.61713     -410.21357     -324.26915     -410.2025       0              772.97055      31.164         21.490526      33.523022      22451.399      182.26212      1022.1577      1114.4919     -490.96268     -975.16206      739.41687    
  81370000   254.67615     -408.81678     -323.52242     -408.82276      0              2054.0827      31.164         21.490526      33.553443      22471.772     -283.22749      2172.3863      4273.0893      832.25299      632.11481     -1920.3429    
  81372000   261.22992     -407.67454     -320.18523     -407.67727      0              2520.8957      31.164         21.490526      33.526693      22453.857      3141.7967      2613.5599      1807.3305     -739.50616     -797.39088      1386.742     
  81374000   257.3477      -407.11322     -320.92412     -407.08356      0              2598.3966      31.164         21.490526      33.621346      22517.25       3452.5015      2285.4977      2057.1905     -746.3081       1330.148       660.33922    
  81376000   260.02292     -407.87981     -320.79475     -407.86632      0              4457.851       31.164         21.490526      33.42917       22388.543      5273.9871      3806.9171      4292.649      -1562.3133      1470.7958      314.49555    
  81378000   254.16937     -410.74694     -325.62231     -410.75195      0              2573.4403      31.164         21.490526      33.398138      22367.76       2001.6188      2626.3218      3092.3802     -704.26004     -488.76053     -655.20733    
  81380000   260.14845     -408.76448     -321.63737     -408.74496      0              4994.5979      31.164         21.490526      33.540184      22462.893      5180.2275      4578.6681      5224.898       304.29614     -915.1456       223.68275    
  81382000   262.12247     -408.1255      -320.33727     -408.13971      0              3821.925       31.164         21.490526      33.476659      22420.348      4334.3494      3953.9958      3177.4298     -242.41367      1843.4545     -447.1872     
  81384000   253.94869     -407.44622     -322.3955      -407.45944      0              1454.5084      31.164         21.490526      33.279347      22288.202      2216.1052      1306.4581      840.96184     -100.68047     -280.18687     -982.92217    
  81386000   262.52545     -410.50317     -322.57998     -410.49979      0              4143.5639      31.164         21.490526      33.366268      22346.416      3065.0008      4610.5197      4755.1712     -537.58517      331.00951      1340.3443    
  81388000   255.81041     -408.38765     -322.71341     -408.36161      0              4733.5471      31.164         21.490526      33.429858      22389.004      4582.9816      3703.1069      5914.5527      853.01944      265.4545       167.26871    
  81390000   259.41002     -408.60103     -321.72123     -408.57635      0              2290.3459      31.164         21.490526      33.425773      22386.268      1981.4389      2636.6707      2252.9282     -322.70676      231.52118     -1557.857     
  81392000   259.23993     -409.0083      -322.18547     -408.98401      0              3197.4673      31.164         21.490526      33.550111      22469.541      3254.1483      3682.4783      2655.7753      236.84605     -184.10042     -1714.7636    
  81394000   258.21962     -408.61998     -322.13886     -408.61447      0              2303.2278      31.164         21.490526      33.579343      22489.118      2579.0569      1556.2155      2774.4111      1293.1838      197.86252     -124.29682    
  81396000   255.1915      -407.03462     -321.56766     -407.06427      0              1596.9824      31.164         21.490526      33.493087      22431.35       541.45273      2031.3947      2218.0998      2907.444      -231.74242     -569.76765    
  81398000   261.02799     -406.6414      -319.21973     -406.61149      0              3289.0858      31.164         21.490526      33.354186      22338.324      2612.8254      2984.1557      4270.2764     -377.01668     -194.2274       748.32783    
  81400000   258.42795     -407.82106     -321.27017     -407.78827      0              4626.2702      31.164         21.490526      33.390542      22362.673      5228.99        2865.2564      5784.5642     -12.950789     -242.58702     -1849.2042    
  81402000   256.22783     -407.61895     -321.80491     -407.62888      0              2486.1076      31.164         21.490526      33.434355      22392.016      2609.1815      735.9137       4113.2277      859.72023      408.33898      751.97731    
  81404000   265.55598     -408.18361     -319.24545     -408.17934      0              4422.3187      31.164         21.490526      33.416664      22380.168      4320.8202      3690.9125      5255.2233     -437.81246      11.864749     -282.21525    
  81406000   257.16591     -409.44177     -323.31356     -409.44261      0              4520.1053      31.164         21.490526      33.528947      22455.367      4153.1547      5728.5041      3678.6572      50.695208      488.4072      -1144.4517    
  81408000   271.29243     -409.17912     -318.31975     -409.12505      0              3702.0783      31.164         21.490526      33.244349      22264.763      2590.788       1410.4342      7105.0126      755.58637      126.38073      213.30348    
  81410000   252.05424     -405.25829     -320.84204     -405.22902      0              3970.6165      31.164         21.490526      33.223447      22250.764      5618.6131      2321.6468      3971.5896     -2841.1473     -1210.128       69.248355    
  81412000   253.11629     -408.02303     -323.25108     -408.03313      0              3216.5926      31.164         21.490526      33.286373      22292.908      476.9477       3009.1328      6163.6974     -473.72024      1491.1523      452.6159     
  81414000   267.10674     -405.84923     -316.3917      -405.85323      0              4884.5482      31.164         21.490526      33.329489      22321.783      4821.5023      5336.8346      4495.3078     -615.02401      945.43773      1261.3408    
  81416000   258.30438     -406.99603     -320.48653     -406.9946       0              4216.9461      31.164         21.490526      33.383464      22357.932      5087.9536      3112.5067      4450.3781     -963.32915     -303.62563     -49.311947    
  81418000   261.74299     -407.83248     -320.17134     -407.83696      0              4260.7745      31.164         21.490526      33.258789      22274.434      6632.0851      4561.9843      1588.2543     -1239.0741     -134.53378     -104.4117     
  81420000   250.38688     -408.26629     -324.40846     -408.26875      0              2325.1974      31.164         21.490526      33.209093      22241.151      1298.5849      1932.2194      3744.7877     -912.00775     -7.842338      -533.91921    
  81422000   263.80773     -406.66416     -318.31151     -406.66238      0              4865.5873      31.164         21.490526      33.316307      22312.955      4040.7759      6626.7484      3929.2376      697.89139      1667.8148      1125.3299    
  81424000   259.8768      -410.10965     -323.07352     -410.0686       0              3120.4409      31.164         21.490526      33.525655      22453.162      2647.9696      3039.5102      3673.843      -1253.9041      1348.7716     -536.09585    
  81426000   258.89323     -408.14305     -321.43634     -408.13187      0              3667.4231      31.164         21.490526      33.652914      22538.391      3953.2976      3333.6091      3715.3626     -894.57064     -1776.5524      871.27678    
  81428000   255.24438     -412.58122     -327.09655     -412.56216      0              2145.7392      31.164         21.490526      33.682043      22557.9        2041.0078      2414.1459      1982.0637     -173.87007     -11.753935     -1090.0827    
  81430000   253.06367     -406.25903     -321.50471     -406.26966      0              1443.8517      31.164         21.490526      33.798888      22636.154      1900.667       1083.5752      1347.313       1366.4678      815.68456      2712.0831    
  81432000   259.95378     -407.86749     -320.80558     -407.87984      0              3579.3092      31.164         21.490526      33.612568      22511.37       4969.5195      1830.3446      3938.0636      842.94894     -589.0318      -562.67265    
  81434000   263.70496     -410.40442     -322.08619     -410.37881      0              3251.3077      31.164         21.490526      33.495536      22432.991      5663.1288      3162.8918      927.90242      1097.9511     -120.19485     -2279.8254    
  81436000   259.04056     -409.80481     -323.04875     -409.78896      0              2915.1933      31.164         21.490526      33.444103      22398.544      2957.9155      3599.5265      2188.1378      4.7367923      114.15365     -1131.7995    
  81438000   267.44734     -407.32494     -317.75334     -407.34098      0              3608.1382      31.164         21.490526      33.488958      22428.585      2671.3409      5106.6873      3046.3863      219.1932       720.56067      175.39034    
  81440000   259.34908     -408.82202     -321.96263     -408.80341      0              2917.738       31.164         21.490526      33.457072      22407.23       2682.5974      3570.7891      2499.8275      615.9481      -1145.7723      743.46829    
  81442000   258.64424     -409.65014     -323.02681     -409.64901      0              2847.5918      31.164         21.490526      33.493807      22431.832      4679.0065      934.367        2929.4019      4.4929973     -729.45873      238.23656    
  81444000   262.67302     -408.7386      -320.76598     -408.72449      0              1409.2849      31.164         21.490526      33.360748      22342.719      3375.71       -249.13767      1101.2825     -128.39731      131.42178      92.462576    
  81446000   260.17553     -409.92738     -322.7912      -409.92568      0              3988.5918      31.164         21.490526      33.354784      22338.725      2171.0817      4762.979       5031.7147      508.1619       385.66788      507.56035    
  81448000   268.18743     -410.51233     -320.69286     -410.48128      0              1313.5169      31.164         21.490526      33.420006      22382.406      1746.3348      486.25111      1707.9648      1094.2106      442.66939      1908.5966    
  81450000   256.59556     -408.86466     -322.92747     -408.82333      0              1878.6519      31.164         21.490526      33.507154      22440.771      1166.0215      2915.047       1554.8871     -1357.2967      1215.6246      297.39988    
  81452000   258.50761     -408.47885     -321.90129     -408.46251      0              1805.4688      31.164         21.490526      33.436359      22393.358      1328.8991      2396.1869      1691.3206     -1508.2635      1043.2669      770.2777     
  81454000   261.85277     -407.26073     -319.56282     -407.23692      0              3048.5412      31.164         21.490526      33.460622      22409.608      3146.4958      4787.8822      1211.2456     -62.865423     -636.52322      416.46853    
  81456000   258.42814     -412.2222      -325.67125     -412.18075      0              4027.5299      31.164         21.490526      33.406451      22373.328      3265.4225      4039.745       4777.4221      1256.7485     -102.82411      1569.4492    
  81458000   261.97166     -408.37102     -320.6333      -408.35455      0              2683.4454      31.164         21.490526      33.514384      22445.614      3563.1477      687.64818      3799.5402     -796.41699      521.68096     -606.99239    
  81460000   256.78836     -411.53958     -325.53781     -411.50931      0              2931.7953      31.164         21.490526      33.501585      22437.042      1888.0812      3809.5569      3097.7478      1123.106       820.5725      -359.3065     
  81462000   259.45474     -408.33061     -321.43584     -408.28581      0              5830.0372      31.164         21.490526      33.629511      22522.717      6064.4659      4882.5687      6543.077      -1489.0595      416.66377      1204.6524    
  81464000   257.19232     -409.3125      -323.17544     -409.27989      0              1796.782       31.164         21.490526      33.79201       22631.548      1371.0041      1220.0328      2799.3092      912.42672     -618.1118      -1129.4101    
  81466000   261.04553     -410.77737     -323.34982     -410.72428      0              797.6054       31.164         21.490526      33.54476       22465.958      682.46142      1998.3733     -288.01853     -2137.6291      279.63792     -760.37132    
  81468000   253.83225     -409.56358     -324.55186     -409.51963      0              2500.0887      31.164         21.490526      33.548872      22468.711      2712.4957      2138.7754      2648.995      -642.55409     -26.383719      1732.8767    
  81470000   257.25212     -410.81857     -324.66149     -410.78408      0              5310.3994      31.164         21.490526      33.456962      22407.157      5261.9378      5794.9978      4874.2625      582.15602     -531.91192      43.800059    
  81472000   259.40398     -407.91258     -321.0348      -407.87281      0              2294.6985      31.164         21.490526      33.325765      22319.29       2411.7985      1984.432       2487.8649     -253.39557      580.01138     -1032.556     
  81474000   259.29013     -411.00149     -324.16185     -410.95467      0              2399.6474      31.164         21.490526      33.20326       22237.244      1413.4754      4439.5728      1345.894       785.73068      604.54526      1848.3186    
  81476000   260.46207     -410.46004     -323.2279      -410.42794      0              3520.4808      31.164         21.490526      33.192485      22230.028      3521.5667      2656.2881      4383.5877     -387.14327      397.44074      949.31843    
  81478000   254.94628     -410.09844     -324.71361     -410.06233      0              2198.7186      31.164         21.490526      33.43237       22390.686      2381.3002      1537.2883      2677.5672      948.28779     -663.14817      433.23812    
  81480000   259.47889     -405.54621     -318.64335     -405.51966      0              3004.9978      31.164         21.490526      33.448862      22401.732      3497.2043      2772.9225      2744.8665     -301.45263      993.21347     -235.96164    
  81482000   259.73154     -406.43924     -319.45177     -406.42439      0              1992.8532      31.164         21.490526      33.373045      22350.955      1813.4954      1307.9427      2857.1214     -413.2075      -831.64358     -1019.8493    
  81484000   257.42237     -406.44873     -320.23462     -406.44205      0              4964.6332      31.164         21.490526      33.544613      22465.859      6009.2531      3567.8579      5316.7887      152.60612      197.94985     -1182.2945    
  81486000   259.5793      -407.19507     -320.25858     -407.20821      0              797.67583      31.164         21.490526      33.450999      22403.163      1926.7675     -1350.2998      1816.5598     -863.4555       1446.1794     -1400.6984    
  81488000   262.56378     -407.43538     -319.49935     -407.46212      0              6147.9835      31.164         21.490526      33.307314      22306.932      6798.6885      5564.5322      6080.7297     -204.27279      160.06523      1406.8656    
  81490000   260.82683     -408.45503     -321.10073     -408.4126       0              2431.949       31.164         21.490526      33.29339       22297.607      2951.0942      929.46626      3415.2867      2047.8505     -56.486191     -991.47287    
  81492000   252.65223     -411.81011     -327.19358     -411.78974      0              4655.0467      31.164         21.490526      33.293032      22297.367      4518.7052      3487.5323      5958.9027      920.78182     -70.120467     -812.54712    
  81494000   251.61828     -410.34628     -326.07604     -410.31149      0              2364.7002      31.164         21.490526      33.315607      22312.487      2029.9729      2621.2781      2442.8495     -544.6357      -659.84943      481.42067    
  81496000   256.58455     -408.14453     -322.21102     -408.12192      0              4956.1554      31.164         21.490526      33.260446      22275.543      4447.2376      5018.8255      5402.4031     -279.51466      2842.6102     -712.19281    
  81498000   264.69774     -412.7854      -324.13468     -412.74727      0              1438.0784      31.164         21.490526      33.502999      22437.989     -185.7438       2796.3549      1703.6242      798.98896     -416.33927      10.651411    
  81500000   266.67937     -411.37279     -322.05839     -411.3461       0              2979.7959      31.164         21.490526      33.337273      22326.997      4417.7231      1379.1694      3142.4952      719.0245       497.1909      -565.56903    
  81502000   260.21285     -406.97072     -319.82205     -406.97151      0              2072.4093      31.164         21.490526      33.190814      22228.909      2553.5225      953.70052      2710.0049      1301.3171      1130.767      -288.01606    
  81504000   250.97122     -410.884       -326.83046     -410.84329      0              3201.7081      31.164         21.490526      33.337237      22326.973      1876.4391      2036.7623      5691.923      -966.09907      1039.0575      229.59581    
  81506000   265.29445     -408.66982     -319.81926     -408.64187      0              2797.4237      31.164         21.490526      33.437758      22394.295      2025.0621      3153.8007      3213.4082      85.519962      312.20044     -553.71168    
  81508000   265.63445     -411.56573     -322.60129     -411.55503      0              2699.9838      31.164         21.490526      33.54709       22467.518      1235.2636      3855.4285      3009.2593      915.44151      929.95121     -918.84671    
  81510000   260.08773     -409.3913      -322.28453     -409.38354      0              191.40102      31.164         21.490526      33.570407      22483.134      2711.8884     -2476.3262      338.64078      483.79065      636.07818      1610.8237    
  81512000   261.9097      -409.05829     -321.34132     -409.04311      0              1610.163       31.164         21.490526      33.602646      22504.725      1260.9774      115.4293       3454.0825      141.88295     -1289.0114      536.25551    
  81514000   263.63773     -410.9695      -322.67378     -410.94664      0              3878.1598      31.164         21.490526      33.591549      22497.294      2890.733       3262.0318      5481.7146     -620.22199      1102.1913     -368.56081    
  81516000   256.48604     -406.66075     -320.76024     -406.66204      0              2335.6567      31.164         21.490526      33.621382      22517.273      2421.7312      3084.7337      1500.5053     -1026.2297      544.16118     -1016.6279    
  81518000   265.76998     -409.49045     -320.48062     -409.44893      0              1565.4425      31.164         21.490526      33.714061      22579.344      2716.872       1196.3685      783.08688      126.37664      1053.3819     -457.14147    
  81520000   259.40716     -405.11205     -318.23321     -405.08948      0              3347.9628      31.164         21.490526      33.487547      22427.64       4449.3351      3091.1041      2503.4492     -1578.2012     -652.96095      163.80161    
  81522000   265.09889     -409.43944     -320.65437     -409.43036      0              3770.8772      31.164         21.490526      33.284883      22291.909      3384.2805      4662.5271      3265.8238      515.71417     -307.13694      850.2533     
  81524000   257.99492     -409.43424     -323.02837     -409.4412       0              4053.6405      31.164         21.490526      33.687467      22561.533      5042.9642      5132.1399      1985.8172      757.57102     -1608.3893      392.01417    
  81526000   255.68665     -407.64042     -322.00763     -407.64459      0              1488.8413      31.164         21.490526      33.562884      22478.095      4883.1451     -1264.1198      847.49845     -171.13759     -394.83218      1411.5891    
  81528000   257.95229     -409.15083     -322.75924     -409.1489       0              2307.3977      31.164         21.490526      33.589734      22496.078      1184.5804      1286.155       4451.4577     -1108.8611      161.83775      483.84528    
  81530000   260.30045     -406.62001     -319.442       -406.60147      0              2728.52        31.164         21.490526      33.651426      22537.395      1024.3196      3924.0985      3237.1418     -700.91855      1000.306       93.826047    
  81532000   261.54876     -404.79673     -317.20064     -404.78305      0              2313.4636      31.164         21.490526      33.681298      22557.401     -203.49059      3030.6941      4113.1872      1432.9491      1073.0298      1333.0066    
  81534000   264.7153      -404.31491     -315.6583      -404.32155      0              3014.7625      31.164         21.490526      33.802658      22638.679      2305.5347      2861.8068      3876.9461     -908.86777     -1213.5224     -1064.0599    
  81536000   262.30587     -405.9387      -318.08905     -405.93078      0              2899.4506      31.164         21.490526      33.440885      22396.389      3424.7618      2457.0189      2816.571       228.79571     -1511.9628      1126.7591    
  81538000   261.61151     -409.55915     -321.94204     -409.55421      0              2893.4908      31.164         21.490526      33.512314      22444.227      764.2827       3529.137       4387.0525     -314.80639      1833.9853      2016.9749    
  81540000   260.99986     -403.01756     -315.60531     -403.00617      0              3822.8844      31.164         21.490526      33.394671      22365.438      3059.1565      3339.378       5070.1188      1039.4908      150.86315      987.02398    
  81542000   257.85972     -407.67563     -321.31505     -407.64067      0              2617.1101      31.164         21.490526      33.34319       22330.96       3308.8659      1752.1395      2790.3248     -399.49197      1381.0373     -1492.961     
  81544000   260.49328     -406.90369     -319.6611      -406.90581      0              4360.2843      31.164         21.490526      33.489734      22429.105      4093.555       5725.5325      3261.7655     -826.36305     -664.61848      692.27024    
  81546000   263.38785     -409.57602     -321.364       -409.57979      0              2517.3444      31.164         21.490526      33.703504      22572.273      2463.7296      3889.6282      1198.6754     -434.48926      979.68989      596.35016    
  81548000   253.63136     -408.34994     -323.40549     -408.39311      0              3679.7553      31.164         21.490526      33.598365      22501.858      4357.8858      3664.0395      3017.3406      1194.1512      1107.0215     -1418.33      
  81550000   257.36246     -408.50291     -322.30887     -408.50348      0              1725.7443      31.164         21.490526      33.656259      22540.632      9.628935       946.98025      4220.6238      146.48634      385.61469      1623.3601    
  81552000   269.01577     -406.81133     -316.71444     -406.80679      0              3827.9503      31.164         21.490526      33.552292      22471.002      4068.2325      3442.9437      3972.6748      351.38544     -793.848       -1081.1569    
  81554000   252.90745     -405.05509     -320.35309     -405.06784      0              779.74101      31.164         21.490526      33.349175      22334.968     -520.44677      859.95773      1999.7121      412.54252      356.51015     -1401.8998    
  81556000   263.17797     -406.00815     -317.86641     -405.97627      0              2403.8564      31.164         21.490526      33.457694      22407.647      2178.5924      1432.9999      3599.977      -1019.9316      1748.7706     -569.91869    
  81558000   254.96629     -408.62488     -323.23335     -408.58935      0              3268.8048      31.164         21.490526      33.47562       22419.652      4355.0598      3221.4738      2229.8809     -241.49984     -163.62888     -2412.567     
  81560000   258.9853      -410.18101     -323.44346     -410.14527      0              3082.6862      31.164         21.490526      33.566993      22480.848      2495.8069      3789.6899      2962.5619      700.58712      57.459016      587.87147    
  81562000   262.29424     -406.64341     -318.79765     -406.63838      0              1466.4694      31.164         21.490526      33.624559      22519.401     -340.74359      3740.0083      1000.1436     -1284.7077      283.23616      724.29605    
  81564000   263.953       -407.5718      -319.1705      -407.57016      0              2843.7536      31.164         21.490526      33.485479      22426.255      1000.1174      4409.9338      3121.2094     -198.18696      1621.2607      1151.5687    
  81566000   258.94181     -406.06837     -319.34539     -406.03912      0              3395.8936      31.164         21.490526      33.363677      22344.681      3743.1761      2310.7006      4133.804       1547.7051      685.82038     -143.64443    
  81568000   266.57566     -406.87847     -317.59881     -406.86081      0              3974.4264      31.164         21.490526      33.282945      22290.612      3989.1203      4821.5736      3112.5853      1037.4549     -514.51674     -1761.9009    
  81570000   264.28511     -407.34433     -318.8318      -407.31815      0              4204.3834      31.164         21.490526      33.325201      22318.912      5661.2356      4126.0744      2825.8403     -457.10649      141.22498      710.74145    
  81572000   258.1595      -404.20314     -317.74216     -404.17468      0              2309.9966      31.164         21.490526      33.394365      22365.233      1218.7446      3912.8462      1798.399       904.79771     -97.02189       972.48516    
  81574000   260.44839     -406.91308     -319.68551     -406.89214      0              3924.3449      31.164         21.490526      33.343227      22330.985      4881.5016      2781.8409      4109.6924     -271.15104      661.75164      239.72296    
  81576000   256.7561      -408.23264     -322.24168     -408.24301      0              2191.386       31.164         21.490526      33.501293      22436.846      3248.7517      1365.3852      1960.0212      147.11096      256.89143     -36.845701    
  81578000   264.79248     -407.59637     -318.91392     -407.6093       0              2916.5001      31.164         21.490526      33.504592      22439.055      1511.0097      5052.524       2185.9667     -664.5173       1040.8989     -468.26578    
  81580000   265.0422      -407.35809     -318.592       -407.35792      0              2676.3808      31.164         21.490526      33.477824      22421.128      2329.5508      2541.9749      3157.6168     -847.38167     -516.17243      170.67944    
  81582000   255.73125     -408.68162     -323.03389     -408.69557      0              1332.0899      31.164         21.490526      33.523685      22451.843      2466.1688      1718.3093     -188.20828     -458.84474     -418.49672      367.51166    
  81584000   266.07484     -406.94624     -317.83431     -406.96119      0              837.04654      31.164         21.490526      33.528414      22455.01       735.01204      461.506        1314.6216      963.86064     -773.52956     -413.89797    
  81586000   256.45894     -409.25319     -323.36175     -409.2488       0              4051.6436      31.164         21.490526      33.396509      22366.669      4318.6489      1779.9594      6056.3225      186.17385     -1065.1292      1654.7841    
  81588000   252.72826     -407.14965     -322.50766     -407.15365      0              1614.2218      31.164         21.490526      33.4537        22404.972      1345.7096      2557.4694      939.48619      844.60299      125.68902     -177.3654     
  81590000   260.92177     -408.26675     -320.88064     -408.25885      0              5405.2789      31.164         21.490526      33.311696      22309.868      5610.6628      3540.9812      7064.1926     -2170.5322     -558.02132      10.991114    
  81592000   263.48344     -410.63097     -322.38693     -410.57461      0              4537.9864      31.164         21.490526      33.303375      22304.294      5901.0854      2671.5681      5041.3056     -402.61355      1146.8484      240.05842    
  81594000   264.85175     -409.74276     -321.04045     -409.69637      0              3315.9854      31.164         21.490526      33.438661      22394.9        3252.0788      5487.5684      1208.3091      661.60679      815.19332      430.90807    
  81596000   263.66419     -407.99381     -319.68923     -408.00887      0              1993.004       31.164         21.490526      33.580939      22490.187      3079.5855      1162.8227      1736.6038     -325.73472     -314.77781     -960.73793    
  81598000   258.39939     -406.99853     -320.45721     -407.00956      0              6666.6475      31.164         21.490526      33.605508      22506.642      6791.8733      5281.2614      7926.8077     -235.76658      1483.489       540.56628    
  81600000   264.63921     -407.87686     -319.24574     -407.87379      0              3704.457       31.164         21.490526      33.52794       22454.693      1683.1303      4364.7255      5065.515      -281.7973       764.64467     -650.80826    
  81602000   258.12235     -407.97873     -321.53019     -407.98384      0              2340.634       31.164         21.490526      33.494794      22432.494      1418.1164      2638.7736      2965.0121     -663.62296     -332.24734      894.30526    
  81604000   264.29229     -409.9746      -321.45967     -409.99126      0              2358.6131      31.164         21.490526      33.636046      22527.094      2902.2478      2322.228       1851.3636     -826.47555     -684.19696     -306.67989    
  81606000   261.09484     -408.12375     -320.67969     -408.13315      0              2863.0989      31.164         21.490526      33.363014      22344.237      587.59195      5111.1865      2890.5182      799.44376     -940.79547     -969.26362    
  81608000   259.05974     -404.62669     -317.8642      -404.63981      0              3359.8809      31.164         21.490526      33.567241      22481.013      3609.8883      2347.1312      4122.6232     -1964.6624      701.99208     -266.20935    
  81610000   260.3489      -407.94926     -320.75502     -407.92565      0              3964.139       31.164         21.490526      33.32723       22320.271      3389.1033      2453.2566      6050.057       15.18048      -513.57394      1075.1526    
  81612000   258.69808     -405.45371     -318.81235     -405.41842      0              2916.6167      31.164         21.490526      33.262967      22277.232      2999.5666      2385.4575      3364.826       547.30236      107.64353     -350.66808    
  81614000   261.04117     -404.27228     -316.84619     -404.28378      0              3447.1785      31.164         21.490526      33.430572      22389.482      2292.5528      3693.6639      4355.3189     -204.65098      674.82298     -1063.1983    
  81616000   257.82338     -406.61309     -320.26467     -406.62164      0              1820.6584      31.164         21.490526      33.465621      22412.956     -194.58843      2573.725       3082.8386      1030.1017      550.8843       864.48583    
  81618000   259.38632     -406.59235     -319.72049     -406.59214      0              4616.218       31.164         21.490526      33.174825      22218.201      2647.3727      5847.435       5353.8464      413.3888       529.60773      629.24168    
  81620000   257.3422      -407.13693     -320.94968     -407.16155      0              3082.2495      31.164         21.490526      33.454586      22405.565      1682.7802      2591.6559      4972.3123      706.65357      363.88763      1139.296     
  81622000   262.52007     -406.16115     -318.23976     -406.17243      0              1752.6537      31.164         21.490526      33.577325      22487.767      1213.2832      3307.6402      737.03784     -305.46126     -189.26744      1591.321     
  81624000   259.86016     -409.90253     -322.87197     -409.89484      0              2848.6572      31.164         21.490526      33.421099      22383.138      1715.18        2134.4441      4696.3474     -223.64987      1207.594       230.06644    
  81626000   260.60122     -407.22121     -319.94246     -407.18465      0              3226.5263      31.164         21.490526      33.127065      22186.214      1543.0979      3238.9832      4897.4977     -543.47891      201.00837     -481.92674    
  81628000   263.71325     -405.89437     -317.57337     -405.90432      0              3948.9416      31.164         21.490526      33.22763       22253.566      3483.5845      3592.0524      4771.1878     -1369.9486      28.732629      1313.2665    
  81630000   263.30512     -406.90748     -318.72316     -406.89172      0              3628.1746      31.164         21.490526      33.115973      22178.785      3160.8737      3654.2802      4069.3698      1612.3799      502.33937     -271.67385    
  81632000   260.01801     -407.89319     -320.80977     -407.90684      0              4194.3171      31.164         21.490526      33.134225      22191.009      3595.7668      1923.5597      7063.6247      416.49683      1448.1646      1779.0169    
  81634000   262.47042     -408.4673      -320.56254     -408.45034      0              2516.8729      31.164         21.490526      33.309273      22308.244      3142.0279      2599.5752      1809.0156      30.600596     -127.04046      656.09471    
  81636000   252.80816     -406.36259     -321.69384     -406.34284      0              4840.9347      31.164         21.490526      33.168395      22213.894      4922.8784      5205.163       4394.7629      217.44318     -697.66114      489.60815    
  81638000   263.62977     -410.93639     -322.64334     -410.93993      0              3471.6264      31.164         21.490526      33.177852      22220.228      1590.5092      3483.2685      5341.1014     -252.12238     -410.84636      206.9653     
  81640000   260.03725     -406.33584     -319.24597     -406.30645      0              3492.3707      31.164         21.490526      33.328577      22321.173      2036.6249      3217.717       5222.7701      1485.4137     -819.37238      448.73096    
  81642000   255.96454     -409.74548     -324.01962     -409.74265      0              3265.4642      31.164         21.490526      33.348331      22334.403      5028.0891      2752.6958      2015.6078      252.38797     -1158.5895     -107.18736    
  81644000   257.60553     -405.51933     -319.24388     -405.53475      0              4141.3321      31.164         21.490526      33.624111      22519.101      3366.686       5384.007       3673.3032      999.43705      386.7751       254.02785    
  81646000   261.09993     -407.29363     -319.84785     -407.30485      0              2472.6607      31.164         21.490526      33.493815      22431.838      1666.6421      4278.5229      1472.817       414.65203      270.46848     -305.53532    
  81648000   256.2208      -405.42179     -319.6101      -405.42993      0              4567.4918      31.164         21.490526      33.79908       22636.283      4913.8274      5979.0609      2809.5872      642.1976       853.14804     -2595.0831    
  81650000   253.03339     -404.44397     -319.69979     -404.44529      0              2437.248       31.164         21.490526      33.545338      22466.344      4088.3029      1806.6007      1416.8404     -948.77122      1882.1744     -159.22804    
  81652000   267.97524     -409.88877     -320.14037     -409.87367      0              3076.5739      31.164         21.490526      33.39649       22366.656      2424.3127      2959.132       3846.277       168.66664      737.21998      1040.8152    
  81654000   265.0295      -408.22735     -319.46552     -408.21573      0              3745.7328      31.164         21.490526      33.401577      22370.064      3551.2405      3032.2186      4653.7393     -190.25153      655.85336      253.99977    
  81656000   255.40747     -407.43854     -321.89924     -407.44662      0              3249.8229      31.164         21.490526      33.541206      22463.577      1814.556       5147.943       2786.9698     -1359.5687     -1024.496       674.21488    
  81658000   257.47049     -406.16759     -319.93736     -406.15735      0              3150.7111      31.164         21.490526      33.630511      22523.387      2529.0882      4230.9525      2692.0925      406.78171      302.31371     -202.80034    
  81660000   253.45528     -408.67993     -323.79445     -408.69371      0              2176.3192      31.164         21.490526      33.627401      22521.305      2313.1071      983.64763      3232.2029      1080.2351     -952.47077      260.83051    
  81662000   249.80495     -409.9898      -326.32687     -409.97355      0              2669.9004      31.164         21.490526      33.839541      22663.382      3711.8239      1695.2332      2602.644      -379.17447      146.558        238.52652    
  81664000   261.24597     -407.62602     -320.13134     -407.64246      0              939.98908      31.164         21.490526      33.706928      22574.566      689.45274      1411.9808      718.53369     -14.466695      2518.1045      803.10085    
  81666000   260.0607      -411.41442     -324.3167      -411.42857      0              3209.7706      31.164         21.490526      33.428176      22387.878      1775.4381      4414.8429      3439.0309     -822.68878     -1121.2818     -1330.0657    
  81668000   259.71248     -408.61293     -321.63183     -408.59949      0              4753.3072      31.164         21.490526      33.583373      22491.818      4866.1169      3506.1314      5887.6733     -171.3014       473.37237      16.44282     
  81670000   256.47909     -407.56346     -321.66527     -407.55384      0              3400.5028      31.164         21.490526      33.486104      22426.674      3512.3656      3433.3437      3255.7991     -757.60492      901.10533     -1166.6633    
  81672000   265.48033     -407.02782     -318.11499     -407.05385      0              4014.9484      31.164         21.490526      33.636371      22527.312      3129.0499      4164.7184      4751.0767     -1090.5887     -412.97084      614.26319    
  81674000   260.21907     -411.33605     -324.1853      -411.33104      0              4463.3102      31.164         21.490526      33.329421      22321.738      5119.791       2933.9729      5336.1669     -612.3158      -169.16095      569.1358     
  81676000   256.20171     -407.58067     -321.77538     -407.58628      0              3461.0858      31.164         21.490526      33.388983      22361.628      4971.4971      2049.3598      3362.4004     -2669.3946     -1511.7189     -950.932      
  81678000   254.17941     -409.52845     -324.40046     -409.5544       0              2803.5128      31.164         21.490526      33.55047       22469.782      2614.2406      4178.1536      1618.1444     -712.53352      65.165467     -1242.1451    
  81680000   261.67645     -410.00182     -322.36297     -409.98989      0              4063.0078      31.164         21.490526      33.582231      22491.053      2794.1948      4575.7853      4819.0434     -416.82199     -540.94766      1500.9916    
  81682000   255.37577     -404.91856     -319.38989     -404.93052      0              2778.172       31.164         21.490526      33.563867      22478.754      3723.9424      2090.6628      2519.9106      516.29467      177.66119     -983.62906    
  81684000   256.22726     -406.6452      -320.83135     -406.65627      0              1775.6675      31.164         21.490526      33.824658      22653.413      812.71683      3028.3095      1485.9764     -184.47609      1135.8307     -310.40605    
  81686000   255.15355     -408.47906     -323.02481     -408.48134      0              2147.0032      31.164         21.490526      33.718412      22582.257      2573.2032      2253.9521      1613.8544     -1750.1209      842.81716     -394.17575    
  81688000   254.56608     -411.66039     -326.40289     -411.66261      0              783.64729      31.164         21.490526      33.663463      22545.457      677.41488      439.19006      1234.3369      528.95297     -420.76291      383.11547    
  81690000   263.28279     -408.7611      -320.58426     -408.76061      0              3842.7535      31.164         21.490526      33.543411      22465.054      3194.6933      3536.2174      4797.3497      616.3394       31.353944     -262.46691    
  81692000   255.14374     -405.87388     -320.42292     -405.87622      0              3440.9447      31.164         21.490526      33.324027      22318.126      2097.2134      3208.5985      5017.0221     -1899.0306      262.75945      101.64355    
  81694000   259.39291     -408.001       -321.12694     -407.99255      0              4267.0853      31.164         21.490526      33.278548      22287.667      3048.6126      4518.5418      5234.1016      564.45852      527.32347     -142.21273    
  81696000   257.4937      -407.41481     -321.17682     -407.43065      0              4429.5247      31.164         21.490526      33.426842      22386.984      5796.3792      2509.3112      4982.8837     -1943.2268     -1478.3616      350.55299    
  81698000   264.67706     -405.90876     -317.26496     -405.89833      0              4365.1135      31.164         21.490526      33.226978      22253.129      4652.7579      5038.7128      3403.8699     -233.42593     -695.991       -51.41362     
  81700000   264.63116     -406.36023     -317.7318      -406.38684      0              3392.1489      31.164         21.490526      33.343687      22331.293      3044.3024      4012.1668      3119.9776      278.35678     -50.115977     -1994.5324    
  81702000   250.64452     -409.70356     -325.75944     -409.71541      0              5604.4206      31.164         21.490526      33.488878      22428.531      6535.5296      4403.0985      5874.6336      1012.6139     -841.45017     -345.00731    
  81704000   257.33157     -410.52916     -324.34546     -410.54064      0              3885.0829      31.164         21.490526      33.576339      22487.107      4406.4297      2712.8837      4535.9354     -879.35384     -715.56923     -249.21038    
  81706000   256.03833     -406.19961     -320.44903     -406.21936      0              3533.5423      31.164         21.490526      33.599462      22502.593      3354.648       3414.6239      3831.3548      203.16547     -25.979799     -561.09914    
  81708000   265.71188     -406.99147     -318.0011      -406.9765       0              3840.0727      31.164         21.490526      33.568114      22481.598      3349.4039      3100.6994      5070.1147     -392.92537      522.52491      944.24841    
  81710000   255.5277      -405.54846     -319.9689      -405.53363      0              2982.7494      31.164         21.490526      33.575941      22486.84       791.75542      3938.0939      4218.3988      270.31611      826.60839     -1166.2629    
  81712000   264.61401     -407.84051     -319.21782     -407.86689      0              2667.3105      31.164         21.490526      33.570539      22483.222      2553.0939      3849.277       1599.5607      466.76573      184.01533     -367.81367    
  81714000   262.70181     -408.8604      -320.87814     -408.90442      0              2164.9904      31.164         21.490526      33.53032       22456.286      2345.0104      872.71467      3277.2463     -237.63457      267.21217      544.9266     
  81716000   254.10333     -407.59224     -322.48972     -407.6013       0              3969.3056      31.164         21.490526      33.472998      22417.896      4955.9968      4182.4556      2769.4646     -403.84756      647.61919     -10.439547    
  81718000   261.29484     -408.42123     -320.91018     -408.42213      0              3816.588       31.164         21.490526      33.730653      22590.456      3794.9888      3671.9232      3982.8521     -1030.9845     -1129.187      -170.30185    
  81720000   255.89738     -408.07757     -322.3742      -408.09011      0              3479.2934      31.164         21.490526      33.63316       22525.162      3539.0982      3602.8332      3295.9489     -144.90805      360.00296     -1243.7226    
  81722000   258.4354      -407.91808     -321.3647      -407.95307      0              1525.4065      31.164         21.490526      33.675161      22553.291      142.11069      3979.7242      454.3846      -696.95918      2068.9596     -991.50119    
  81724000   251.79867     -408.17266     -323.84201     -408.16761      0              706.27702      31.164         21.490526      33.448095      22401.218      715.93597     -61.62573       1464.5208      2133.3217      799.23869     -85.44324     
  81726000   256.82609     -408.01968     -322.00528     -408.02036      0              1305.1515      31.164         21.490526      33.371118      22349.664      520.29355      2350.9711      1044.19        631.789        513.81996     -307.3214     
  81728000   263.35008     -406.18958     -317.9902      -406.16966      0              2532.1016      31.164         21.490526      33.405006      22372.36       2939.3897      2746.315       1910.6002      1032.6893     -125.85086     -105.36275    
  81730000   262.01696     -412.62102     -324.86813     -412.63179      0              2204.1338      31.164         21.490526      33.479643      22422.346      2645.5997      2187.6553      1779.1465      656.31645     -612.48084      396.56359    
  81732000   264.66187     -409.97219     -321.33348     -409.97853      0              2996.216       31.164         21.490526      33.478056      22421.284      1569.0996      3707.8524      3711.6959      1868.9352      1346.3317     -87.622166    
  81734000   254.80267     -406.99586     -321.65913     -407.00778      0              1169.8507      31.164         21.490526      33.723368      22585.577      56.325211      1083.3782      2369.8487     -403.95274      588.62631      325.65128    
  81736000   262.30114     -407.22072     -319.37265     -407.20202      0              2016.1648      31.164         21.490526      33.423423      22384.694      1225.5392      1809.4391      3013.5161      678.12098     -688.63545     -5.8454334    
  81738000   254.76793     -408.60841     -323.28331     -408.61801      0              4295.6119      31.164         21.490526      33.419757      22382.239      5314.2428      3726.9548      3845.6381     -150.19445     -564.85763     -679.94971    
  81740000   252.77046     -407.84088     -323.18476     -407.84645      0              2203.3544      31.164         21.490526      33.425864      22386.329      2012.3444      2844.2907      1753.4281      1235.2046     -711.21915     -402.08324    
  81742000   253.34184     -406.36736     -321.51988     -406.36903      0              3324.2992      31.164         21.490526      33.39288       22364.239      2817.6824      4969.9797      2185.2356      653.58041      1555.1953      264.08715    
  81744000   260.96115     -405.58072     -318.18144     -405.57911      0              3712.708       31.164         21.490526      33.153081      22203.638      4149.9881      5250.4306      1737.7054     -13.082062     -120.34226      1284.9913    
  81746000   253.39131     -409.32463     -324.46058     -409.28335      0              2459.4062      31.164         21.490526      33.359395      22341.813      2507.4688      1946.2933      2924.4565     -965.9333       62.37765       291.28253    
  81748000   255.08792     -408.66857     -323.2363      -408.64424      0              2970.7833      31.164         21.490526      33.273012      22283.959      3408.6783      2832.0359      2671.6357      10.985028     -520.19382     -634.15856    
  81750000   264.62459     -408.21772     -319.5915      -408.21641      0              5352.3942      31.164         21.490526      33.313825      22311.293      5565.5228      6441.9877      4049.672       892.67679     -251.52151     -1059.6272    
  81752000   256.28834     -404.66369     -318.82938     -404.65922      0              3722.2328      31.164         21.490526      33.336585      22326.536      5145.2114      3666.0483      2355.4387     -744.54272     -2502.2015     -1645.7224    
  81754000   258.47547     -407.87269     -321.30589     -407.83278      0              2793.8201      31.164         21.490526      33.355971      22339.52       2030.3303      2081.9231      4269.2069      602.10406      1389.5358     -1363.4207    
  81756000   265.49169     -405.66821     -316.75159     -405.64996      0              4976.3889      31.164         21.490526      33.363122      22344.309      5826.8104      4873.9808      4228.3755      374.82476      1033.7504     -327.93967    
  81758000   266.01018     -408.93579     -319.84551     -408.94146      0              3665.1265      31.164         21.490526      33.427263      22387.266      4466.1938      2996.8954      3532.2904     -272.78263     -1471.2295      2493.9211    
  81760000   257.34196     -406.246       -320.05883     -406.28061      0              2944.3013      31.164         21.490526      33.46626       22413.383      3385.8733      4135.1642      1311.8664      759.07242      230.40346     -2336.1034    
  81762000   255.19929     -405.86425     -320.39468     -405.86063      0              1630.9494      31.164         21.490526      33.461034      22409.884      874.09766      3310.7991      707.95138     -1114.5092      462.0193      -1276.7768    
  81764000   253.30717     -405.25006     -320.41419     -405.23768      0              3099.3995      31.164         21.490526      33.372938      22350.883      4080.9459      2704.1083      2513.1442     -519.18751     -461.34344     -1174.498     
  81766000   252.81709     -406.37039     -321.69865     -406.35242      0              4326.0233      31.164         21.490526      33.292095      22296.74       3595.987       3810.998       5571.0851      361.85649      603.9741      -664.96965    
  81768000   259.18565     -408.83029     -322.02564     -408.83183      0              3723.3257      31.164         21.490526      33.386887      22360.225      3908.1927      4243.4065      3018.3778      1261.5697     -455.42435      195.16392    
  81770000   257.40079     -411.22172     -325.01484     -411.16881      0              2633.3088      31.164         21.490526      33.209819      22241.637      1625.8827      4043.5691      2230.4746      81.901558      1681.4948      945.34722    
  81772000   260.20953     -410.19219     -323.04463     -410.1528       0              2733.8153      31.164         21.490526      33.321415      22316.376      1931.9413      3994.5247      2274.9797      1002.5881     -891.55895     -103.51308    
  81774000   258.6484      -405.90154     -319.27682     -405.91015      0              1918.4132      31.164         21.490526      33.432969      22391.088      4062.9781      100.55957      1591.702      -575.67035     -366.52342     -877.53284    
  81776000   256.46077     -408.64497     -322.75291     -408.66252      0              3503.6142      31.164         21.490526      33.514596      22445.755      3898.9031      3541.7269      3070.2125     -45.050577      547.46918      172.0927     
  81778000   261.8187      -409.46091     -321.77441     -409.45534      0              8.862102       31.164         21.490526      33.621127      22517.103     -328.03395      604.37974     -249.75949      281.87401      201.5431      -464.50943    
  81780000   262.07477     -406.05005     -318.27779     -406.03754      0              5048.5918      31.164         21.490526      33.38014       22355.706      4677.6699      6454.9006      4013.2049      192.10777     -343.37129     -1549.6098    
  81782000   255.44949     -408.29776     -322.7444      -408.27309      0              1453.6358      31.164         21.490526      33.274314      22284.831      1318.4896      776.10207      2266.3156     -363.98699      1488.0525      883.1997     
  81784000   257.21862     -407.03721     -320.89134     -407.05378      0              3189.1649      31.164         21.490526      33.483503      22424.932      4367.4878      3721.1241      1478.8829     -277.62617      507.16721     -776.82514    
  81786000   253.61516     -408.14954     -323.21052     -408.13318      0              1306.8466      31.164         21.490526      33.516573      22447.08       1605.0292      1434.5322      880.97841      464.94924     -808.57046     -1368.5541    
  81788000   261.3024      -406.34978     -318.8362      -406.37182      0              1476.1565      31.164         21.490526      33.54297       22464.758      3987.0478      2272.5767     -1831.1549      487.1241       49.607097     -772.59897    
  81790000   263.64123     -405.59741     -317.30053     -405.6031       0              2961.3471      31.164         21.490526      33.404729      22372.174      477.39271      3649.3275      4757.3211     -247.42192      2095.7465     -596.2663     
  81792000   256.87824     -407.9003      -321.86843     -407.87136      0              3483.9517      31.164         21.490526      33.3489        22334.784      2900.9622      1500.2907      6050.6022      1543.5438      532.11821      1300.1298    
  81794000   261.152       -407.6163      -320.15309     -407.61167      0              2922.4255      31.164         21.490526      33.334913      22325.416      3493.7577      2722.0505      2551.4683      601.19298      132.35842     -1543.5035    
  81796000   254.81797     -407.06757     -321.72571     -407.07956      0              3191.5062      31.164         21.490526      33.430856      22389.672      3834.9529      2595.1567      3144.409      -325.41871     -438.27146     -34.848423    
  81798000   259.70481     -403.61164     -316.63311     -403.6007       0              3558.3237      31.164         21.490526      33.359263      22341.724      3177.6857      3142.8806      4354.4048     -244.28358     -394.18928      1735.509     
  81800000   263.7698      -408.03247     -319.69252     -408.0104       0              2332.2956      31.164         21.490526      33.364802      22345.434      2479.7306      2527.2134      1989.9427     -33.475152      212.21786      902.99107    
  81802000   265.154       -408.5661      -319.76257     -408.53336      0              2325.1053      31.164         21.490526      33.513385      22444.945      3806.2865      1933.8673      1235.1621      798.39331      17.094368      498.57208    
  81804000   254.80227     -407.91548     -322.57888     -407.90171      0              4455.4427      31.164         21.490526      33.489746      22429.113      3037.7761      6368.1301      3960.422       823.05894     -178.69485     -915.26911    
  81806000   260.69015     -404.50085     -317.19232     -404.47209      0              2492.7334      31.164         21.490526      33.506509      22440.34       3234.2836      1864.4821      2379.4344     -555.03772     -1721.0881      322.61154    
  81808000   255.90987     -405.21151     -319.50396     -405.1935       0              2379.8045      31.164         21.490526      33.430891      22389.696      3500.5975      484.71976      3154.0963     -11.683197      742.33848      997.96225    
  81810000   263.69956     -407.48602     -319.1696      -407.43923      0              4466.6536      31.164         21.490526      33.272864      22283.86       3389.4194      6320.1946      3690.347       455.05249      303.50635     -776.2944     
  81812000   261.97308     -407.26377     -319.52557     -407.22615      0              4582.5415      31.164         21.490526      33.237647      22260.275      5298.7624      5482.109       2966.7531     -1258.1988      1185.8149     -2017.8757    
  81814000   258.34281     -408.0169      -321.49452     -407.99669      0              2338.9184      31.164         21.490526      33.348316      22334.393      2523.5816      1422.7852      3070.3885      308.46012      47.466507     -48.97283     
  81816000   259.72798     -406.50959     -319.5233      -406.49371      0              2421.4986      31.164         21.490526      33.369861      22348.822      1749.0686      3316.2389      2199.1884     -929.68158      1717.8817      21.158541    
  81818000   257.7491      -408.19925     -321.87571     -408.17225      0              5284.0846      31.164         21.490526      33.384357      22358.531      3930.3301      4288.6941      7633.2298      1146.3918      1037.756      -440.66699    
  81820000   264.0481      -408.80292     -320.36976     -408.79474      0              4029.4688      31.164         21.490526      33.309969      22308.711      3283.0322      5029.9272      3775.4471     -14.005438      1485.3377      174.65867    
  81822000   246.01223     -409.49693     -327.10423     -409.44137      0              5795.2226      31.164         21.490526      33.384308      22358.498      6756.8203      4691.167       5937.6807      226.19673      459.92511     -665.81276    
  81824000   252.51393     -406.89756     -322.32735     -406.88207      0              3259.163       31.164         21.490526      33.653523      22538.799      3373.654       3170.5502      3233.2847     -827.18121      330.69044     -76.86169     
  81826000   260.56013     -405.00034     -317.73536     -404.94178      0             -267.31747      31.164         21.490526      33.498534      22434.998     -2295.7693      251.75756      1242.0594     -1205.5583      367.74649      914.68473    
  81828000   268.48534     -408.38501     -318.46577     -408.32883      0              3572.8177      31.164         21.490526      33.520948      22450.01       3384.4564      4594.2652      2739.7313      412.32986      2044.8401      300.65977    
  81830000   261.31016     -406.29567     -318.77949     -406.25976      0              3613.4969      31.164         21.490526      33.46837       22414.797      2385.8952      2765.6651      5688.9304      721.34121     -693.70929      1027.0437    
  81832000   253.18055     -408.20024     -323.40677     -408.17994      0              2454.13        31.164         21.490526      33.468777      22415.069      2145.734       1964.0064      3252.6497     -1090.7685      677.59877     -708.17769    
  81834000   262.87148     -406.95689     -318.91781     -406.90379      0              2090.3461      31.164         21.490526      33.373473      22351.241     -627.90405      1807.688       5091.2544      1605.0234      907.95793      1746.5355    
  81836000   265.72666     -409.0728      -320.07748     -409.04159      0              3897.3959      31.164         21.490526      33.429553      22388.8        5179.2319      2154.0268      4358.9291      1117.0652     -1407.6419     -484.06681    
  81838000   260.89322     -405.38819     -318.01165     -405.36211      0              2051.1624      31.164         21.490526      33.64006       22529.783      2235.8385      1075.3501      2842.2985      1441.1615      29.040486      1090.0611    
  81840000   260.18353     -409.1303      -321.99145     -409.11004      0              1924.3981      31.164         21.490526      33.482262      22424.1        2124.6188      2072.2567      1576.3188      452.72942     -1324.8552     -1431.6449    
  81842000   258.92916     -408.56033     -321.84158     -408.5278       0              1813.8768      31.164         21.490526      33.4643        22412.071      1790.6744      1935.7615      1715.1945     -139.44414      1782.4525      881.37218    
  81844000   260.81722     -408.78185     -321.43076     -408.72116      0              2631.0512      31.164         21.490526      33.595296      22499.803      2061.0553      3514.0108      2318.0876     -308.89313      826.82103     -650.54918    
  81846000   253.85762     -405.12218     -320.10196     -405.06145      0              4843.9696      31.164         21.490526      33.638044      22528.433      7495.0395      4215.1194      2821.7499     -184.53144      1097.159       720.08898    
  81848000   260.18844     -410.78857     -323.64807     -410.7453       0              3422.9657      31.164         21.490526      33.524526      22452.406      4239.1455      3918.9215      2110.83       -355.47781     -1080.1184     -683.37949    
  81850000   259.20088     -405.96769     -319.15794     -405.95039      0              3061.7221      31.164         21.490526      33.495941      22433.262      1801.627       4013.5277      3370.0118     -405.7928       74.636186     -1233.0132    
  81852000   263.6217      -407.89426     -319.60392     -407.83684      0              2971.642       31.164         21.490526      33.317571      22313.802      2266.8241      5200.6916      1447.4103      849.83558     -5.1057401      597.70607    
  81854000   266.21962     -410.05203     -320.89161     -410.0192       0              2489.2224      31.164         21.490526      33.352415      22337.138      4162.8671      3851.997      -547.19695      154.09743      852.55549      166.94292    
  81856000   255.26405     -407.89213     -322.40087     -407.8895       0              2893.826       31.164         21.490526      33.424779      22385.602      3705.2658      4793.14        183.07234      1400.6841      869.20119     -1406.1152    
[...]
  88512000   262.78236     -406.02964     -318.0204      -406.02184      0              5210.9875      31.164         21.490526      33.120634      22181.907      5841.1954      5383.6792      4408.0879      1334.6159      693.60683     -1320.8866    
  88514000   259.56485     -408.22933     -321.29768     -408.20774      0              2802.8419      31.164         21.490526      33.463362      22411.443      1326.4665      3775.8317      3306.2273      1243.1559      327.98407      2698.0572    
  88516000   261.17098     -410.86194     -323.39238     -410.83692      0              3069.402       31.164         21.490526      33.43281       22390.981      2349.0014      3174.5557      3684.6489     -272.15586      698.85983     -801.52042    
  88518000   260.40656     -412.43603     -325.22248     -412.38504      0              2550.3917      31.164         21.490526      33.237604      22260.245      362.37976      5222.9547      2065.8406      1164.6228      875.25133     -961.19903    
  88520000   263.03875     -406.57169     -318.47658     -406.53632      0              4054.9151      31.164         21.490526      33.311571      22309.784      4482.3547      3374.2377      4308.1529     -768.63349      357.8575       1947.4374    
  88522000   251.56726     -410.19818     -325.94502     -410.14443      0              2958.523       31.164         21.490526      33.232015      22256.502      2208.7003      3606.4821      3060.3867      1148.634      -1069.3219      1385.5941    
  88524000   261.21688     -411.02244     -323.5375      -410.98247      0              3370.8858      31.164         21.490526      33.334807      22325.345      4922.3268      2456.0236      2734.3072     -177.92566     -154.55761      290.33621    
  88526000   257.99497     -410.81953     -324.41365     -410.75887      0              6136.7034      31.164         21.490526      33.260783      22275.769      4048.8867      8407.6784      5953.5451      402.56696      1501.135      -1645.197     
  88528000   270.60659     -409.06851     -318.43884     -409.04298      0              3651.6017      31.164         21.490526      33.289416      22294.946      2920.727       4749.7114      3284.3667      132.02785      842.19707     -2535.6568    
  88530000   258.13015     -408.46103     -322.00988     -408.41833      0              4221.2075      31.164         21.490526      33.144631      22197.979      4453.0837      3090.5576      5119.9812     -236.69124     -1620.1621     -978.28543    
  88532000   257.41829     -412.88059     -326.66785     -412.8115       0              4913.4779      31.164         21.490526      33.092454      22163.034      4521.2593      6814.6209      3404.5535      2255.2293      904.02412     -50.224623    
  88534000   260.51132     -411.40216     -324.15353     -411.36106      0              2208.7954      31.164         21.490526      33.266292      22279.459      2043.0149      862.61981      3720.7514      624.33956     -921.11103     -126.11615    
  88536000   260.22423     -410.08859     -322.93611     -410.04294      0              5423.1146      31.164         21.490526      33.414067      22378.428      5222.505       4618.4841      6428.3547     -1381.1079      692.95391     -509.48837    
  88538000   258.99685     -409.47613     -322.7347      -409.44845      0              1798.2053      31.164         21.490526      33.373446      22351.223      3555.5646      1280.0258      559.02542     -722.95229      907.1399      -359.74239    
  88540000   265.66415     -410.10208     -321.1277      -410.0817       0              1287.5697      31.164         21.490526      33.617575      22514.724      2694.2492      366.87807      801.58179     -1205.0842     -1164.324       405.78713    
  88542000   268.08589     -407.60064     -317.81518     -407.5989       0              1057.9972      31.164         21.490526      33.76399       22612.783      2361.6407     -1244.8281      2057.1789      49.913569     -1417.6137      1720.524     
  88544000   252.29387     -408.77399     -324.27749     -408.74356      0              986.13447      31.164         21.490526      33.695527      22566.93      -347.00609      384.13476      2921.2748      986.9295       743.42883     -944.50539    
  88546000   258.31054     -410.89755     -324.38598     -410.83953      0              3335.9144      31.164         21.490526      33.516393      22446.959      4834.5487      2944.1462      2229.0482      99.250275      1178.1984      2031.4814    
  88548000   261.36903     -411.12819     -323.5923      -411.07866      0              400.87821      31.164         21.490526      33.591342      22497.155     -288.09473      419.21496      1071.5144      980.88466     -837.42964      63.034075    
  88550000   255.68608     -410.08679     -324.45419     -410.03629      0              1897.3204      31.164         21.490526      33.673595      22552.242      2396.3699      770.55872      2525.0325     -871.84463     -442.04848      1292.6497    
  88552000   259.39331     -409.30857     -322.43437     -409.25151      0              3964.862       31.164         21.490526      33.547941      22468.088      4283.7963      3765.6358      3845.1539      1410.6027      642.52166     -621.78517    
  88554000   262.75079     -410.08831     -322.08964     -410.02128      0              3036.9173      31.164         21.490526      33.584984      22492.897      1897.7826      4007.8682      3205.101      -689.09195      1323.1435      623.70941    
  88556000   260.00189     -410.233       -323.15497     -410.18153      0              853.52146      31.164         21.490526      33.652631      22538.202      1079.4677      1029.5413      451.55537     -1183.3703     -823.32596      600.39121    
  88558000   260.95583     -407.69178     -320.29427     -407.64866      0              2327.2092      31.164         21.490526      33.802         22638.239      1475.0223      1902.4482      3604.1572      481.72754      899.58863      803.76933    
  88560000   263.75595     -410.22155     -321.88625     -410.19028      0              2880.6549      31.164         21.490526      33.640345      22529.973      1158.225       2943.8583      4539.8814      1113.9379      808.17491      277.63272    
  88562000   253.2812      -410.80033     -325.97316     -410.74533      0              1876.8678      31.164         21.490526      33.770997      22617.475      2238.0949      910.61435      2481.8943      577.48522     -864.52494      1440.334     
  88564000   261.50548     -411.89724     -324.31565     -411.85201      0              983.82193      31.164         21.490526      33.471092      22416.62       196.59906      807.72899      1947.1377      1001.6772      845.12958     -286.0694     
  88566000   260.09961     -407.68167     -320.57092     -407.61822      0              2263.5565      31.164         21.490526      33.504078      22438.711      1504.4428      2363.6059      2922.6208      1783.5235      1574.8276      1157.4755    
  88568000   259.38943     -408.62806     -321.75516     -408.58611      0              3513.7169      31.164         21.490526      33.580044      22489.588      1967.6458      4513.1678      4060.337       2633.9826      1489.8634     -308.7205     
  88570000   263.02213     -413.91287     -325.82333     -413.84446      0              3794.6308      31.164         21.490526      33.297877      22300.612      3172.1854      5301.095       2910.612       1478.0772      207.0111      -1539.5956    
  88572000   264.08943     -406.80608     -318.35909     -406.76988      0              2979.8212      31.164         21.490526      33.396879      22366.917      3014.9617      3591.3317      2333.1701      338.06918      449.23892     -159.81019    
  88574000   263.34938     -406.88633     -318.68719     -406.82877      0              2053.7534      31.164         21.490526      33.346257      22333.014      2199.147       2959.5161      1002.5972      329.16758      150.91265     -1021.0385    
  88576000   261.24008     -413.13508     -325.64238     -413.05289      0              2748.9762      31.164         21.490526      33.333476      22324.454      2858.6415      3336.8434      2051.4437     -35.369901     -549.186        218.39382    
  88578000   265.86695     -411.4009      -322.35859     -411.33936      0              3676.7078      31.164         21.490526      33.431748      22390.27       2283.4224      5055.3607      3691.3402     -440.33178      2031.4539     -1830.3014    
  88580000   265.00683     -408.36599     -319.61175     -408.30396      0              3718.4576      31.164         21.490526      33.354311      22338.407      4850.905       1799.8135      4504.6543     -226.96691     -302.31577     -1358.6288    
  88582000   259.77163     -410.97477     -323.97387     -410.92736      0              1340.5165      31.164         21.490526      33.361991      22343.551      905.14049      2840.8032      275.60586      1874.883       642.65398     -382.29468    
  88584000   262.76567     -408.86847     -320.86482     -408.81412      0              2130.6476      31.164         21.490526      33.387854      22360.873      1801.0875      2107.7291      2483.1261      474.24173      545.08731     -333.53628    
  88586000   265.68293     -408.88943     -319.90876     -408.83007      0              4514.3328      31.164         21.490526      33.337482      22327.137      4597.1199      3839.2338      5106.6447     -156.40236     -1771.8521      304.98639    
  88588000   253.18222     -408.33824     -323.54422     -408.29226      0              3651.0731      31.164         21.490526      33.299299      22301.565      4554.7413      2973.8529      3424.6251      250.20688      930.97383     -111.22319    
  88590000   261.41826     -410.95764     -323.40525     -410.91621      0              4026.0686      31.164         21.490526      33.407046      22373.726      3901.7653      2476.2191      5700.2213      128.99838     -228.97378      1350.8609    
  88592000   261.91352     -409.93352     -322.21527     -409.88969      0              2507.7923      31.164         21.490526      33.235732      22258.991      2430.8282      1294.6167      3797.932      -1761.0751     -322.07304     -162.57088    
  88594000   260.37596     -407.77787     -320.57456     -407.74281      0              3233.4063      31.164         21.490526      33.346249      22333.009      2095.6155      4367.3992      3237.2041      1011.422       54.998341      330.03337    
  88596000   258.19665     -410.05376     -323.58034     -410.00141      0              530.48232      31.164         21.490526      33.364237      22345.056      1410.965      -1019.9109      1200.3929      101.54921     -2146.9385      208.5998     
  88598000   260.62992     -409.38852     -322.10016     -409.32781      0              4783.3649      31.164         21.490526      33.296689      22299.817      4308.3414      4747.4216      5294.3318     -58.331444     -1014.6827     -342.94869    
  88600000   264.85745     -408.00959     -319.30538     -407.96274      0              4885.4507      31.164         21.490526      33.421533      22383.428      5717.7499      4561.948       4376.6543     -162.56689      1766.6124      181.2745     
  88602000   249.58151     -408.02905     -324.44095     -407.93847      0              4008.9532      31.164         21.490526      33.115785      22178.66       3103.3347      1895.7179      7027.8069     -427.08874      1387.6261      1107.0055    
  88604000   259.86233     -410.11145     -323.08017     -410.06159      0              2170.9919      31.164         21.490526      33.398919      22368.283      2442.0373      1460.0295      2610.9087      1738.7363     -507.84518     -717.3906     
  88606000   256.33579     -407.69103     -321.84083     -407.63913      0              3488.7965      31.164         21.490526      33.691006      22563.903      3359.9539      4484.6388      2621.7969     -656.62127     -1597.2613     -484.42951    
  88608000   260.46684     -408.94874     -321.715       -408.90637      0              1878.8076      31.164         21.490526      33.564642      22479.273      1043.3809      2542.8903      2050.1518     -656.9742       272.08733     -131.98464    
  88610000   262.7066      -411.26329     -323.27942     -411.19701      0              2892.9308      31.164         21.490526      33.471114      22416.634      4255.1222      2466.8257      1956.8445     -767.16542     -217.66006      1121.2732    
  88612000   256.57084     -407.09176     -321.16284     -407.02729      0              3961.763       31.164         21.490526      33.340229      22328.976      4908.7938      3482.0108      3494.4846     -520.23145     -901.35272      282.89772    
  88614000   263.04547     -407.6086      -319.51124     -407.54285      0              4081.9735      31.164         21.490526      33.390387      22362.569      3917.3691      4006.1145      4322.4369     -274.10525     -528.37154     -402.46287    
  88616000   262.42082     -408.9707      -321.08255     -408.90221      0              3088.1509      31.164         21.490526      33.340293      22329.019      4214.4936      1951.906       3098.0529      959.93967     -1314.9358     -921.48246    
  88618000   253.59036     -409.75306     -324.82235     -409.652        0              4179.4407      31.164         21.490526      33.321338      22316.325      3913.5803      4505.0437      4119.698      -479.00733     -351.94294     -268.74088    
  88620000   260.20794     -412.48426     -325.33723     -412.42399      0              3088.5769      31.164         21.490526      33.270854      22282.514      2808.6693      3358.494       3098.5673      278.43772      93.553146      483.0953     
  88622000   256.88319     -409.47479     -323.44126     -409.41676      0              4465.9637      31.164         21.490526      33.277625      22287.049      2840.6212      4396.3569      6160.913      -1896.2277      1769.3077     -254.5456     
  88624000   257.58745     -408.69256     -322.42317     -408.64681      0              3482.7714      31.164         21.490526      33.359744      22342.046      3738.9445      2575.3426      4134.0271     -1464.8313     -322.29542      347.89564    
  88626000   253.31479     -412.10006     -327.26164     -412.02339      0              3497.6784      31.164         21.490526      33.36033       22342.439      929.41735      4906.0327      4657.585       454.34214     -1060.7348      401.69129    
  88628000   255.4721      -409.86365     -324.30271     -409.80521      0              2074.4262      31.164         21.490526      33.487967      22427.922      999.21741      1956.8518      3267.2093      141.44326     -1244.0886      1325.6448    
  88630000   262.70094     -408.28945     -320.30748     -408.26062      0              1356.1642      31.164         21.490526      33.685065      22559.924     -925.86333      2360.6227      2633.7332      1065.2716      54.298552      242.28448    
  88632000   260.48764     -407.27486     -320.03415     -407.21024      0              3613.7615      31.164         21.490526      33.546109      22466.861      2532.4795      4199.277       4109.5279      1345.8202     -157.00761      534.75647    
  88634000   257.87935     -407.14813     -320.78097     -407.12215      0              3244.2543      31.164         21.490526      33.617331      22514.561      3178.9543      2934.8649      3618.9436      1911.0199     -2089.2269      1796.5651    
  88636000   258.3528      -408.70369     -322.17797     -408.6661       0              3514.4458      31.164         21.490526      33.641199      22530.546      5926.5406      731.0741       3885.7226      756.07791      323.42973     -203.44594    
  88638000   265.89941     -408.03601     -318.98283     -407.97823      0              3061.4649      31.164         21.490526      33.544806      22465.988      3004.7534      2253.6428      3925.9985     -44.037892      1163.5397      844.06343    
  88640000   258.36538     -410.64164     -324.1117      -410.58768      0              1442.1506      31.164         21.490526      33.418146      22381.16       557.83939      1304.1557      2464.4566      165.22452      2092.4679     -1107.2199    
  88642000   252.72002     -407.84796     -323.20873     -407.78946      0              3084.4189      31.164         21.490526      33.221251      22249.294      4611.1657      2215.9668      2426.1243      112.7791       656.1512      -1156.4527    
  88644000   259.76903     -408.45036     -321.45033     -408.4051       0              2620.5645      31.164         21.490526      33.425157      22385.856      4383.6895      2425.184       1052.8201     -900.53063     -210.00316      1785.112     
  88646000   255.79688     -414.10049     -328.43078     -414.05858      0              4101.4446      31.164         21.490526      33.496889      22433.897      4674.2824      3922.5849      3707.4664      2751.4461     -1681.2153     -1899.8994    
  88648000   259.22363     -410.23398     -323.41661     -410.20664      0              3857.6573      31.164         21.490526      33.410339      22375.932      4623.6839      4713.9367      2235.3512     -1418.8959      759.4539      -1347.0767    
  88650000   256.59716     -408.78087     -322.84314     -408.79022      0              3441.427       31.164         21.490526      33.440081      22395.85       2819.593       4005.3149      3499.3729      1154.9833     -127.7952       1126.42      
  88652000   256.41857     -409.18096     -323.30304     -409.16974      0              4230.7891      31.164         21.490526      33.451404      22403.434      4889.9892      4099.201       3703.177       2202.7773     -623.871        1848.3944    
  88654000   254.59027     -408.74019     -323.47459     -408.73604      0              2129.8138      31.164         21.490526      33.424684      22385.539      3607.6444      1459.5966      1322.2005      966.7352      -399.94545     -908.52884    
WARNING: Wall time limit reached (../timer.cpp:193)
Loop time of 85797.6 on 4 procs for 7365000 steps with 2592 atoms

Performance: 3.708 ns/day, 6.472 hours/ns, 85.842 timesteps/s
1409.7% CPU use with 4 MPI tasks x no OpenMP threads

MPI task timing breakdown:
Section |  min time  |  avg time  |  max time  |%varavg| %total
---------------------------------------------------------------
Pair    | 20596      | 20758      | 20906      |  98.2 | 24.19
Bond    | 0.71396    | 0.76905    | 0.80468    |   3.9 |  0.00
Neigh   | 618.96     | 623.63     | 628.56     |  17.2 |  0.73
Comm    | 2413.7     | 2562.6     | 2723.1     | 280.3 |  2.99
Output  | 8156       | 8156       | 8156.1     |   0.0 |  9.51
Modify  | 53670      | 53676      | 53682      |   1.9 | 62.56
Other   |            | 20.09      |            |       |  0.02

Nlocal:            648 ave         663 max         629 min
Histogram: 1 0 0 0 0 1 0 1 0 1
Nghost:           4161 ave        4199 max        4133 min
Histogram: 2 0 0 0 0 0 1 0 0 1
Neighs:              0 ave           0 max           0 min
Histogram: 4 0 0 0 0 0 0 0 0 0
FullNghs:       160764 ave      166954 max      153907 min
Histogram: 1 0 0 1 0 0 0 1 0 1

Total # of neighbors = 643056
Ave neighs/atom = 248.09259
Ave special neighs/atom = 0
Neighbor list builds = 147300
Dangerous builds not checked
unfix 3
unfix 1
unfix 2


# Finalize simulation
write_restart	restart.lmp.${pid}
write_restart	restart.lmp.0
System init for write_restart ...
Generated 0 of 1 mixed pair_coeff terms from geometric mixing rule
write_data	data.final.${pid} nocoeff
write_data	data.final.0 nocoeff
System init for write_data ...
Generated 0 of 1 mixed pair_coeff terms from geometric mixing rule
Total wall time: 23:50:12
