LAMMPS (23 Jun 2022)
include procedure.lmp
echo both
include		in.partitions
variable        pid world 0
include		in.temp
variable	temperature equal 260
variable        tempDamp equal 0.100 # this is 0.1 ps
include		in.pressure
variable        pressure equal 3039.75
variable        pressureDamp equal 1.0 #this is 1ps

variable	barostat string	   tri
variable	direction string   z
variable	direction_x_bool equal 0
variable	direction_y_bool equal 0
variable	direction_z_bool equal 1

include		in.seed
variable        seed world 745823

units           metal
atom_style	full
box tilt large
read_restart 	restart.lmp.${pid}
read_restart 	restart.lmp.0
Reading restart file ...
  restart file = 23 Jun 2022, LAMMPS = 23 Jun 2022
  restoring atom style full from restart
  triclinic box = (0 0 -0.84255912) to (31.164 21.490526 32.527063) with tilt (-9.197534 0.81720572 -11.19823)
WARNING: Triclinic box skew is large (../domain.cpp:224)
  2 by 1 by 2 MPI processor grid
Summary of lammps deepmd module ...
  >>> Info of deepmd-kit:
  installed to:       /u/sigbjobo/software/DEEPMD_FROM_SOURCE/deepmd-kit/install
  source:             v2.1.3
  source branch:       master
  source commit:      5a32c49
  source commit at:   2022-07-01 09:52:58 +0800
  surpport model ver.:1.1 
  build float prec:   double
  build with tf inc:  /u/sigbjobo/software/DEEPMD_FROM_SOURCE/tensorflow/install/include;/u/sigbjobo/software/DEEPMD_FROM_SOURCE/tensorflow/install/include
  build with tf lib:  /u/sigbjobo/software/DEEPMD_FROM_SOURCE/tensorflow/install/lib/libtensorflow_cc.so;/u/sigbjobo/software/DEEPMD_FROM_SOURCE/tensorflow/install/lib/libtensorflow_framework.so
  set tf intra_op_parallelism_threads: 0
  set tf inter_op_parallelism_threads: 0
  >>> Info of lammps module:
  use deepmd-kit at:  /u/sigbjobo/software/DEEPMD_FROM_SOURCE/deepmd-kit/install
  source:             v2.1.3
  source branch:      master
  source commit:      5a32c49
  source commit at:   2022-07-01 09:52:58 +0800
  build float prec:   double
  build with tf inc:  /u/sigbjobo/software/DEEPMD_FROM_SOURCE/tensorflow/install/include;/u/sigbjobo/software/DEEPMD_FROM_SOURCE/tensorflow/install/include
  build with tf lib:  /u/sigbjobo/software/DEEPMD_FROM_SOURCE/tensorflow/install/lib/libtensorflow_cc.so;/u/sigbjobo/software/DEEPMD_FROM_SOURCE/tensorflow/install/lib/libtensorflow_framework.so
  restoring pair style deepmd from restart
  2592 atoms
Finding 1-2 1-3 1-4 neighbors ...
  special bond factors lj:    0        0        0       
  special bond factors coul:  0        0        0       
     0 = max # of 1-2 neighbors
     0 = max # of 1-3 neighbors
     0 = max # of 1-4 neighbors
     1 = max # of special neighbors
  special bonds CPU = 0.000 seconds
  read_restart CPU = 0.073 seconds
include 	in.setup
variable	out_freq equal 2000
variable	out_freq2 equal 2000

timestep        0.0005

neigh_modify    delay 7 every 1

include         in.deepmd
# This is deepMD model

# create groups ###
#group ox type 2
#group hy type 1

mass 2 15.999
mass 1 1.008

pair_style      deepmd ../graph.pb
pair_coeff      * *

bond_style      none
angle_style     none
dihedral_style  none
improper_style  none
neigh_modify exclude none


neighbor        2.0 bin
neigh_modify    every 50 delay 0 check no

thermo          ${out_freq}
thermo          2000
thermo_style 	custom step temp pe etotal epair emol press lx ly lz vol pxx pyy pzz pxy pxz pyz

restart 	${out_freq} restart.lmp.${pid} restart2.lmp.${pid}
restart 	2000 restart.lmp.${pid} restart2.lmp.${pid}
restart 	2000 restart.lmp.0 restart2.lmp.${pid}
restart 	2000 restart.lmp.0 restart2.lmp.0


timer           timeout 23:50:00 every 1000
New timer settings: style=normal  mode=nosync  timeout=23:50:00


# Set number of time steps
variable 	nsteps_wall		equal	 6000000
variable 	nsteps_enhanced_coex    equal	60000000

variable     nsteps_enhanced_coex_upto equal (${nsteps_wall}+${nsteps_enhanced_coex})
variable     nsteps_enhanced_coex_upto equal (6000000+${nsteps_enhanced_coex})
variable     nsteps_enhanced_coex_upto equal (6000000+60000000)


# Set temperature for first step
if "$(step) < 1  " then    "velocity 	all create ${temperature} ${seed} dist gaussian"


# Always run thermo and barostat


######################################
# Run simulation with wall potential #
######################################
if " $(step) < ${nsteps_wall} " then    "fix             3 all plumed plumedfile plumed.equil.dat outfile plumed.equil.out"   "fix             1 all nph ${direction} ${pressure} ${pressure} ${pressureDamp}"   "fix             2 all temp/csvr ${temperature} ${temperature} ${tempDamp} ${seed}"   "run             ${nsteps_wall} upto"
if " $(step) == ${nsteps_wall} " then    "unfix 3"   "unfix 1"   "unfix 2"


############################
# Run enhanced coesistence #
############################
if "$(step) == ${nsteps_wall}" then    "fix             3 all plumed plumedfile plumed.start.dat outfile plumed.out" else    "fix             3 all plumed plumedfile plumed.dat outfile plumed.out"
fix             3 all plumed plumedfile plumed.dat outfile plumed.out

if "$(step) < ${nsteps_enhanced_coex_upto} && $(step) >= ${nsteps_wall} " then    "include         in.dump"    "fix             1 all nph ${direction} ${pressure} ${pressure} ${pressureDamp}"   "fix             2 all temp/csvr ${temperature} ${temperature} ${tempDamp} ${seed}"   "run             ${nsteps_enhanced_coex_upto} upto"    "unfix 3"   "unfix 1"   "unfix 2"
include         in.dump
dump            myDump all atom ${out_freq2} dump.water.${pid}
dump            myDump all atom 2000 dump.water.${pid}
dump            myDump all atom 2000 dump.water.0
dump            myDump2 all dcd ${out_freq2} dump.${pid}.dcd
dump            myDump2 all dcd 2000 dump.${pid}.dcd
dump            myDump2 all dcd 2000 dump.0.dcd
dump_modify     myDump append yes
dump_modify     myDump2 append yes

fix             1 all nph ${direction} ${pressure} ${pressure} ${pressureDamp}
fix             1 all nph z ${pressure} ${pressure} ${pressureDamp}
fix             1 all nph z 3039.75 ${pressure} ${pressureDamp}
fix             1 all nph z 3039.75 3039.75 ${pressureDamp}
fix             1 all nph z 3039.75 3039.75 1
Resetting global fix info from restart file:
  fix style: nph, fix ID: 1
fix             2 all temp/csvr ${temperature} ${temperature} ${tempDamp} ${seed}
fix             2 all temp/csvr 260 ${temperature} ${tempDamp} ${seed}
fix             2 all temp/csvr 260 260 ${tempDamp} ${seed}
fix             2 all temp/csvr 260 260 0.1 ${seed}
fix             2 all temp/csvr 260 260 0.1 745823
Resetting global fix info from restart file:
  fix style: temp/csvr, fix ID: 2
run             ${nsteps_enhanced_coex_upto} upto
run             66000000 upto

CITE-CITE-CITE-CITE-CITE-CITE-CITE-CITE-CITE-CITE-CITE-CITE-CITE

Your simulation uses code contributions which should be cited:

- USER-DEEPMD package:

@article{Wang_ComputPhysCommun_2018_v228_p178,
  author = {Wang, Han and Zhang, Linfeng and Han, Jiequn and E, Weinan},
  doi = {10.1016/j.cpc.2018.03.016},
  url = {https://doi.org/10.1016/j.cpc.2018.03.016},
  year = 2018,
  month = {jul},
  publisher = {Elsevier {BV}},
  volume = 228,
  journal = {Comput. Phys. Commun.},
  title = {{DeePMD-kit: A deep learning package for many-body potential energy representation and molecular dynamics}},
  pages = {178--184}
}

CITE-CITE-CITE-CITE-CITE-CITE-CITE-CITE-CITE-CITE-CITE-CITE-CITE

Generated 0 of 1 mixed pair_coeff terms from geometric mixing rule
All restart file global fix info was re-assigned
Neighbor list info ...
  update every 50 steps, delay 0 steps, check no
  max neighbors/atom: 2000, page size: 100000
  master list distance cutoff = 8
  ghost atom cutoff = 8
  binsize = 4, bins = 11 9 9
  1 neighbor lists, perpetual/occasional/extra = 1 0 0
  (1) pair deepmd, perpetual
      attributes: full, newton on
      pair build: full/bin
      stencil: full/bin/3d
      bin: standard
Per MPI rank memory allocation (min/avg/max) = 7.303 | 7.304 | 7.305 Mbytes
   Step          Temp          PotEng         TotEng         E_pair         E_mol          Press            Lx             Ly             Lz           Volume          Pxx            Pyy            Pzz            Pxy            Pxz            Pyz      
  46518000   257.01322     -414.26399     -328.18691     -414.26399      0              3986.634       31.164         21.490526      33.369622      22348.662      4814.6347      4391.8784      2753.3887     -662.0954       1015.3665     -760.64259    
  46520000   268.43878     -411.80831     -321.90466     -411.61237      0              4220.0981      31.164         21.490526      33.475625      22419.655      5828.4137      3262.2604      3569.6203     -464.58928     -1061.1299     -591.12138    
  46522000   260.52998     -409.44887     -322.19399     -409.26142      0              5369.7218      31.164         21.490526      33.258583      22274.296      5287.625       4753.9799      6067.5606     -656.2458       135.76228      469.75054    
  46524000   258.58451     -414.30973     -327.70641     -414.11221      0              4036.2838      31.164         21.490526      33.383467      22357.935      3752.256       4161.4437      4195.1519      74.245462     -246.18895     -1281.7979    
  46526000   263.7548      -412.91509     -324.58017     -412.73765      0              3545.7473      31.164         21.490526      33.392596      22364.049      3156.3235      2564.5844      4916.3339      1282.0372     -136.85987     -837.65279    
  46528000   266.06598     -413.14907     -324.0401      -412.96129      0              3325.2653      31.164         21.490526      33.140795      22195.41       3016.7524      3236.0185      3723.025       879.75667     -1369.2742      153.46306    
  46530000   269.08095     -412.25745     -322.13873     -412.07599      0              2019.8514      31.164         21.490526      33.524947      22452.688      1024.0588      4693.9385      341.55682     -164.07517     -2038.3583     -808.18215    
  46532000   258.68876     -411.88874     -325.2505      -411.72136      0              4486.4293      31.164         21.490526      33.175882      22218.908      3950.3965      3985.9857      5522.9057     -178.32095      910.13693     -720.56476    
  46534000   259.44238     -411.82506     -324.93443     -411.63874      0              4033.1816      31.164         21.490526      33.246849      22266.437      3668.5904      4722.0798      3708.8746     -1409.9495     -1547.4076     -700.69605    
  46536000   258.53768     -414.91268     -328.32504     -414.75186      0              4255.0679      31.164         21.490526      33.326735      22319.939      5526.1288      4067.0954      3171.9793     -864.31577      135.86231     -391.1246     
  46538000   260.4203      -414.78668     -327.56853     -414.59874      0              3319.1892      31.164         21.490526      33.334855      22325.378      1690.9367      5624.1222      2642.5088     -146.15331     -534.68819      407.35003    
  46540000   257.72605     -412.10516     -325.78934     -411.96757      0              1947.2179      31.164         21.490526      33.412817      22377.591      1362.0412      3369.6906      1109.9219     -1584.6376     -90.769605     -1254.8638    
  46542000   247.60171     -411.62803     -328.70299     -411.48665      0              1059.722       31.164         21.490526      33.499941      22435.941      2831.3822      1461.9161     -1114.1322     -973.48999      647.52587     -1478.0766    
  46544000   258.63643     -411.32185     -324.70114     -411.15896      0              3107.4677      31.164         21.490526      33.530685      22456.531      1712.1045      5018.2134      2592.0852      713.34859     -13.62124      -976.42401    
  46546000   267.38288     -410.24959     -320.69958     -410.06877      0              3132.5084      31.164         21.490526      33.450146      22402.592      4464.6025      2205.2247      2727.6979     -1236.6267     -445.73268     -1509.1309    
  46548000   258.43058     -414.444       -327.89223     -414.23766      0              1475.1539      31.164         21.490526      33.434503      22392.115      1406.1672      2008.5113      1010.7834     -665.45142     -231.03816     -1339.833     
  46550000   262.35082     -416.65177     -328.78706     -416.44533      0              1991.9043      31.164         21.490526      33.645299      22533.292      3105.3694      1445.139       1425.2045     -238.55966     -107.75125      746.89369    
  46552000   263.93327     -412.60461     -324.20991     -412.40193      0              3457.6488      31.164         21.490526      33.598562      22501.99       2032.8801      4903.9323      3436.134       620.49863      392.41435     -990.6435     
  46554000   266.651       -412.84993     -323.54503     -412.64303      0              3009.4297      31.164         21.490526      33.550412      22469.743      2689.4815      4241.2801      2097.5276     -339.93115     -72.059555     -657.97724    
  46556000   264.95178     -410.6383      -321.90249     -410.44911      0              838.09062      31.164         21.490526      33.565169      22479.626      1221.8614      463.0458       829.36465     -490.37937      440.8171      -378.64882    
  46558000   259.5652      -412.00737     -325.0756      -411.81024      0              3575.0555      31.164         21.490526      33.468929      22415.171      3267.4709      4596.5607      2861.1349      990.70974     -168.38483      1210.5855    
  46560000   257.14493     -411.93164     -325.81045     -411.73378      0              1994.0909      31.164         21.490526      33.613956      22512.3        3089.147       943.06048      1950.0653      118.10107      1995.347      -910.11657    
  46562000   255.89166     -412.84409     -327.14263     -412.65922      0              1983.8655      31.164         21.490526      33.58248       22491.22       2131.0506      1742.6867      2077.8592      1084.2631     -1254.9655      1076.0187    
  46564000   263.81927     -412.67978     -324.32326     -412.50003      0              1740.7965      31.164         21.490526      33.612427      22511.276      1352.9619      2629.2689      1240.1588     -253.78995      779.87616     -1502.6194    
  46566000   264.87107     -414.30935     -325.60058     -414.10511      0              3154.5471      31.164         21.490526      33.765757      22613.966      3752.1913      2234.7508      3476.6993      369.66816     -39.318526      1888.4981    
  46568000   265.03818     -415.08564     -326.3209      -414.88095      0              816.68022      31.164         21.490526      33.670089      22549.894     -629.68706      1800.532       1279.1957     -1164.3746      1038.263      -520.40535    
  46570000   259.65039     -413.55999     -326.59969     -413.35444      0              3941.354       31.164         21.490526      33.594571      22499.317      3568.7513      5299.058       2956.2528      156.63721      390.39274     -1580.529     
  46572000   260.16938     -414.21558     -327.08146     -414.00905      0              4727.7429      31.164         21.490526      33.46873       22415.037      4707.3808      3759.8344      5716.0134      786.10112      553.37681     -350.7989     
  46574000   259.07619     -411.20233     -324.43433     -411.0091       0              2836.1283      31.164         21.490526      33.493716      22431.772      3076.4609      617.07756      4814.8466     -844.94661      14.62296      -146.71858    
  46576000   260.8042      -413.37372     -326.02699     -413.1678       0              1746.2433      31.164         21.490526      33.478513      22421.59       897.90979      1949.2752      2391.5449      439.12462     -276.82336     -1782.1593    
  46578000   258.0905      -415.19822     -328.76035     -414.99673      0              4617.2681      31.164         21.490526      33.532074      22457.461      4720.9356      3304.6601      5826.2087      375.32123     -937.54884     -358.87657    
  46580000   265.47182     -411.97202     -323.06205     -411.78107      0              2238.1651      31.164         21.490526      33.490052      22429.318      2681.6543      1679.5406      2353.3003     -1446.7385      1006.8394      584.89672    
  46582000   252.8311      -413.97223     -329.29579     -413.76688      0              2814.6674      31.164         21.490526      33.440798      22396.331     -13.054214      5917.3533      2539.7032     -68.977719      1048.7163     -1360.2933    
  46584000   265.06947     -412.61372     -323.8385      -412.43251      0              1903.9996      31.164         21.490526      33.325588      22319.171      2370.4934      1218.1885      2123.3169      767.87868      204.21692     -613.47053    
  46586000   264.08302     -413.44805     -325.0032      -413.24305      0              3794.3803      31.164         21.490526      33.4608        22409.727      3657.0375      4041.8969      3684.2066      980.00497     -333.76027      235.20092    
  46588000   269.16662     -413.98542     -323.83801     -413.8          0              4390.4512      31.164         21.490526      33.555738      22473.31       4725.5203      5572.9979      2872.8353      1159.31        256.14455     -1348.9143    
  46590000   264.598       -412.60673     -323.98941     -412.40093      0              4407.6947      31.164         21.490526      33.451133      22403.253      7820.9352      3507.0374      1895.1114     -1633.2803      883.47507     -810.44745    
  46592000   260.28958     -407.97996     -320.80558     -407.8126       0              2847.6566      31.164         21.490526      33.426541      22386.782      1913.7512      2820.3632      3808.8554      2137.1587      1070.3903     -765.0864     
  46594000   253.61049     -410.66363     -325.72617     -410.47376      0              2693.2076      31.164         21.490526      33.429196      22388.561      1952.8236      2801.1712      3325.628      -1956.3213     -307.14681     -1552.9253    
  46596000   267.82241     -412.71674     -323.01952     -412.56286      0              3176.9646      31.164         21.490526      33.389502      22361.976      4813.9344      1184.8898      3532.0695     -492.42468     -634.49654     -85.63574     
  46598000   263.09107     -411.56702     -323.45439     -411.38425      0              3105.0677      31.164         21.490526      33.272256      22283.453      4384.7491      3013.3688      1917.0852     -918.37427     -1164.9926     -460.93652    
  46600000   265.68309     -411.43083     -322.4501      -411.24425      0              5186.2558      31.164         21.490526      33.273646      22284.384      4365.6373      4440.0338      6753.0961      180.97615      27.098221      605.34384    
  46602000   257.0584      -411.09288     -325.00067     -410.92667      0              3724.8118      31.164         21.490526      33.505463      22439.639      2034.3851      4929.726       4210.3242      727.33955     -172.132        115.99448    
  46604000   260.19423     -415.24423     -328.10179     -415.06242      0              1899.3461      31.164         21.490526      33.456428      22406.799      2298.7273      1312.1292      2087.1817      701.42353     -259.71154      1159.4135    
  46606000   261.83066     -413.6193      -325.9288      -413.44725      0              4162.98        31.164         21.490526      33.291186      22296.131      6585.0319      2230.5578      3673.3505     -210.38911     -1269.2681     -1432.3153    
  46608000   259.36566     -409.37426     -322.50932     -409.22387      0              2894.6547      31.164         21.490526      33.534306      22458.956      3147.8622      4255.7286      1280.3734     -457.9213       1875.1774     -99.445328    
  46610000   256.45586     -411.52763     -325.63722     -411.3629       0              3180.3674      31.164         21.490526      33.497442      22434.267      4246.0298      2508.8017      2786.2706      1258.5248     -565.69828     -1527.8803    
  46612000   265.8584      -412.34071     -323.30127     -412.15225      0              4964.5536      31.164         21.490526      33.517443      22447.662      7632.4698      4503.5177      2757.6732      114.48078     -1591.2239     -362.76895    
  46614000   260.899       -413.42529     -326.04681     -413.2214       0              2790.0355      31.164         21.490526      33.439254      22395.296      1621.3696      4574.3656      2174.3714     -1132.2637      582.23403     -1281.3777    
  46616000   261.77905     -410.50564     -322.83242     -410.3366       0              3863.049       31.164         21.490526      33.336476      22326.463      3567.1132      6209.1126      1812.9212      1199.3471      25.013124     -2280.6091    
  46618000   254.16559     -410.49287     -325.3695      -410.32949      0              2723.9579      31.164         21.490526      33.293253      22297.515      3123.5671      2102.9788      2945.3277      1180.9476     -385.30991     -608.75852    
  46620000   258.62138     -411.01857     -324.40289     -410.87968      0              4203.7207      31.164         21.490526      33.325326      22318.996      2569.007       4917.9855      5124.1697     -24.377518      352.46922     -702.05431    
  46622000   250.98419     -410.62916     -326.57128     -410.43216      0              3680.1529      31.164         21.490526      33.222344      22250.026      4087.9183      2649.5866      4302.9539     -788.66109     -658.21006      708.02514    
  46624000   266.93648     -412.93026     -323.52975     -412.7258       0              3094.3935      31.164         21.490526      33.227922      22253.761      2842.063       4307.8353      2133.2822     -807.66577      102.17787     -1153.9618    
  46626000   261.17441     -412.30544     -324.83472     -412.11872      0              1727.7181      31.164         21.490526      33.159905      22208.208      1020.1504      1900.9383      2262.0654     -1645.1659     -1601.0712     -1115.0195    
  46628000   261.0938      -413.36866     -325.92494     -413.16382      0              5313.5521      31.164         21.490526      33.229347      22254.715      5222.925       6074.7965      4642.9348      1171.3921     -861.10089     -263.19414    
  46630000   258.24142     -410.98632     -324.4979      -410.77994      0              2380.3761      31.164         21.490526      33.265865      22279.173      1383.4153      4989.3587      768.35422      186.92434     -730.40639     -1642.9329    
  46632000   269.92705     -413.91913     -323.51704     -413.72388      0              2861.1889      31.164         21.490526      33.182759      22223.514      2847.9666      2766.849       2968.7511      886.15682     -322.77268      1118.2548    
  46634000   262.81538     -411.73849     -323.71819     -411.56976      0              2674.8328      31.164         21.490526      33.38792       22360.917      1646.3576      2865.838       3512.303       961.42063      1279.1924      1757.0098    
  46636000   260.64908     -408.94592     -321.65115     -408.83074      0              2925.5389      31.164         21.490526      33.44269       22397.598      3328.8882      4275.2696      1172.4589      841.66187     -754.65147     -334.73712    
  46638000   250.86509     -411.97065     -327.95266     -411.77892      0              2777.6976      31.164         21.490526      33.480957      22423.227      2067.3232      2543.131       3722.6386     -815.77712      2353.2918      2960.2963    
  46640000   257.78528     -409.64787     -323.31222     -409.46748      0              3948.3153      31.164         21.490526      33.379634      22355.367      3587.8598      4406.2692      3850.817       516.74905      666.50963      1056.1782    
  46642000   263.41028     -409.82064     -321.6011      -409.61766      0              3329.8238      31.164         21.490526      33.359904      22342.153      3429.2373      3393.416       3166.8179      793.16858     -188.80748      617.93644    
  46644000   262.96678     -414.24238     -326.17138     -414.03644      0              3325.3566      31.164         21.490526      33.370943      22349.547      3667.797       4251.9075      2056.3654      592.98718      847.21709      129.40209    
  46646000   253.76497     -410.73515     -325.74596     -410.5794       0              4357.7435      31.164         21.490526      33.441736      22396.959      4594.6556      5722.7917      2755.7831     -885.05413      708.80737      1319.9469    
  46648000   265.85685     -411.10275     -322.06382     -410.91075      0              3118.0611      31.164         21.490526      33.416279      22379.91       3323.6717      2686.9453      3343.5663      1826.8214     -1014.8545     -333.53374    
  46650000   258.15188     -411.46655     -325.00812     -411.26737      0              4293.5535      31.164         21.490526      33.29973       22301.853      4594.8909      3795.2907      4490.4788     -395.22352     -536.91589      995.46121    
  46652000   257.75658     -411.88318     -325.55714     -411.69611      0              3139.1693      31.164         21.490526      33.396774      22366.846      2999.0133      3607.8398      2810.6546      253.46192     -475.64555     -1258.5755    
  46654000   257.01085     -413.43192     -327.35564     -413.24036      0              3814.7605      31.164         21.490526      33.255013      22271.905      3491.3815      5142.3802      2810.5199      1039.762      -789.61589     -1203.2579    
  46656000   261.98399     -411.49074     -323.74888     -411.30868      0              3060.4063      31.164         21.490526      33.45621       22406.652      1335.4456      4178.1259      3667.6475      507.74153     -1122.0909     -174.46787    
  46658000   261.24625     -412.0414      -324.54663     -411.85475      0              2325.0032      31.164         21.490526      33.531234      22456.899      2086.63        2092.7216      2795.6579      2722.7636     -1491.469       1344.6785    
  46660000   259.64064     -413.34971     -326.39268     -413.14743      0              3814.1696      31.164         21.490526      33.443269      22397.986      3638.0001      4594.3885      3210.1203     -700.60221     -166.14753     -667.12125    
  46662000   262.44285     -413.88298     -325.98745     -413.68516      0              3824.1261      31.164         21.490526      33.376673      22353.384      3764.5538      4910.0219      2797.8026      1791.4713     -1041.618      -95.873286    
  46664000   253.7402      -413.75822     -328.77732     -413.60132      0              802.7951       31.164         21.490526      33.570707      22483.335     -820.41288      3787.8282     -559.02996      1787.438       556.01706      1519.647     
  46666000   258.32998     -412.66036     -326.14229     -412.51315      0              2199.9907      31.164         21.490526      33.538032      22461.451      264.76028      3906.2696      2428.9423      1131.6984      872.3144       481.61908    
  46668000   258.92925     -412.94156     -326.22278     -412.77496      0              2025.9837      31.164         21.490526      33.45974       22409.017      1780.8163      3096.4463      1200.6886     -503.12608     -696.64244     -1258.9392    
  46670000   261.14303     -411.69206     -324.23186     -411.51071      0              2139.1908      31.164         21.490526      33.465124      22412.623      968.86005      3256.0435      2192.6688      11.536618     -308.04454     -845.09408    
  46672000   264.60156     -412.79208     -324.17357     -412.59161      0              2304.4107      31.164         21.490526      33.339645      22328.586      1766.1885      3829.8877      1317.1559      111.96163      585.84385      412.76162    
  46674000   261.061       -410.54113     -323.1084      -410.33455      0              3757.1724      31.164         21.490526      33.42623       22386.574      1655.0525      5062.3658      4554.099      -201.32313      648.62981      1116.8805    
  46676000   264.61441     -411.58978     -322.96697     -411.43995      0              4112.3209      31.164         21.490526      33.388721      22361.453      6177.8351      4522.6084      1636.5192      1460.2121     -1443.7705     -52.276187    
  46678000   258.4163      -413.9393      -327.39231     -413.74897      0              3317.7762      31.164         21.490526      33.29073       22295.826      4763.0008      1694.8008      3495.5271     -1268.0988     -718.03638     -882.97049    
  46680000   261.85372     -408.87715     -321.17892     -408.71386      0              4451.2652      31.164         21.490526      33.461572      22410.244      4288.9951      5676.2206      3388.5799      816.81309     -489.89062      399.08974    
  46682000   264.47473     -410.75176     -322.17572     -410.55243      0              5415.9397      31.164         21.490526      33.475415      22419.515      5297.569       5676.5147      5273.7352     -287.20679     -1255.3713     -1531.0238    
  46684000   268.71929     -411.8557      -321.85811     -411.71755      0              2317.9574      31.164         21.490526      33.561164      22476.944      1512.6798      3752.1196      1689.0728      694.38193      1497.5598      1558.7574    
  46686000   259.33761     -412.82719     -325.97164     -412.62924      0              3456.3481      31.164         21.490526      33.46276       22411.04       3335.8907      2756.0195      4277.1342     -646.14063     -122.8826      -1007.689     
  46688000   259.89302     -411.1759      -324.13434     -411.00237      0              2974.3844      31.164         21.490526      33.315614      22312.491      1185.9114      4016.8692      3720.3727      1179.6921      78.27565      -217.58129    
  46690000   256.43025     -409.53726     -323.65542     -409.39714      0              5060.2383      31.164         21.490526      33.370964      22349.561      6622.5984      2963.0162      5595.1002      841.01626     -774.12147     -1188.8124    
  46692000   264.1432      -411.98642     -323.52142     -411.87869      0              4524.6237      31.164         21.490526      33.234741      22258.328      4316.4342      4788.8205      4468.6165     -143.16289     -81.145762      18.329136    
  46694000   260.56546     -410.88089     -323.61412     -410.72264      0              3904.6083      31.164         21.490526      33.235759      22259.01       5579.6399      4144.2103      1989.9748     -278.11613      850.04031     -943.23862    
  46696000   268.21982     -412.93502     -323.10471     -412.74212      0              2847.1226      31.164         21.490526      33.231923      22256.441      3600.8876      3054.7363      1885.744      -1326.3416      147.5424       890.10827    
  46698000   257.82063     -411.06454     -324.71705     -410.85886      0              2705.4982      31.164         21.490526      33.348347      22334.414      1944.6997      2999.4197      3172.3752     -1513.0661      1416.7599     -1104.5564    
  46700000   257.48166     -412.01124     -325.77728     -411.86652      0              4657.2754      31.164         21.490526      33.402139      22370.44       7424.107       2735.371       3812.3481     -267.10903      938.01608     -747.31435    
  46702000   256.91584     -413.10828     -327.06382     -412.9256       0              2260.8085      31.164         21.490526      33.385691      22359.424      2250.2833      2770.1428      1761.9993     -672.62018     -680.50476      173.14154    
  46704000   256.13402     -412.28342     -326.5008      -412.07701      0              4589.6018      31.164         21.490526      33.297121      22300.106      4427.4052      2261.2901      7080.1101      698.7485       68.301244     -652.84471    
  46706000   260.18698     -413.04654     -325.90653     -412.89593      0              4436.6062      31.164         21.490526      33.663896      22545.746      4075.8612      4996.3314      4237.6261      476.46925     -339.60217      1698.2167    
  46708000   264.35078     -412.50483     -323.9703      -412.35381      0              1959.5011      31.164         21.490526      33.564457      22479.149      4504.2247      1498.1345     -123.85578     -418.62294     -1459.9224     -684.91442    
  46710000   260.0723      -411.54153     -324.43992     -411.34973      0              2897.7017      31.164         21.490526      33.3495        22335.186      1739.6337      2854.6793      4098.7922      426.40887      498.52447      760.39094    
  46712000   259.44569     -411.53871     -324.64696     -411.34936      0              5373.9999      31.164         21.490526      33.224061      22251.175      5259.22        5744.7346      5118.0452      916.31657     -2026.526      -237.7253     
  46714000   261.70793     -412.66494     -325.01555     -412.48233      0              1566.6043      31.164         21.490526      33.158652      22207.369      0.76392775     3424.4365      1274.6126     -344.09335      119.9795       150.01389    
  46716000   259.08118     -410.66232     -323.89266     -410.47425      0              3329.3683      31.164         21.490526      33.328099      22320.853      3170.2277      3214.7628      3603.1144      1697.281       1174.1082     -319.45822    
  46718000   256.71973     -411.63778     -325.659       -411.45964      0              1887.3224      31.164         21.490526      33.234687      22258.292      2201.4876      1723.1195      1737.3601      1164.7463      292.10674     -1437.9076    
  46720000   258.02385     -410.3383      -323.92274     -410.13179      0              4010.4549      31.164         21.490526      33.088627      22160.471      5167.8523      2774.1045      4089.4079      1291.081       1331.7472     -1085.2924    
  46722000   263.44257     -412.95757     -324.72722     -412.7724       0              3473.7185      31.164         21.490526      32.985838      22091.63       4182.3936      2338.9479      3899.814       477.53229     -391.73206     -86.292669    
  46724000   254.18157     -412.14027     -327.01155     -411.9897       0              3658.2656      31.164         21.490526      33.231002      22255.824      3785.6479      4076.9308      3112.2181      2647.287      -1572.5626     -1542.9872    
  46726000   258.37786     -407.3606      -320.82649     -407.1693       0              2273.0458      31.164         21.490526      33.359142      22341.643      1516.4694      3101.3846      2201.2835     -495.42779      73.94429      -1689.6279    
  46728000   261.30794     -411.42064     -323.90521     -411.22881      0              4824.878       31.164         21.490526      33.052584      22136.332      5006.5604      5506.2231      3961.8504     -12.993625      1432.9595     -13.06805     
  46730000   272.52492     -411.21269     -319.94054     -411.0206       0              4084.3728      31.164         21.490526      33.135998      22192.197      3495.3864      2460.8136      6296.9185      353.18223      1104.8372      511.92634    
  46732000   253.59443     -410.4746      -325.54252     -410.29846      0              2540.6438      31.164         21.490526      33.077939      22153.313      1808.8473      3157.7892      2655.295      -805.69491      2272.6557     -273.19521    
  46734000   265.41888     -411.39895     -322.50671     -411.20638      0              5572.8477      31.164         21.490526      33.194712      22231.519      5914.0486      4413.6618      6390.8328     -1298.8916      150.98888     -1280.9516    
  46736000   261.32111     -410.90045     -323.38061     -410.71896      0              2963.382       31.164         21.490526      33.285481      22292.311      3884.6814      2621.5667      2383.898       27.790684     -281.13768     -303.45817    
  46738000   266.18732     -411.92285     -322.77325     -411.7686       0              1172.2285      31.164         21.490526      33.390075      22362.36       1372.2226      1511.383       633.08001     -1249.3938      280.51945     -1827.0959    
  46740000   261.90042     -413.09574     -325.38188     -412.9094       0              1539.6488      31.164         21.490526      33.18333       22223.896      2234.555       2210.7595      173.63198      9.2679048     -0.87837543    -1003.864     
  46742000   253.12101     -409.40739     -324.63386     -409.26244      0              4164.4564      31.164         21.490526      33.205292      22238.606      3168.7806      3470.2807      5854.308       833.06631     -1344.4104      232.20871    
  46744000   254.22314     -410.67689     -325.53425     -410.51888      0              3722.3697      31.164         21.490526      33.225765      22252.316      4759.6232      2852.2535      3555.2323     -778.68767      16.314408     -1867.1756    
  46746000   265.38565     -407.98382     -319.10271     -407.88252      0              4996.7914      31.164         21.490526      33.294932      22298.64       5287.339       3358.3527      6344.6825      857.30913     -373.02345     -225.07051    
  46748000   263.36957     -407.19805     -318.99215     -407.06265      0              1509.1095      31.164         21.490526      33.327037      22320.142      2657.9256      1261.5483      607.8545       224.44959     -1831.5273     -727.79518    
  46750000   248.02138     -412.48513     -329.41954     -412.27992      0              2771.5544      31.164         21.490526      33.362758      22344.065      4345.6218      2539.5769      1429.4644     -476.39008      125.30122     -2556.6132    
  46752000   263.35221     -410.26099     -322.0609      -410.1138       0              4420.0378      31.164         21.490526      33.10364       22170.525      3942.3172      3659.1174      5658.6787      1138.5887      1294.4265     -1368.6629    
  46754000   257.39511     -411.20433     -324.99935     -411.11527      0              2759.1396      31.164         21.490526      33.422834      22384.3        4470.4695      2990.6147      816.33457      593.30019     -1012.3669      98.45403     
  46756000   261.46839     -410.49437     -322.9252      -410.33549      0              3152.7089      31.164         21.490526      33.421672      22383.521      3771.5146      2856.6453      2829.9669     -518.34529      782.76368     -1140.7267    
  46758000   256.69998     -406.65433     -320.68216     -406.514        0              1241.6862      31.164         21.490526      33.563761      22478.683      1669.4415      2574.4607     -518.84362      438.43081      769.93585     -1437.3158    
  46760000   265.91501     -410.45266     -321.39426     -410.31614      0              3937.9473      31.164         21.490526      33.34829       22334.375      4372.3463      4386.5288      3054.9667     -1589.8495      79.899649      263.08087    
  46762000   264.08183     -412.34489     -323.90044     -412.16739      0              2613.3567      31.164         21.490526      33.650306      22536.645      3448.7958      1144.0062      3247.2682     -401.23028      328.61069     -712.22392    
  46764000   267.74643     -409.7526      -320.08083     -409.61444      0              4684.2138      31.164         21.490526      33.569098      22482.257      3924.6435      4878.2413      5249.7566      1039.1015      380.66402      1388.4476    
  46766000   260.24662     -411.80697     -324.64698     -411.63984      0              2663.818       31.164         21.490526      33.432856      22391.012      1219.3944      3951.4264      2820.6332      379.61244     -687.62356     -621.82555    
  46768000   253.36502     -409.82478     -324.96954     -409.70878      0              4108.2764      31.164         21.490526      33.391213      22363.122      4144.7817      3730.8624      4449.185      -986.55302     -406.07525      131.71248    
  46770000   255.4682      -411.38277     -325.82314     -411.18109      0              1444.8263      31.164         21.490526      33.606605      22507.377      1517.1355      795.30423      2022.0392      313.14436      229.99562      428.13667    
  46772000   256.01326     -409.57672     -323.83454     -409.41932      0              1839.6161      31.164         21.490526      33.609307      22509.186      1060.2407      2634.8957      1823.712       2296.7877     -745.8526       604.08964    
  46774000   260.0522      -408.05581     -320.96094     -407.91469      0              3766.0761      31.164         21.490526      33.447909      22401.093      5185.3901      3802.7822      2310.0561      366.85355     -991.56396      1459.877     
  46776000   261.64229     -409.59824     -321.97083     -409.44159      0              1537.5613      31.164         21.490526      33.458543      22408.215      1073.6369      2841.1314      697.91571      1398.052       870.03442      946.97275    
  46778000   264.93741     -409.14279     -320.4118      -409.02376      0              2949.5825      31.164         21.490526      33.771306      22617.682      2928.0035      3442.4861      2478.258      -1257.2994      601.01144      619.34055    
  46780000   257.81343     -409.16648     -322.8214      -409.02986      0              374.33128      31.164         21.490526      33.82285       22652.203      977.15994      785.68506     -639.85117     -933.01322      544.06856     -155.40733    
  46782000   266.76115     -409.41071     -320.06892     -409.32046      0              3315.6779      31.164         21.490526      33.600309      22503.16       3860.841       2705.2112      3380.9814     -1177.0445     -537.64975     -403.23041    
  46784000   257.29906     -409.85302     -323.68021     -409.71169      0              3254.358       31.164         21.490526      33.339114      22328.23       2367.5233      4081.5009      3314.0498     -251.10019     -789.68862     -349.68572    
  46786000   254.47986     -413.09104     -327.86242     -412.95158      0              3262.8113      31.164         21.490526      33.351664      22336.635      3954.0479      1948.3236      3886.0624     -1026.8019      750.12059      1410.3149    
  46788000   260.6267      -410.68173     -323.39445     -410.53167      0              2811.1595      31.164         21.490526      33.423316      22384.622      2078.1158      3761.1173      2594.2454     -264.95026     -259.15782     -822.71589    
  46790000   263.79854     -407.87483     -319.52526     -407.71932      0              3567.1931      31.164         21.490526      33.464792      22412.4        2842.4227      3932.6168      3926.5399     -1152.8358     -1213.6489     -314.86393    
  46792000   260.07436     -410.26966     -323.16737     -410.07984      0              2967.6457      31.164         21.490526      33.275572      22285.674      2156.4241      3844.9135      2901.5994     -170.93674      310.78043      11.842732    
  46794000   255.42408     -410.3178      -324.77294     -410.15711      0              2643.0921      31.164         21.490526      33.277878      22287.218      2795.0534      3037.8714      2096.3514     -75.514921     -447.34706      433.01495    
  46796000   259.38623     -409.22678     -322.35495     -409.03704      0              3652.2744      31.164         21.490526      33.354393      22338.463      3063.8051      4034.0894      3858.9288      743.1889       685.79405      958.42112    
  46798000   264.30795     -408.23182     -319.71164     -408.04117      0              7249.1041      31.164         21.490526      33.405316      22372.567      8087.7731      6969.039       6690.5003     -1385.3368      386.63356      1153.8922    
  46800000   261.26326     -412.77613     -325.27566     -412.58179      0              3773.6854      31.164         21.490526      33.278685      22287.759      3178.4824      3455.3647      4687.209       881.98705      838.79062      573.15011    
  46802000   265.89506     -412.50578     -323.45406     -412.31156      0              4705.6248      31.164         21.490526      33.348734      22334.672      6614.2091      3081.0158      4421.6494      1162.2625      933.3867      -894.16221    
  46804000   268.36545     -409.27825     -319.39916     -409.09257      0              4432.791       31.164         21.490526      33.202666      22236.846      3605.1573      6550.1077      3143.1079      432.25124      442.62341     -613.87226    
  46806000   268.81472     -410.53882     -320.50927     -410.36616      0              3056.1095      31.164         21.490526      33.292016      22296.687      2853.8901      2977.5399      3336.8986     -1448.3387      1381.9756     -1051.0371    
  46808000   258.18015     -410.13686     -323.66896     -409.93421      0              3379.4569      31.164         21.490526      33.330701      22322.596      4178.546       1567.0327      4392.7921      237.83667      596.59682     -38.413134    
  46810000   257.91789     -410.46408     -324.08401     -410.2875       0              2090.0805      31.164         21.490526      33.482749      22424.427     -383.59825      2968.2247      3685.6151     -1048.2025      1089.3811     -305.83129    
  46812000   253.63718     -411.92388     -326.97748     -411.71877      0              4272.2833      31.164         21.490526      33.293502      22297.682      4778.9755      4472.2325      3565.642      -255.90532     -1986.7033      158.26528    
  46814000   255.09904     -414.4031      -328.9671      -414.2124       0              3194.7974      31.164         21.490526      33.436915      22393.73       3141.5009      3826.7968      2616.0945     -423.29316     -826.81716      191.87448    
  46816000   258.24221     -411.49167     -325.00299     -411.30075      0              2531.9013      31.164         21.490526      33.512606      22444.423      3259.6258      3170.1248      1165.9534     -602.16395     -198.08715     -813.82888    
  46818000   254.68763     -409.11835     -323.82014     -408.92274      0              3927.8997      31.164         21.490526      33.403689      22371.478      5327.7339      3489.3881      2966.5771      467.32516     -1189.2225      373.54       
  46820000   260.05394     -413.22863     -326.13318     -413.03796      0              3439.3629      31.164         21.490526      33.504496      22438.991      2721.9315      2887.133       4709.0243     -820.28119      1146.4431      924.80653    
  46822000   256.18208     -412.33124     -326.53252     -412.14018      0              4709.8972      31.164         21.490526      33.493282      22431.481      4776.0638      4190.7803      5162.8476     -345.85454     -1008.5717     -203.86957    
  46824000   258.95832     -414.82151     -328.09299     -414.64439      0              1942.4868      31.164         21.490526      33.521218      22450.191      1638.0748      2879.5952      1309.7906     -1760.6269      489.70454     -864.55703    
  46826000   260.59681     -410.02126     -322.74399     -409.81715      0              1288.1103      31.164         21.490526      33.484397      22425.53       1001.0431      464.70601      2398.5817      776.70247     -1691.0459      1394.098     
  46828000   268.26722     -411.79143     -321.94524     -411.59954      0              3986.3997      31.164         21.490526      33.372817      22350.802      4301.2053      2891.151       4766.8428     -649.91087      1183.1655     -132.49059    
  46830000   256.72084     -412.08749     -326.10833     -411.89526      0              2516.9376      31.164         21.490526      33.363529      22344.581      3180.2948      2776.4702      1594.0477     -1024.5131      141.49485      589.38317    
  46832000   255.66676     -411.79139     -326.16526     -411.59043      0              2524.9074      31.164         21.490526      33.380592      22356.009      3430.3614      18.334431      4126.0263      488.17942      1212.2156     -437.59748    
  46834000   265.53048     -410.87953     -321.94991     -410.68858      0              2848.7441      31.164         21.490526      33.637529      22528.088      2315.3035      2610.6747      3620.2543     -583.18573     -466.59327      2221.2586    
  46836000   257.471       -413.5251      -327.2947      -413.32274      0              2980.7073      31.164         21.490526      33.478634      22421.671      938.45036      4669.6086      3334.063      -93.357183      215.62321     -385.29291    
  46838000   260.06673     -416.4993      -329.39956     -416.34599      0              2888.2783      31.164         21.490526      33.284239      22291.479      1407.7714      3107.8916      4149.1718     -1.4681534      889.68915      128.90573    
  46840000   255.18637     -413.69872     -328.23348     -413.51917      0              1504.7099      31.164         21.490526      33.412148      22377.143      1309.963       1854.706       1349.4607      213.74813     -424.69693     -518.14268    
  46842000   259.96114     -411.66032     -324.59594     -411.47591      0              4158.7074      31.164         21.490526      33.32467       22318.556      4788.0697      3659.3874      4028.6649      1069.7034      585.33243     -10.5641      
  46844000   259.32388     -413.90786     -327.05691     -413.72688      0              3118.8591      31.164         21.490526      33.165574      22212.005      2803.1602      2920.0607      3633.3565      417.32996      1780.7681     -453.8573     
  46846000   249.09224     -413.79229     -330.36805     -413.66035      0              952.0141       31.164         21.490526      33.28115       22289.409      1231.89        1302.5171      321.63517      1465.6855     -1451.2594      508.50057    
  46848000   265.60511     -413.48496     -324.53035     -413.28323      0              4157.8553      31.164         21.490526      33.371638      22350.012      4524.562       3670.5151      4278.4888     -578.96789      842.30659     -494.53623    
  46850000   268.63182     -409.97736     -320.00906     -409.83741      0              3077.2001      31.164         21.490526      33.128255      22187.011      2931.7457      2070.2912      4229.5633      77.765567      1506.7492      280.03863    
  46852000   253.076       -414.05338     -329.29493     -413.86319      0              4898.3885      31.164         21.490526      33.439193      22395.256      5445.1168      4296.2931      4953.7557      760.9992       1132.3804     -1788.6409    
  46854000   265.9077      -411.4237      -322.36775     -411.28877      0              4723.4632      31.164         21.490526      33.499842      22435.875      5997.2788      4860.4317      3312.6791     -202.46066      1122.635      -2012.322     
  46856000   256.92325     -411.06245     -325.0155      -410.87412      0              1757.6729      31.164         21.490526      33.583988      22492.229      2938.7292      1821.4827      512.80666     -889.57093     -854.95984     -990.82366    
  46858000   262.68994     -406.52396     -318.54568     -406.40209      0              3485.5185      31.164         21.490526      33.619318      22515.891      5352.5771      2594.4649      2509.5135      791.21671      380.49663      104.67692    
  46860000   257.76646     -411.78636     -325.45701     -411.60634      0              1791.0871      31.164         21.490526      33.637576      22528.119      913.72668      2560.478       1899.0565      1455.9403      711.88811     -1084.6404    
  46862000   265.43413     -410.43244     -321.5351      -410.24854      0              3147.5882      31.164         21.490526      33.412342      22377.273      2325.4868      3360.9138      3756.3639     -213.60848      904.72249     -265.4915     
  46864000   256.63266     -411.40651     -325.45689     -411.20091      0              3574.0746      31.164         21.490526      33.487146      22427.372      3261.834       5194.6807      2265.7091     -459.90942      728.93777     -782.65949    
  46866000   259.49944     -411.11623     -324.20649     -410.94191      0              1906.1446      31.164         21.490526      33.594285      22499.126      3592.0707      1611.6649      514.69826     -204.08578      713.03908     -83.650535    
  46868000   261.07125     -411.13807     -323.7019      -410.94193      0              4217.2811      31.164         21.490526      33.331747      22323.296      5819.4112      3458.0256      3374.4065      371.28023      519.58136      1570.8465    
  46870000   267.45889     -409.57564     -320.00017     -409.37325      0              3970.8323      31.164         21.490526      33.240264      22262.027      5002.3651      4758.1931      2151.9387     -644.41383      815.23625      592.33447    
  46872000   262.34721     -411.47187     -323.60837     -411.26633      0              4284.4808      31.164         21.490526      33.160919      22208.887      4304.0613      4716.4644      3832.9167      621.39519      379.54803     -558.65752    
  46874000   260.10908     -409.18109     -322.06717     -408.97529      0              3294.167       31.164         21.490526      33.456972      22407.163      3200.7892      4023.3496      2658.3623     -1245.1745      2020.3095     -254.50858    
  46876000   262.09981     -408.6167      -320.83606     -408.42664      0              3763.2608      31.164         21.490526      33.397809      22367.54       3355.3892      3762.1513      4172.2419      530.62136      87.263884     -1615.2413    
  46878000   261.62668     -410.59146     -322.96927     -410.38558      0              2681.0452      31.164         21.490526      33.444408      22398.748      2464.708       3484.5928      2093.8347     -621.83012      1290.9658     -1932.804     
  46880000   260.78798     -409.94924     -322.60795     -409.7689       0              1742.3988      31.164         21.490526      33.402866      22370.927      1838.6026      3417.79       -29.19639       1647.7062      181.7877      -55.219242    
  46882000   266.23449     -407.59223     -318.42683     -407.41197      0              2578.5382      31.164         21.490526      33.484235      22425.422      2580.0779      1240.6793      3914.8572      1385.9192      419.98555     -161.12157    
  46884000   254.52536     -410.8383      -325.59444     -410.63709      0              198.78511      31.164         21.490526      33.473218      22418.043      1987.4002     -1671.3614      280.31649      997.94815      1290.6772     -59.310232    
  46886000   257.8416      -411.86216     -325.50764     -411.67034      0              3698.9688      31.164         21.490526      33.436214      22393.261      4320.6001      3902.9603      2873.3461     -1192.8101      319.32214     -1758.9525    
  46888000   258.13205     -408.91293     -322.46114     -408.74099      0             -505.83683      31.164         21.490526      33.706051      22573.979     -1428.5272      175.29536     -264.2786      -1893.157       164.36085      168.27507    
  46890000   262.23795     -409.56381     -321.7369      -409.37869      0              1485.0884      31.164         21.490526      33.580611      22489.968      978.753        3338.9432      137.56894     -1155.3863     -3051.0671     -855.60618    
  46892000   264.48304     -410.65693     -322.07811     -410.5072       0              2547.7831      31.164         21.490526      33.518522      22448.385      2180.2582      3001.2321      2461.859      -105.08431     -382.7827       619.86051    
  46894000   256.00445     -414.71365     -328.97442     -414.5255       0              3500.3435      31.164         21.490526      33.459045      22408.551      2939.2652      4478.5983      3083.167      -1218.8318      1040.7037      427.22904    
  46896000   260.28674     -410.31267     -323.13925     -410.10739      0              4600.5196      31.164         21.490526      33.425513      22386.094      3855.2876      4832.1532      5114.1179     -850.23897      1131.4503      197.73888    
  46898000   264.91219     -408.05909     -319.33654     -407.9344       0              2150.0866      31.164         21.490526      33.628683      22522.163      2942.2183      3207.782       300.2596       532.64373      680.48122      1039.2085    
  46900000   263.74595     -409.57131     -321.23935     -409.45917      0              4903.5945      31.164         21.490526      33.463367      22411.446      4415.5761      4972.1187      5323.0887     -479.26941     -1357.8006      595.68126    
  46902000   261.97261     -411.42043     -323.68238     -411.24499      0              1285.837       31.164         21.490526      33.449623      22402.241      421.49155      1718.1282      1717.8913      962.77748      232.57901      717.85199    
  46904000   258.37284     -411.27473     -324.7423      -411.11577      0              1923.8965      31.164         21.490526      33.355482      22339.192      786.53991      1866.1923      3118.9572      32.91979       1061.3213     -801.16375    
  46906000   261.74608     -410.33739     -322.67521     -410.13204      0              3781.4082      31.164         21.490526      33.438136      22394.548      2396.6837      5110.2372      3837.3038     -532.46861      1281.0533      267.67939    
  46908000   258.25939     -410.51236     -324.01793     -410.3644       0              3773.6507      31.164         21.490526      33.553188      22471.602      2964.8194      4622.4193      3733.7133      228.37129      938.30937     -144.05832    
  46910000   260.27903     -409.36106     -322.19022     -409.17638      0              4330.9144      31.164         21.490526      33.424971      22385.731      4564.4553      5314.096       3114.192      -1091.987       88.713046      173.18036    
  46912000   250.27862     -410.98047     -327.1589      -410.81238      0              3639.6816      31.164         21.490526      33.430552      22389.468      4250.1064      4101.2308      2567.7078      103.81384      427.28506     -608.46599    
  46914000   266.80684     -408.39135     -319.03427     -408.20101      0              2818.6491      31.164         21.490526      33.369397      22348.511      3610.2457      3189.4968      1656.2046     -2308.5582      983.81244     -440.47593    
  46916000   262.96989     -409.68848     -321.61644     -409.49903      0              4244.0072      31.164         21.490526      33.357388      22340.469      4879.1637      3600.1001      4252.7578     -389.98355     -444.56372      22.082057    
  46918000   269.25305     -413.51088     -323.33452     -413.32121      0              2715.2108      31.164         21.490526      33.349949      22335.486      3387.0147      2394.7179      2363.8999     -166.28726     -662.33264     -95.788186    
  46920000   253.60931     -412.25774     -327.32067     -412.05359      0              2520.0275      31.164         21.490526      33.104168      22170.879      1588.5255      2062.3073      3909.2495     -503.33502     -89.55379      -497.71088    
  46922000   255.07138     -413.19204     -327.76531     -413.00545      0              3808.0715      31.164         21.490526      33.418906      22381.669      3962.578       5294.5076      2167.1289     -293.56128     -317.42022     -4.5305486    
  46924000   257.2826      -410.94685     -324.77955     -410.80594      0              932.84418      31.164         21.490526      33.413711      22378.19       2431.6753     -569.18273      936.03994      653.18061     -221.54424      409.359      
  46926000   256.0638      -411.18171     -325.42261     -410.99062      0              1213.9781      31.164         21.490526      33.349891      22335.447     -1282.5451      2810.8707      2113.6085     -127.49421     -246.02512      254.43661    
  46928000   257.06891     -408.39085     -322.29512     -408.20599      0              1909.0035      31.164         21.490526      33.2825        22290.314      1273.9598      1310.6793      3142.3714     -483.27432      2095.8001      138.2685     
  46930000   258.91061     -411.17206     -324.45953     -410.9818       0              2844.1486      31.164         21.490526      33.085251      22158.21       5227.7848      2521.8434      782.81753     -457.77284     -621.45868     -791.51938    
  46932000   264.22723     -412.71455     -324.22141     -412.52306      0              3301.3018      31.164         21.490526      33.280721      22289.122      3626.0188      2742.2632      3535.6233      1701.1425     -978.32692     -1325.6872    
  46934000   263.38998     -411.30152     -323.08878     -411.09532      0              4115.2986      31.164         21.490526      33.061043      22141.997      3856.9062      4602.2729      3886.7167      132.84513      837.90577      39.888912    
  46936000   268.04526     -412.82448     -323.05263     -412.63418      0              3599.0095      31.164         21.490526      33.268138      22280.695      3396.3938      3301.2617      4099.3729      110.79214     -511.06101     -1560.3542    
  46938000   256.37494     -408.27587     -322.41256     -408.07026      0              3740.3023      31.164         21.490526      33.238781      22261.034      2420.8854      3851.8551      4948.1665     -568.96823      519.62863      250.1975     
  46940000   263.39828     -413.56325     -325.34773     -413.35788      0              3365.9516      31.164         21.490526      33.153743      22204.081      2273.0134      4405.9149      3418.9265      269.56312     -34.87847       1001.0818    
  46942000   259.45135     -415.29871     -328.40507     -415.10187      0              3009.536       31.164         21.490526      33.072935      22149.962      1316.9927      2973.4498      4738.1653     -68.65117       320.70005      510.09654    
  46944000   256.31804     -411.60984     -325.76559     -411.42246      0              4059.6044      31.164         21.490526      33.071648      22149.1        3984.0282      4739.2464      3455.5386      1615.3425      1155.2333      701.65271    
  46946000   260.02018     -413.82852     -326.74437     -413.62315      0              3444.4508      31.164         21.490526      33.243208      22263.999      2409.2501      3674.8541      4249.248       318.20191      401.4595       201.22128    
  46948000   257.92759     -412.96592     -326.58261     -412.76515      0              3526.3546      31.164         21.490526      33.355215      22339.013      4326.6757      3691.4332      2560.9549     -802.71852      276.13535     -55.241038    
  46950000   257.36062     -411.50532     -325.31189     -411.29953      0              1716.1771      31.164         21.490526      33.459876      22409.108      2002.6515      1151.1259      1994.7538      596.59933     -442.97562     -1415.4179    
  46952000   261.87549     -411.83338     -324.12786     -411.65915      0              3316.1189      31.164         21.490526      33.593627      22498.685      4625.3251      2298.0042      3025.0274      174.68366     -2130.1416      1552.1427    
  46954000   266.09833     -413.30703     -324.18723     -413.10839      0              2541.3112      31.164         21.490526      33.49841       22434.915      1733.5061      2639.9751      3250.4523      2036.2202      505.04574     -594.52816    
  46956000   257.64972     -411.62828     -325.33803     -411.43177      0              2990.6191      31.164         21.490526      33.171167      22215.75       2630.2836      1648.0751      4693.4985     -103.1035       1062.4388     -942.92562    
  46958000   259.91804     -408.57874     -321.5288      -408.37991      0              4663.8618      31.164         21.490526      33.287718      22293.808      3264.7345      5425.3479      5301.5031     -154.10102     -104.65272     -0.43894088   
  46960000   263.7743      -411.03089     -322.68944     -410.8256       0              3502.3039      31.164         21.490526      33.327527      22320.47       3540.7156      3589.3305      3376.8656     -614.18589      1988.65       -884.05887    
  46962000   250.52189     -408.19583     -324.29278     -408.00535      0              3707.3547      31.164         21.490526      33.393684      22364.777      3233.2419      3861.102       4027.7202     -953.68138      1247.2492      133.36974    
  46964000   255.82718     -412.11037     -326.43052     -411.91976      0              876.86818      31.164         21.490526      33.332762      22323.976      1308.0635      500.90299      821.63808     -1100.4246      576.17151     -1072.6518    
  46966000   265.10847     -411.25092     -322.46263     -411.0465       0              3128.0506      31.164         21.490526      33.303016      22304.054      2161.0435      2939.3899      4283.7184      869.98879      856.49181      630.20497    
  46968000   265.07849     -412.23804     -323.45979     -412.05272      0              3232.2286      31.164         21.490526      33.198931      22234.345      2908.4832      2320.056       4468.1464     -165.54212     -1093.3961      664.65318    
  46970000   249.64773     -412.49192     -328.88164     -412.28597      0              1494.5703      31.164         21.490526      33.226341      22252.703      1154.4389      1836.6824      1492.5896     -1042.8907     -422.00345     -1670.217     
  46972000   257.92588     -410.91954     -324.5368      -410.74664      0              5403.1238      31.164         21.490526      33.366667      22346.683      6805.9039      4658.09        4745.3775      2749.8857      494.31295      333.04441    
  46974000   265.01809     -408.03162     -319.2736      -407.86633      0              3478.0186      31.164         21.490526      33.288353      22294.234      2712.1194      4622.8484      3099.0881      908.65359      936.5548      -846.43569    
  46976000   259.63324     -411.86905     -324.91449     -411.67398      0              1721.0462      31.164         21.490526      33.458134      22407.941      1179.2103      2946.3905      1037.5378     -126.8352      -63.755292      1021.0357    
  46978000   258.27002     -411.51229     -325.0143      -411.33747      0              3409.6596      31.164         21.490526      33.245804      22265.737      6181.7878      1844.867       2202.3239     -87.993719     -2116.0578      298.97082    
  46980000   255.77307     -410.31964     -324.6579      -410.18284      0              3469.8002      31.164         21.490526      33.328494      22321.117      3261.9685      5023.7413      2123.6909      2355.6984      1001.1316      943.54407    
  46982000   264.93812     -410.31255     -321.58132     -410.11925      0              4550.0711      31.164         21.490526      33.206833      22239.637      5293.1873      5469.6333      2887.3928     -553.55314     -2260.421       294.81676    
  46984000   248.33024     -409.81608     -326.64705     -409.63695      0              2732.8422      31.164         21.490526      33.154313      22204.463      2858.3785      2846.9634      2493.1846     -571.26733     -109.32097     -743.07086    
  46986000   258.33363     -410.95525     -324.43595     -410.79886      0              3633.4573      31.164         21.490526      33.169338      22214.525      3129.8866      3281.1894      4489.2959     -980.43438      1715.2436     -841.87437    
  46988000   260.45929     -410.62361     -323.3924      -410.48061      0              2395.0438      31.164         21.490526      33.268021      22280.616      1152.1961      2468.0979      3564.8373      89.229065      1729.0996     -384.67105    
  46990000   256.88254     -409.68865     -323.65534     -409.59305      0              2871.0043      31.164         21.490526      33.337796      22327.347      1546.0607      3473.1267      3593.8254      536.20337      1217.3973     -59.462272    
  46992000   250.82963     -414.6363      -330.63019     -414.48168      0              3444.0902      31.164         21.490526      33.331926      22323.416      2264.6886      4438.8954      3628.6865     -261.26966     -228.76695     -1413.4394    
  46994000   254.30527     -412.49861     -327.32846     -412.34219      0              2296.8001      31.164         21.490526      33.318365      22314.334      1224.3404      1888.9623      3777.0976     -485.55108      823.34268      1150.8235    
  46996000   256.14201     -412.13774     -326.35244     -412.01921      0              3619.7825      31.164         21.490526      33.401982      22370.334      2565.4597      4083.1779      4210.7099     -332.86005     -165.21313      383.34219    
  46998000   256.51856     -414.13582     -328.22441     -414.00922      0              3874.2935      31.164         21.490526      33.58937       22495.834      4332.234       3784.9658      3505.6807     -258.47959      771.98303      1038.0299    
  47000000   252.51816     -411.08409     -326.51246     -410.97358      0              3605.8576      31.164         21.490526      33.554737      22472.639      4576.1076      3787.8787      2453.5866      681.54008     -843.06359      747.54766    
  47002000   264.66971     -411.56923     -322.9279      -411.40511      0              2312.6111      31.164         21.490526      33.48975       22429.116      3039.146       1977.4814      1921.206      -1281.681      -900.21187      856.94114    
  47004000   264.37149     -415.24891     -326.70746     -415.10323      0              4358.3652      31.164         21.490526      33.453429      22404.79       4264.1804      4137.1878      4673.7275      705.10616     -491.54594      1297.8738    
  47006000   260.86        -411.77194     -324.40653     -411.67236      0              4089.9821      31.164         21.490526      33.35253       22337.215      1870.6657      4034.953       6364.3277      227.06469      1147.214       430.29106    
  47008000   258.43895     -411.9369      -325.38232     -411.8129       0              4874.1152      31.164         21.490526      33.428015      22387.769      2917.4098      5697.4668      6007.469       940.30072     -1452.9775     -2495.1488    
  47010000   264.95486     -409.26876     -320.53193     -409.13171      0              2288.0323      31.164         21.490526      33.277136      22286.721      1177.5042      4912.9091      773.6837       1484.0796     -440.92997      699.92039    
  47012000   255.05447     -410.04441     -324.62335     -409.88217      0              3161.476       31.164         21.490526      33.264231      22278.078      3727.0071      3081.0828      2676.3382      392.65296     -716.82425     -639.87201    
  47014000   264.32187     -413.33248     -324.80764     -413.16511      0              3733.68        31.164         21.490526      33.391657      22363.42       3140.3363      2302.0912      5758.6123     -109.2444      -2289.4118      118.00256    
  47016000   261.89068     -414.90719     -327.19659     -414.76307      0              4100.2581      31.164         21.490526      33.120032      22181.504      4747.1977      5036.4001      2517.1767      653.76647     -632.24792      947.14046    
  47018000   256.7885      -413.94754     -327.94573     -413.79182      0              4315.0849      31.164         21.490526      33.215951      22245.744      5428.021       1627.352       5889.8817     -1120.9243     -235.81339     -1364.4432    
  47020000   251.53815     -412.37051     -328.12711     -412.2669       0              4769.1094      31.164         21.490526      33.283684      22291.107      5891.0716      2637.2491      5779.0076      449.47093      980.88584      1627.822     
  47022000   262.46647     -411.11451     -323.21106     -411.02358      0              4141.709       31.164         21.490526      33.174648      22218.082      2944.3321      5707.5354      3773.2596      2092.7207     -1216.8881     -1191.9381    
  47024000   260.85046     -409.94247     -322.58025     -409.81333      0              4839.0339      31.164         21.490526      33.165537      22211.98       6132.3155      2810.1463      5574.64        1732.972      -958.79927     -757.78975    
  47026000   261.59268     -411.98895     -324.37815     -411.87705      0              1624.3355      31.164         21.490526      33.266427      22279.549      781.70384      2296.1509      1795.1518      838.60084     -213.96623     -38.509822    
  47028000   259.07551     -411.38055     -324.61278     -411.24255      0              2680.505       31.164         21.490526      33.410652      22376.141      1237.5237      4281.1778      2522.8135     -228.96483     -358.76483     -383.83068    
  47030000   257.03367     -413.71684     -327.63291     -413.60212      0              5298.3295      31.164         21.490526      33.417852      22380.963      6268.0922      3735.2281      5891.6682     -180.02744      54.702059      1521.7729    
  47032000   250.35148     -409.43128     -325.58531     -409.32409      0              3098.341       31.164         21.490526      33.234459      22258.139      3823.4644      2821.4532      2650.1053      359.80668      1058.7874      408.84336    
  47034000   260.68581     -413.21449     -325.90742     -413.10168      0              3373.2174      31.164         21.490526      33.28924       22294.828      3457.5669      4018.1066      2643.9787      224.02575     -120.7392       687.96562    
  47036000   261.8019      -412.00441     -324.32354     -411.8652       0              2116.7713      31.164         21.490526      33.219655      22248.225      1790.9351      2641.6071      1917.7717     -339.06789     -102.96801     -346.81111    
  47038000   264.82386     -413.34078     -324.64782     -413.17035      0              5040.0289      31.164         21.490526      33.387491      22360.629      5814.5249      6223.289       3082.2727     -36.413399     -1074.5876     -473.22092    
  47040000   262.74413     -409.72255     -321.72612     -409.57564      0              4739.0881      31.164         21.490526      33.434077      22391.829      4396.5183      5560.9593      4259.7868     -1631.9116      694.88892     -1577.4552    
  47042000   257.65879     -413.31978     -327.02649     -413.13202      0              4933.3326      31.164         21.490526      33.355371      22339.118      3755.1695      5921.6249      5123.2034      370.0509      -221.44863     -19.15713     
  47044000   260.4533      -414.02012     -326.79092     -413.83078      0              2414.4262      31.164         21.490526      33.268769      22281.118      1954.4693      2882.2341      2406.5752      283.21426     -1316.8142      310.2792     
  47046000   254.85818     -408.93555     -323.58022     -408.80531      0              1712.3828      31.164         21.490526      33.475449      22419.537      2572.7792      1604.7449      959.62424     -330.99373     -639.98347     -1216.4267    
  47048000   263.67411     -410.04425     -321.73635     -409.90154      0              3118.8216      31.164         21.490526      33.365641      22345.996      3545.0177      769.15745      5042.2897      406.90792     -1904.2259      255.82997    
  47050000   261.11553     -413.60625     -326.15526     -413.41197      0              3309.4375      31.164         21.490526      33.375976      22352.918      2651.4227      2829.3443      4447.5454      199.89865      608.30617     -504.1381     
  47052000   270.67096     -410.42001     -319.76878     -410.23721      0              1147.6643      31.164         21.490526      33.465262      22412.715      763.22875      2044.7112      635.05299      1265.2839      393.70713      99.313895    
  47054000   258.6686      -410.67949     -324.048       -410.50553      0              2894.079       31.164         21.490526      33.37336       22351.165      1031.1498      3573.002       4078.0852      434.80513      418.75658     -312.59459    
  47056000   259.19198     -411.27932     -324.47255     -411.16484      0              1953.468       31.164         21.490526      33.429412      22388.705      1981.9222      1006.7584      2871.7235      553.6733       745.04817     -115.27087    
  47058000   262.48204     -414.38948     -326.48082     -414.20959      0              1939.4971      31.164         21.490526      33.499609      22435.719      3348.031       1091.8216      1378.6387      1823.647       1075.7574      794.95291    
  47060000   265.42685     -413.86406     -324.96915     -413.7151       0              3009.929       31.164         21.490526      33.636509      22527.404      2755.5363      1977.0855      4297.1651     -953.60225     -1106.022      -631.16361    
  47062000   255.6822      -411.76702     -326.13572     -411.59853      0              948.17273      31.164         21.490526      33.792253      22631.711      1650.8502      343.14689      850.52108      97.182121     -895.02653      1458.4427    
  47064000   252.57396     -410.07011     -325.4798      -409.92465      0              2856.7033      31.164         21.490526      33.680318      22556.745      3715.739       2865.8551      1988.5158     -619.99321      468.14789     -118.50917    
  47066000   254.45143     -414.29023     -329.07113     -414.15921      0              1732.6715      31.164         21.490526      33.586638      22494.004      3338.8085      2595.9608     -736.75486     -228.9691      -2887.5058     -324.42537    
  47068000   267.3027      -413.66494     -324.14178     -413.52052      0              3242.4216      31.164         21.490526      33.367619      22347.321      2932.2253      4330.644       2464.3955      1969.0971      94.650634      356.55509    
  47070000   260.26639     -413.5998      -326.43319     -413.42668      0              3948.5102      31.164         21.490526      33.39535       22365.893      4568.7265      2117.6         5159.204       573.09588      1182.6446      645.04923    
  47072000   260.99342     -412.23449     -324.82439     -412.10138      0              2279.3704      31.164         21.490526      33.622986      22518.348      2872.3814      1260.3537      2705.3762     -91.654875     -166.76079      1005.6896    
  47074000   263.92965     -411.71332     -323.31983     -411.61207      0              2990.0341      31.164         21.490526      33.659021      22542.481      4343.6965      2206.1587      2420.247       1883.6191     -827.88388      1700.9344    
  47076000   259.01041     -411.88472     -325.13876     -411.75243      0              1126.1205      31.164         21.490526      33.611459      22510.628      2445.041       1617.5427     -684.22215     -2355.739       1213.1252      211.83539    
  47078000   257.27495     -412.26061     -326.09588     -412.15726      0              2116.4315      31.164         21.490526      33.571112      22483.606      1052.4898      2466.2853      2830.5193      144.14567      271.44732      2087.3323    
  47080000   261.82331     -412.34494     -324.6569      -412.20474      0              2116.8999      31.164         21.490526      33.584662      22492.681      3268.0089      392.61651      2690.0744     -656.54426     -21.722298      886.38488    
  47082000   269.05107     -412.20546     -322.09675     -412.03392      0              2190.601       31.164         21.490526      33.512284      22444.207      3730.9285      1178.4431      1662.4313      264.79391     -476.91988     -1825.137     
  47084000   251.80417     -413.37303     -329.04053     -413.23782      0              2063.6816      31.164         21.490526      33.413615      22378.126      1596.1365      461.73939      4133.169      -515.09167      337.28566     -881.0736     
[...]
  53706000   261.55092     -409.29652     -321.69971     -409.16824      0              4856.5229      31.164         21.490526      33.44032       22396.011      4905.681       4505.7875      5158.1001      521.31569     -792.77641     -501.20875    
  53708000   268.18671     -410.23756     -320.41833     -410.10979      0              2675.5504      31.164         21.490526      33.366431      22346.525      1845.4808      3434.7432      2746.4271     -642.73514      408.59508     -1295.9767    
  53710000   264.3288      -410.35758     -321.83042     -410.25008      0              4433.5645      31.164         21.490526      33.311534      22309.758      2685.4637      5463.3451      5151.8848      149.35821     -366.4223      -607.07075    
  53712000   254.11552     -413.94102     -328.83442     -413.83551      0              4165.9723      31.164         21.490526      33.488979      22428.599      4716.4533      2229.7496      5551.7138     -495.46412     -425.5728       668.49611    
  53714000   252.60376     -411.18171     -326.58141     -411.07137      0              2566.1606      31.164         21.490526      33.496062      22433.343      2169.7632      3259.4019      2269.3168     -123.28873      645.03915      670.7804     
  53716000   265.26306     -411.35519     -322.51513     -411.25272      0              3437.9173      31.164         21.490526      33.496786      22433.828      1916.6429      4523.371       3873.7382      1273.1832     -498.74232      690.08233    
  53718000   262.00953     -410.80501     -323.05461     -410.73398      0              2299.0154      31.164         21.490526      33.417336      22380.617      1340.8304      1148.0127      4408.203      -660.4938      -791.53691      483.88298    
  53720000   257.08989     -411.84898     -325.74623     -411.74915      0              4602.9286      31.164         21.490526      33.415124      22379.136      3419.1683      5539.409       4850.2085      1074.0869     -756.1684      -476.82623    
  53722000   267.72939     -410.72002     -321.05396     -410.63477      0              3457.9471      31.164         21.490526      33.405443      22372.653      3421.532       2965.4065      3986.9027     -2837.7834     -495.32177     -1450.3528    
  53724000   254.91161     -410.94636     -325.57314     -410.82819      0              3791.632       31.164         21.490526      33.360588      22342.612      4622.1717      2700.9435      4051.7807     -1093.55        81.932106     -588.40923    
  53726000   257.91561     -408.62205     -322.24275     -408.51854      0              3286.4011      31.164         21.490526      33.331328      22323.015      3667.9221      3281.8377      2909.4435     -625.79771     -380.13114     -322.56009    
  53728000   254.14917     -406.58641     -321.46854     -406.46639      0              3615.0497      31.164         21.490526      33.237037      22259.866      4271.9645      2336.7285      4236.4562     -831.08112      497.92383     -453.41515    
  53730000   260.83089     -413.26269     -325.90703     -413.10562      0              3791.8405      31.164         21.490526      33.314201      22311.545      5159.9338      2105.9037      4109.684      -417.87188      1291.4703     -299.11355    
  53732000   253.45393     -408.14307     -323.25805     -408.02235      0              5411.4518      31.164         21.490526      33.392965      22364.296      7441.4922      4328.9354      4463.928      -1543.2696     -309.3019      -1190.5904    
  53734000   265.82188     -410.95481     -321.9276      -410.86583      0              2835.257       31.164         21.490526      33.127237      22186.329      2239.9994      1784.2759      4481.4958     -536.27848     -549.49911      957.40599    
  53736000   260.76693     -409.67294     -322.33869     -409.55573      0              3482.9369      31.164         21.490526      33.255949      22272.532      2350.4764      5332.3604      2765.9739      109.59988      450.63572     -477.19943    
  53738000   255.20612     -408.60282     -323.13096     -408.51573      0              3659.5801      31.164         21.490526      33.432814      22390.984      2763.1695      5248.6875      2966.8832     -1102.4576     -1807.4675     -779.53009    
  53740000   256.0761      -411.85288     -326.08965     -411.73118      0              1951.9702      31.164         21.490526      33.302036      22303.398      2334.104       2414.2277      1107.5788      812.90366      1749.3561      904.42918    
  53742000   259.10563     -411.64548     -324.86763     -411.5083       0              4378.8404      31.164         21.490526      33.20389       22237.666      2460.3445      4578.6957      6097.4809     -671.41614      1453.112      -1091.0216    
  53744000   257.72425     -410.21991     -323.9047      -410.1219       0              1338.5979      31.164         21.490526      33.464946      22412.503     -331.03626      2432.3099      1914.5202     -819.96476      298.31884      243.07344    
  53746000   254.90195     -412.11998     -326.74999     -411.96385      0              3004.0823      31.164         21.490526      33.327475      22320.435      279.46748      4718.5434      4014.2361      453.16605      771.68467      470.45465    
  53748000   256.57524     -411.59395     -325.66356     -411.42404      0              4331.8319      31.164         21.490526      33.009968      22107.791      5398.5005      3357.5374      4239.4578     -1222.7759      545.2489      -229.59042    
  53750000   259.7233      -408.68777     -321.70305     -408.56178      0              3882.5941      31.164         21.490526      33.29886       22301.271      4348.3981      3009.2491      4290.1351     -68.619568     -1173.1817     -861.03289    
  53752000   260.35639     -408.57132     -321.37457     -408.44456      0              3410.8771      31.164         21.490526      33.474829      22419.122      2845.9054      3659.4475      3727.2785      1287.4952      896.22727      404.82607    
  53754000   256.01499     -411.75686     -326.01411     -411.64243      0              4030.5852      31.164         21.490526      33.320472      22315.745      4076.0042      4817.8554      3197.8962     -656.85243     -8.0237126     -646.73847    
  53756000   257.61919     -410.50603     -324.226       -410.36545      0              4058.6365      31.164         21.490526      33.392333      22363.872      2846.9935      3989.9702      5338.9457     -1170.5852      1167.5455     -607.99824    
  53758000   261.42085     -411.36329     -323.81004     -411.21508      0              3897.6585      31.164         21.490526      33.392921      22364.266      2143.4204      3651.12        5898.4349     -822.04452      1457.6513     -395.79044    
  53760000   258.19844     -410.73993     -324.2659      -410.62368      0              1734.4221      31.164         21.490526      33.223727      22250.951      1166.2246      536.8949       3500.1468      353.5526       1776.8505     -528.72175    
  53762000   255.29025     -412.40153     -326.9015      -412.25854      0              2455.4845      31.164         21.490526      33.220398      22248.722      2258.1347      2988.8135      2119.5053     -516.77923      249.00356     -370.66304    
  53764000   255.78414     -409.98237     -324.31693     -409.87049      0              2672.6362      31.164         21.490526      33.365497      22345.9        2386.823       591.74018      5039.3455     -220.37024      414.14663      792.35961    
  53766000   260.73047     -411.15746     -323.83543     -411.04322      0              3402.2635      31.164         21.490526      33.298586      22301.087      2680.0742      4115.1252      3411.5909      914.58124      1810.1042     -1205.4136    
  53768000   266.28044     -410.59252     -321.41173     -410.44345      0              1958.593       31.164         21.490526      33.406506      22373.364      1076.0793      2742.5868      2057.113       272.41491      624.07937     -20.334278    
  53770000   266.92993     -409.49492     -320.09661     -409.35191      0              2804.7198      31.164         21.490526      33.419729      22382.22       731.38755      4740.0231      2942.7488     -324.71184      73.865702      629.47149    
  53772000   259.54902     -412.17723     -325.25088     -412.03423      0              4735.8619      31.164         21.490526      33.33653       22326.5        3684.5854      3924.9627      6598.0376     -499.92629     -370.5557      -420.72936    
  53774000   262.78838     -412.42033     -324.40908     -412.2701       0              4316.5993      31.164         21.490526      33.275239      22285.451      2491.0024      5616.2006      4842.595       68.458769     -589.49146     -106.50245    
  53776000   256.63951     -411.36001     -325.40809     -411.21294      0              4156.6203      31.164         21.490526      33.518547      22448.401      4199.323       5342.0828      2928.4553     -634.21766      416.49017     -647.65409    
  53778000   252.02165     -412.60147     -328.19613     -412.46378      0              1020.6644      31.164         21.490526      33.49951       22435.652     -548.79448      1276.728       2334.0597     -1009.2948      347.79608     -587.57138    
  53780000   263.37148     -412.01015     -323.8036      -411.82211      0              2531.5636      31.164         21.490526      33.46966       22415.661      2052.1692      3496.8884      2045.6331      268.06237     -149.61819      905.99907    
  53782000   252.13651     -410.30331     -325.8595      -410.16223      0              3187.7251      31.164         21.490526      33.351917      22336.804      3781.7597      2218.5265      3562.8891     -99.440704     -1296.4722      1083.3263    
  53784000   252.58398     -413.58932     -328.99566     -413.458        0              3266.2745      31.164         21.490526      33.548807      22468.668      3530.5468      2245.8785      4022.3982      147.31953      2292.3101      989.49711    
  53786000   262.09921     -411.19513     -323.41468     -411.06433      0              534.25269      31.164         21.490526      33.449361      22402.066     -1589.9277      789.11683      2403.5689      285.67111      648.14466      749.46623    
  53788000   261.39194     -413.17116     -325.62759     -412.98536      0              3552.1936      31.164         21.490526      33.425357      22385.989      3159.1104      2572.3218      4925.1486     -347.21425      442.00366      1233.8444    
  53790000   264.92602     -408.83166     -320.10449     -408.6956       0              2227.8969      31.164         21.490526      33.566874      22480.767      921.47982      1811.0569      3951.1541     -583.11704      1203.2037      601.19058    
  53792000   263.76658     -412.37382     -324.03495     -412.24588      0              799.48862      31.164         21.490526      33.659704      22542.939      2550.9023      750.56848     -903.00495     -2802.5453     -270.51315     -998.96074    
  53794000   252.45705     -413.10956     -328.5584      -412.92981      0              4945.691       31.164         21.490526      33.378952      22354.911      3998.9509      6073.6031      4764.519       475.38736      364.6758      -204.50162    
  53796000   255.29129     -411.18805     -325.68767     -411.03712      0              3234.2386      31.164         21.490526      33.471959      22417.2        2680.698       4034.6218      2987.3961     -1297.0103     -252.69559     -92.529591    
  53798000   260.75465     -410.51605     -323.18592     -410.37921      0              4142.3072      31.164         21.490526      33.642327      22531.301      4370.4994      3905.7692      4150.653      -1433.3627      180.61547      1138.9293    
  53800000   272.40049     -409.68036     -318.44989     -409.54847      0              3098.808       31.164         21.490526      33.589171      22495.701      1627.4743      2917.3575      4751.5922     -1622.1488      1841.3968      1608.9481    
  53802000   253.16457     -409.87037     -325.08226     -409.73792      0              4963.5377      31.164         21.490526      33.606913      22507.583      4262.5051      3447.9962      7180.1118      715.88179      2306.8846      2467.8291    
  53804000   264.03276     -410.81002     -322.38201     -410.68328      0              1580.954       31.164         21.490526      33.475754      22419.742      2068.7255      1621.1951      1052.9415      47.984241      974.32621      521.63095    
  53806000   253.86469     -409.42797     -324.40537     -409.27516      0              2610.4265      31.164         21.490526      33.377168      22353.716      209.41154      4639.9692      2981.8986      71.858904      1242.2176     -466.84254    
  53808000   260.98223     -411.96031     -324.55396     -411.82193      0              1008.1622      31.164         21.490526      33.491726      22430.439     -872.65854      3744.3836      152.76174     -1403.3344     -750.53646      579.69791    
  53810000   264.83231     -416.93019     -328.2344      -416.75414      0              2138.8805      31.164         21.490526      33.441155      22396.57       2101.0816      2849.1116      1466.4483      1089.6207     -388.00404      452.75989    
  53812000   263.72507     -410.72106     -322.3961      -410.58274      0              3074.0203      31.164         21.490526      33.414917      22378.998      2451.1852      5281.1558      1489.72       -91.833462     -662.05953      261.15242    
  53814000   261.7064      -410.22406     -322.57517     -410.10914      0              4020.1049      31.164         21.490526      33.37889       22354.869      2822.4275      3398.4444      5839.4428      661.092        764.65735     -387.66689    
  53816000   259.29308     -410.86494     -324.02431     -410.7824       0              3766.3409      31.164         21.490526      33.263523      22277.605      3920.7719      4373.3869      3004.8638      1163.4321      450.194        952.30462    
  53818000   259.46533     -410.79603     -323.89771     -410.64807      0              1312.9055      31.164         21.490526      33.374688      22352.055      1089.0182      316.96066      2532.7375     -736.32929     -102.01099     -1272.3686    
  53820000   263.39343     -411.38683     -323.17293     -411.28521      0              4234.7777      31.164         21.490526      33.360947      22342.852      3941.3558      4923.8189      3839.1584     -946.69304     -1716.6588      704.86239    
  53822000   258.53464     -411.67857     -325.09195     -411.54709      0              3313.9398      31.164         21.490526      33.44085       22396.366      3627.3781      1895.848       4418.5934      187.58532     -394.09201      903.34471    
  53824000   259.00776     -410.99463     -324.24956     -410.85869      0              159.10523      31.164         21.490526      33.402641      22370.776     -286.4482       1858.0989     -1094.335      -467.92637     -539.07901     -139.82363    
  53826000   258.26011     -409.71211     -323.21743     -409.57138      0              3036.9051      31.164         21.490526      33.355496      22339.202      1773.8465      4517.0124      2819.8565     -19.963207      2344.2833     -292.80088    
  53828000   261.98882     -409.78359     -322.04011     -409.65659      0              3533.4866      31.164         21.490526      33.563205      22478.311      2981.0923      4255.5729      3363.7947     -1093.2901     -1215.0466      991.19088    
  53830000   261.87953     -414.07158     -326.36471     -413.90124      0              3086.615       31.164         21.490526      33.285636      22292.414      5149.6882      1201.9723      2908.1845      168.60778     -1623.4475      611.54884    
  53832000   261.57977     -409.25013     -321.64366     -409.13565      0              1121.7962      31.164         21.490526      33.374961      22352.238     -419.52277      1438.8897      2346.0215      245.89328     -1159.558       192.67317    
  53834000   256.60732     -411.33389     -325.39275     -411.25157      0              2107.3136      31.164         21.490526      33.301347      22302.936      2660.5606      2002.2512      1659.1289     -408.25298      36.590534     -419.64853    
  53836000   257.85209     -413.21876     -326.86073     -413.07492      0              2836.8184      31.164         21.490526      33.422179      22383.861      2349.2331      3072.3455      3088.8766     -766.03734     -2300.6416      1136.2094    
  53838000   257.53856     -409.82902     -323.576       -409.75327      0              2475.4105      31.164         21.490526      33.418931      22381.686      1763.4757      4779.1374      883.61838      2222.6773     -73.298927     -594.00017    
  53840000   263.00223     -408.01249     -319.92961     -407.94484      0              4181.7929      31.164         21.490526      33.527295      22454.261      3002.1488      4249.6449      5293.5849      736.01005     -1150.0008      6.8803143    
  53842000   254.27857     -409.28666     -324.12545     -409.24473      0              3851.8912      31.164         21.490526      33.496652      22433.738      5981.7353      2684.5011      2889.4371      1505.9702     -1656.411      -298.95202    
  53844000   256.3209      -406.73198     -320.88677     -406.69183      0              3912.3988      31.164         21.490526      33.568619      22481.937      2552.324       4481.412       4703.4604     -950.74743      921.25696      10.351953    
  53846000   257.21222     -410.78363     -324.6399      -410.73072      0              2176.2138      31.164         21.490526      33.457168      22407.294      2712.4133      1946.176       1870.0521     -138.39679     -807.20801      1392.3976    
  53848000   260.263       -410.99933     -323.83386     -410.97439      0              3986.2347      31.164         21.490526      33.699635      22569.682      3034.2276      4448.0824      4476.3942      606.84161      1587.585      -657.74509    
WARNING: Wall time limit reached (../timer.cpp:193)
Loop time of 85806.2 on 4 procs for 7331000 steps with 2592 atoms

Performance: 3.691 ns/day, 6.503 hours/ns, 85.437 timesteps/s
1403.4% CPU use with 4 MPI tasks x no OpenMP threads

MPI task timing breakdown:
Section |  min time  |  avg time  |  max time  |%varavg| %total
---------------------------------------------------------------
Pair    | 20461      | 20707      | 20966      | 149.9 | 24.13
Bond    | 0.71436    | 0.76702    | 0.79073    |   3.5 |  0.00
Neigh   | 614.9      | 619.02     | 626.78     |  18.5 |  0.72
Comm    | 2407.8     | 2669.1     | 2914.3     | 415.5 |  3.11
Output  | 8449.5     | 8449.8     | 8450.8     |   0.6 |  9.85
Modify  | 53334      | 53340      | 53345      |   2.1 | 62.16
Other   |            | 20.74      |            |       |  0.02

Nlocal:            648 ave         663 max         636 min
Histogram: 1 1 0 0 0 0 1 0 0 1
Nghost:           4150 ave        4164 max        4130 min
Histogram: 1 0 0 0 1 0 0 0 1 1
Neighs:              0 ave           0 max           0 min
Histogram: 4 0 0 0 0 0 0 0 0 0
FullNghs:       159168 ave      165724 max      153615 min
Histogram: 1 1 0 0 0 0 0 1 0 1

Total # of neighbors = 636670
Ave neighs/atom = 245.62886
Ave special neighs/atom = 0
Neighbor list builds = 146620
Dangerous builds not checked
unfix 3
unfix 1
unfix 2


# Finalize simulation
write_restart	restart.lmp.${pid}
write_restart	restart.lmp.0
System init for write_restart ...
Generated 0 of 1 mixed pair_coeff terms from geometric mixing rule
write_data	data.final.${pid} nocoeff
write_data	data.final.0 nocoeff
System init for write_data ...
Generated 0 of 1 mixed pair_coeff terms from geometric mixing rule
Total wall time: 23:50:19
