LAMMPS (23 Jun 2022)
include procedure.lmp
echo both
include		in.partitions
variable        pid world 0
include		in.temp
variable	temperature equal 260
variable        tempDamp equal 0.100 # this is 0.1 ps
include		in.pressure
variable        pressure equal 3039.75
variable        pressureDamp equal 1.0 #this is 1ps

variable	barostat string	   tri
variable	direction string   z
variable	direction_x_bool equal 0
variable	direction_y_bool equal 0
variable	direction_z_bool equal 1

include		in.seed
variable        seed world 745823

units           metal
atom_style	full
box tilt large
read_restart 	restart.lmp.${pid}
read_restart 	restart.lmp.0
Reading restart file ...
  restart file = 23 Jun 2022, LAMMPS = 23 Jun 2022
  restoring atom style full from restart
  triclinic box = (0 0 -1.028358) to (31.164 21.490526 32.712862) with tilt (-9.197534 0.82630597 -11.322931)
WARNING: Triclinic box skew is large (../domain.cpp:224)
  2 by 1 by 2 MPI processor grid
Summary of lammps deepmd module ...
  >>> Info of deepmd-kit:
  installed to:       /u/sigbjobo/software/DEEPMD_FROM_SOURCE/deepmd-kit/install
  source:             v2.1.3
  source branch:       master
  source commit:      5a32c49
  source commit at:   2022-07-01 09:52:58 +0800
  surpport model ver.:1.1 
  build float prec:   double
  build with tf inc:  /u/sigbjobo/software/DEEPMD_FROM_SOURCE/tensorflow/install/include;/u/sigbjobo/software/DEEPMD_FROM_SOURCE/tensorflow/install/include
  build with tf lib:  /u/sigbjobo/software/DEEPMD_FROM_SOURCE/tensorflow/install/lib/libtensorflow_cc.so;/u/sigbjobo/software/DEEPMD_FROM_SOURCE/tensorflow/install/lib/libtensorflow_framework.so
  set tf intra_op_parallelism_threads: 0
  set tf inter_op_parallelism_threads: 0
  >>> Info of lammps module:
  use deepmd-kit at:  /u/sigbjobo/software/DEEPMD_FROM_SOURCE/deepmd-kit/install
  source:             v2.1.3
  source branch:      master
  source commit:      5a32c49
  source commit at:   2022-07-01 09:52:58 +0800
  build float prec:   double
  build with tf inc:  /u/sigbjobo/software/DEEPMD_FROM_SOURCE/tensorflow/install/include;/u/sigbjobo/software/DEEPMD_FROM_SOURCE/tensorflow/install/include
  build with tf lib:  /u/sigbjobo/software/DEEPMD_FROM_SOURCE/tensorflow/install/lib/libtensorflow_cc.so;/u/sigbjobo/software/DEEPMD_FROM_SOURCE/tensorflow/install/lib/libtensorflow_framework.so
  restoring pair style deepmd from restart
  2592 atoms
Finding 1-2 1-3 1-4 neighbors ...
  special bond factors lj:    0        0        0       
  special bond factors coul:  0        0        0       
     0 = max # of 1-2 neighbors
     0 = max # of 1-3 neighbors
     0 = max # of 1-4 neighbors
     1 = max # of special neighbors
  special bonds CPU = 0.000 seconds
  read_restart CPU = 0.045 seconds
include 	in.setup
variable	out_freq equal 2000
variable	out_freq2 equal 2000

timestep        0.0005

neigh_modify    delay 7 every 1

include         in.deepmd
# This is deepMD model

# create groups ###
#group ox type 2
#group hy type 1

mass 2 15.999
mass 1 1.008

pair_style      deepmd ../graph.pb
pair_coeff      * *

bond_style      none
angle_style     none
dihedral_style  none
improper_style  none
neigh_modify exclude none


neighbor        2.0 bin
neigh_modify    every 50 delay 0 check no

thermo          ${out_freq}
thermo          2000
thermo_style 	custom step temp pe etotal epair emol press lx ly lz vol pxx pyy pzz pxy pxz pyz

restart 	${out_freq} restart.lmp.${pid} restart2.lmp.${pid}
restart 	2000 restart.lmp.${pid} restart2.lmp.${pid}
restart 	2000 restart.lmp.0 restart2.lmp.${pid}
restart 	2000 restart.lmp.0 restart2.lmp.0


timer           timeout 23:50:00 every 1000
New timer settings: style=normal  mode=nosync  timeout=23:50:00


# Set number of time steps
variable 	nsteps_wall		equal	 6000000
variable 	nsteps_enhanced_coex    equal	60000000

variable     nsteps_enhanced_coex_upto equal (${nsteps_wall}+${nsteps_enhanced_coex})
variable     nsteps_enhanced_coex_upto equal (6000000+${nsteps_enhanced_coex})
variable     nsteps_enhanced_coex_upto equal (6000000+60000000)


# Set temperature for first step
if "$(step) < 1  " then    "velocity 	all create ${temperature} ${seed} dist gaussian"


# Always run thermo and barostat


######################################
# Run simulation with wall potential #
######################################
if " $(step) < ${nsteps_wall} " then    "fix             3 all plumed plumedfile plumed.equil.dat outfile plumed.equil.out"   "fix             1 all nph ${direction} ${pressure} ${pressure} ${pressureDamp}"   "fix             2 all temp/csvr ${temperature} ${temperature} ${tempDamp} ${seed}"   "run             ${nsteps_wall} upto"
if " $(step) == ${nsteps_wall} " then    "unfix 3"   "unfix 1"   "unfix 2"


############################
# Run enhanced coesistence #
############################
if "$(step) == ${nsteps_wall}" then    "fix             3 all plumed plumedfile plumed.start.dat outfile plumed.out" else    "fix             3 all plumed plumedfile plumed.dat outfile plumed.out"
fix             3 all plumed plumedfile plumed.dat outfile plumed.out

if "$(step) < ${nsteps_enhanced_coex_upto} && $(step) >= ${nsteps_wall} " then    "include         in.dump"    "fix             1 all nph ${direction} ${pressure} ${pressure} ${pressureDamp}"   "fix             2 all temp/csvr ${temperature} ${temperature} ${tempDamp} ${seed}"   "run             ${nsteps_enhanced_coex_upto} upto"    "unfix 3"   "unfix 1"   "unfix 2"
include         in.dump
dump            myDump all atom ${out_freq2} dump.water.${pid}
dump            myDump all atom 2000 dump.water.${pid}
dump            myDump all atom 2000 dump.water.0
dump            myDump2 all dcd ${out_freq2} dump.${pid}.dcd
dump            myDump2 all dcd 2000 dump.${pid}.dcd
dump            myDump2 all dcd 2000 dump.0.dcd
dump_modify     myDump append yes
dump_modify     myDump2 append yes

fix             1 all nph ${direction} ${pressure} ${pressure} ${pressureDamp}
fix             1 all nph z ${pressure} ${pressure} ${pressureDamp}
fix             1 all nph z 3039.75 ${pressure} ${pressureDamp}
fix             1 all nph z 3039.75 3039.75 ${pressureDamp}
fix             1 all nph z 3039.75 3039.75 1
fix             2 all temp/csvr ${temperature} ${temperature} ${tempDamp} ${seed}
fix             2 all temp/csvr 260 ${temperature} ${tempDamp} ${seed}
fix             2 all temp/csvr 260 260 ${tempDamp} ${seed}
fix             2 all temp/csvr 260 260 0.1 ${seed}
fix             2 all temp/csvr 260 260 0.1 745823
run             ${nsteps_enhanced_coex_upto} upto
run             66000000 upto

CITE-CITE-CITE-CITE-CITE-CITE-CITE-CITE-CITE-CITE-CITE-CITE-CITE

Your simulation uses code contributions which should be cited:

- USER-DEEPMD package:

@article{Wang_ComputPhysCommun_2018_v228_p178,
  author = {Wang, Han and Zhang, Linfeng and Han, Jiequn and E, Weinan},
  doi = {10.1016/j.cpc.2018.03.016},
  url = {https://doi.org/10.1016/j.cpc.2018.03.016},
  year = 2018,
  month = {jul},
  publisher = {Elsevier {BV}},
  volume = 228,
  journal = {Comput. Phys. Commun.},
  title = {{DeePMD-kit: A deep learning package for many-body potential energy representation and molecular dynamics}},
  pages = {178--184}
}

CITE-CITE-CITE-CITE-CITE-CITE-CITE-CITE-CITE-CITE-CITE-CITE-CITE

Generated 0 of 1 mixed pair_coeff terms from geometric mixing rule
Neighbor list info ...
  update every 50 steps, delay 0 steps, check no
  max neighbors/atom: 2000, page size: 100000
  master list distance cutoff = 8
  ghost atom cutoff = 8
  binsize = 4, bins = 11 9 9
  1 neighbor lists, perpetual/occasional/extra = 1 0 0
  (1) pair deepmd, perpetual
      attributes: full, newton on
      pair build: full/bin
      stencil: full/bin/3d
      bin: standard
Per MPI rank memory allocation (min/avg/max) = 6.224 | 6.225 | 6.225 Mbytes
   Step          Temp          PotEng         TotEng         E_pair         E_mol          Press            Lx             Ly             Lz           Volume          Pxx            Pyy            Pzz            Pxy            Pxz            Pyz      
  53849000   254.93793     -407.25        -321.86797     -407.25         0              2150.0027      31.164         21.490526      33.74122       22597.533      2344.9016      2176.6068      1928.4998     -764.86654      531.85703      292.17057    
  53850000   255.52141     -408.83558     -323.25813     -408.79302      0              3029.1781      31.164         21.490526      33.533998      22458.749      1308.4364      5632.8484      2146.2495      148.44593     -621.33067      1354.3657    
  53852000   258.64485     -409.08207     -322.45853     -409.04924      0              2840.1319      31.164         21.490526      33.428947      22388.394      1785.8727      3828.5126      2906.0104     -981.56163     -259.19584      1629.9004    
  53854000   264.58876     -411.81353     -323.19931     -411.73347      0              2825.4654      31.164         21.490526      33.447265      22400.662      3822.558       2473.0683      2180.77       -668.3393      -526.29833      155.14085    
  53856000   262.18636     -410.43154     -322.62192     -410.37293      0              3573.1891      31.164         21.490526      33.525553      22453.094      3987.6871      3997.2272      2734.6529      672.0444      -677.89877     -197.3774     
  53858000   259.24231     -406.62933     -319.8057      -406.58614      0              2063.1022      31.164         21.490526      33.576086      22486.937      1199.9167      2184.9603      2804.4295      1964.9632      691.93423      549.08677    
  53860000   257.25236     -406.81579     -320.65862     -406.78105      0              3023.4683      31.164         21.490526      33.536486      22460.416      2422.5643      4167.4526      2480.3879     -8.2222362      1565.6793      670.74776    
  53862000   261.57097     -406.94192     -319.3384      -406.91069      0              3407.5178      31.164         21.490526      33.550853      22470.038      2385.2281      4282.8878      3554.4376      1257.5231     -450.7645       951.09307    
  53864000   260.69586     -409.96646     -322.65602     -409.93802      0              4420.2575      31.164         21.490526      33.602113      22504.369      3241.9575      2272.5805      7746.2344      1356.6196     -466.46479      879.93197    
  53866000   260.12333     -410.25758     -323.13888     -410.2157       0              3246.2742      31.164         21.490526      33.480364      22422.83       1169.941       3850.1319      4718.7498      512.58576     -412.13479     -123.91632    
  53868000   267.00459     -413.17438     -323.75107     -413.13208      0              3965.2331      31.164         21.490526      33.492958      22431.264      1644.9024      4916.8487      5333.9481     -463.36911     -960.29041      635.74849    
  53870000   251.8267      -410.67252     -326.33247     -410.62058      0              3716.9672      31.164         21.490526      33.596646      22500.707      4530.1941      2864.4618      3756.2457      1134.3554     -89.751431      281.15326    
  53872000   253.39659     -411.05823     -326.19241     -411.01246      0              4359.1235      31.164         21.490526      33.483772      22425.112      5342.4954      4178.888       3555.9873      839.25627     -504.91302     -904.17563    
  53874000   266.43899     -407.18654     -317.95264     -407.14227      0              3840.8078      31.164         21.490526      33.620725      22516.834      6150.5849      2980.1859      2391.6526      40.405056     -930.06054     -1182.1632    
  53876000   259.31375     -406.20329     -319.35574     -406.18985      0              3296.1155      31.164         21.490526      33.692638      22564.996      2539.4808      4870.3744      2478.4912     -899.3224      -183.19876     -1120.8898    
  53878000   253.16514     -407.99145     -323.20314     -407.99254      0              3293.9067      31.164         21.490526      33.837792      22662.21       3303.9839      4072.7469      2504.9893      810.78179      168.48533     -1723.2409    
  53880000   269.11185     -407.66365     -317.53459     -407.65602      0              2051.4402      31.164         21.490526      33.666263      22547.331      322.24012      3453.478       2378.6024      1238.1476     -508.03824      1049.0293    
  53882000   264.33384     -409.30577     -320.77693     -409.24167      0              2752.32        31.164         21.490526      33.599955      22502.923      1402.3502      3839.1873      3015.4225     -883.09432      1324.4397     -1317.9289    
  53884000   263.40551     -413.88755     -325.66961     -413.84196      0              3028.3417      31.164         21.490526      33.476214      22420.05       1736.2372      4277.8956      3070.8923     -48.008919      751.30521      1692.6957    
  53886000   254.71666     -409.73351     -324.42558     -409.69582      0              3476.5575      31.164         21.490526      33.450116      22402.571      4037.6289      3146.3901      3245.6537     -493.69232      444.41421     -201.93234    
  53888000   259.69671     -409.78467     -322.80886     -409.75676      0              4139.7946      31.164         21.490526      33.508282      22441.527      5962.9733      3258.7065      3197.7038     -528.39396     -414.50065      167.98795    
  53890000   250.30581     -409.80642     -325.97574     -409.7783       0              3026.4617      31.164         21.490526      33.644918      22533.036      1274.2345      2122.9565      5682.1939     -1213.2399      105.38445     -543.62382    
  53892000   257.36405     -408.43791     -322.24334     -408.37697      0              2300.698       31.164         21.490526      33.601436      22503.915      1952.1004      3273.423       1676.5705     -1708.592      -545.62119      1039.1437    
  53894000   260.11441     -411.587       -324.4713      -411.52726      0              1684.676       31.164         21.490526      33.496766      22433.814      2795.4388      157.50064      2101.0885     -1000.4335     -1332.7933      196.25729    
  53896000   258.03599     -406.88291     -320.46329     -406.82283      0              4175.2105      31.164         21.490526      33.488899      22428.545      4070.3005      2936.5402      5518.7908     -1379.112      -1114.9453     -15.341769    
  53898000   265.08123     -406.76777     -317.98861     -406.70974      0              4855.8686      31.164         21.490526      33.369191      22348.373      5435.7174      4936.2471      4195.6411     -289.56529     -2072.3873      347.42188    
  53900000   262.40727     -405.20719     -317.32357     -405.14634      0              5032.2783      31.164         21.490526      33.434135      22391.869      2880.4373      4879.1868      7337.2108     -410.94746     -943.02853     -309.46516    
  53902000   259.4542      -409.55761     -322.66302     -409.48719      0              3019.9758      31.164         21.490526      33.607083      22507.697      1302.6685      4943.6393      2813.6196     -16.926126      1935.7044     -278.74582    
  53904000   268.30302     -411.16871     -321.31053     -411.14637      0              3526.1612      31.164         21.490526      33.604864      22506.211      4660.7853      2728.557       3189.1414     -541.07981     -1950.5834      1714.2927    
  53906000   250.84691     -408.61597     -324.60407     -408.57488      0              1784.3611      31.164         21.490526      33.780833      22624.063      777.82671      3950.7987      624.45798     -1104.2982     -727.31549      749.91006    
  53908000   259.25501     -408.18155     -321.35366     -408.13239      0              4590.6341      31.164         21.490526      33.657989      22541.79       5059.9192      3829.3732      4882.61       -455.17297      196.65279     -1340.5027    
  53910000   260.15279     -409.6645      -322.53594     -409.61383      0              3243.303       31.164         21.490526      33.696382      22567.503      2325.1692      4028.343       3376.3967      417.05735     -562.93714     -982.90787    
  53912000   268.1038      -407.08809     -317.29664     -407.04086      0              1722.7782      31.164         21.490526      33.653873      22539.034      2211.0199      308.6925       2648.6224     -2452.9061     -773.28515     -135.96334    
  53914000   253.24822     -410.50271     -325.68657     -410.43767      0              3956.5631      31.164         21.490526      33.706856      22574.518      4839.2559      4208.3582      2822.0752     -1651.8598     -644.75934      88.508524    
  53916000   263.43154     -409.42976     -321.20311     -409.39295      0              1914.4172      31.164         21.490526      33.645664      22533.536     -291.09543      2475.8968      3558.4503     -258.98354     -387.3159      -1543.505     
  53918000   258.63769     -410.74029     -324.11915     -410.67966      0              2936.7871      31.164         21.490526      33.785732      22627.344      2385.8326      3366.5558      3057.9731      328.56183      1328.688      -722.14454    
  53920000   255.39416     -410.16838     -324.63354     -410.09555      0              2808.2456      31.164         21.490526      33.456396      22406.777      1404.1363      3807.7696      3212.8311     -885.95537      1362.5736      298.07624    
  53922000   256.50441     -408.56565     -322.65898     -408.49662      0              2829.6601      31.164         21.490526      33.463923      22411.819      2742.8004      4447.0674      1299.1124      1514.8819     -866.45955      1235.0541    
  53924000   261.61139     -408.77452     -321.15746     -408.70573      0              2998.1136      31.164         21.490526      33.315948      22312.715      1857.6064      3392.3887      3744.3457      687.88874      182.38918     -1123.1821    
  53926000   253.96754     -409.96749     -324.91045     -409.89685      0              4416.0728      31.164         21.490526      33.191574      22229.418      5520.9194      4679.0269      3048.272      -1857.9062      115.56222     -487.9732     
  53928000   254.5864      -409.67865     -324.41434     -409.64121      0              4079.6158      31.164         21.490526      33.169701      22214.769      2919.8095      5321.592       3997.446       1168.4041     -554.1861      -696.05832    
  53930000   257.34404     -409.8165      -323.62863     -409.78785      0              2920.148       31.164         21.490526      33.379398      22355.209      3466.4148      2001.903       3292.1262     -892.77135     -861.74695      382.46033    
  53932000   265.4752      -409.14498     -320.23388     -409.09032      0              3061.7285      31.164         21.490526      33.331909      22323.404      3974.0855      1918.5462      3292.5538     -1479.6297     -417.24564      1138.4401    
  53934000   258.30067     -408.71406     -322.2058      -408.64647      0              2028.1908      31.164         21.490526      33.580385      22489.817      2292.8003      2185.9505      1605.8216     -2573.9446      443.06663     -3377.4438    
  53936000   263.26135     -411.333       -323.16335     -411.26159      0              4951.2643      31.164         21.490526      33.396338      22366.555      3107.6948      6378.7782      5367.32       -189.96265      725.31812      822.4666     
  53938000   256.15058     -412.71254     -326.92438     -412.64406      0              3350.2222      31.164         21.490526      33.349971      22335.501      3105.754       4522.8133      2422.0993      983.62016     -664.23316     -671.35969    
  53940000   258.75415     -409.56494     -322.9048      -409.51001      0              2188.0655      31.164         21.490526      33.39779       22367.527      1792.9592      1046.1857      3725.0514     -574.25626     -841.29085     -1048.4051    
  53942000   259.11853     -408.49537     -321.71319     -408.43824      0              2920.6834      31.164         21.490526      33.45843       22408.14       3031.8554      2828.6991      2901.4955      702.92954     -446.52406      131.52182    
  53944000   254.91597     -411.54284     -326.16816     -411.50984      0              3806.095       31.164         21.490526      33.510944      22443.31       1231.0213      4316.7241      5870.5395     -479.12054      154.14297     -1151.3918    
  53946000   258.51168     -410.99659     -324.41766     -410.93483      0              3211.4879      31.164         21.490526      33.532854      22457.983      2788.1276      3737.2973      3109.039       1204.4339     -1683.0577      1042.0613    
  53948000   256.42202     -409.15949     -323.28041     -409.09668      0              3654.9492      31.164         21.490526      33.321581      22316.488      2076.2448      4484.2961      4404.3068     -226.34983      589.92299     -1628.1761    
  53950000   263.36677     -410.98011     -322.77514     -410.91188      0              5685.1697      31.164         21.490526      33.277353      22286.866      3541.9025      7471.9314      6041.6751     -103.54481     -36.149642     -1119.625     
  53952000   261.8083      -411.41955     -323.73654     -411.32729      0              2713.5369      31.164         21.490526      33.337179      22326.934      2299.5173      4170.1416      1670.9516      516.6319      -538.6851      -1449.2068    
  53954000   260.59255     -410.54355     -323.26771     -410.48161      0              940.57209      31.164         21.490526      33.290428      22295.624      261.25748      2942.1246     -381.66582      545.58183      31.738608     -1839.0792    
  53956000   257.20684     -407.7095      -321.56758     -407.64194      0              5063.0132      31.164         21.490526      33.541992      22464.103      3474.0925      6374.8544      5340.0927     -1231.1589     -672.14607      353.05952    
  53958000   261.25437     -407.40412     -319.90663     -407.37285      0              2296.016       31.164         21.490526      33.492306      22430.827      2240.4559      2309.4111      2338.1809     -560.04539     -440.48282      424.26304    
  53960000   259.65617     -408.19073     -321.22849     -408.12466      0              2064.5609      31.164         21.490526      33.641362      22530.655      647.01354      3291.9025      2254.7667     -76.037747      1048.9602      1134.293     
  53962000   261.44237     -408.65736     -321.0969      -408.58491      0              5037.0113      31.164         21.490526      33.709676      22576.407      4317.134       5386.8194      5407.0805     -1495.1476      225.9463      -1031.1553    
  53964000   258.5906      -406.76713     -320.16176     -406.69471      0              2360.0409      31.164         21.490526      33.50524       22439.489      3757.9829      2385.3694      936.77035     -214.49326     -1837.1872     -1451.7437    
  53966000   259.65309     -411.47046     -324.50925     -411.399        0              3489.4785      31.164         21.490526      33.598528      22501.968      2864.6034      4517.9452      3085.887      -1613.8846     -992.6958      -1380.9418    
  53968000   266.33251     -409.84507     -320.64685     -409.77611      0              2347.0153      31.164         21.490526      33.602022      22504.307      468.19727      2695.8878      3876.9608     -221.61522     -789.29706      2186.6623    
  53970000   258.88032     -409.89164     -323.18924     -409.85454      0              2401.5671      31.164         21.490526      33.508795      22441.87       1869.5621      3677.9593      1657.1798      793.36822     -574.76204      293.04097    
  53972000   258.41912     -410.75172     -324.20379     -410.68739      0              3455.9591      31.164         21.490526      33.659462      22542.777      2860.9882      4806.3369      2700.5524     -70.593788      486.75397      561.17477    
  53974000   262.64498     -405.89995     -317.93672     -405.87375      0              1441.5594      31.164         21.490526      33.773508      22619.157      1823.5459      2537.2709     -36.138447     -615.55561     -1195.469      -725.34896    
  53976000   258.69353     -408.21939     -321.57955     -408.18197      0              2553.6794      31.164         21.490526      33.805445      22640.546      2147.7312      4964.9462      548.36079     -82.732094     -2232.8746     -6.5925506    
  53978000   260.31358     -408.34194     -321.15953     -408.28072      0              720.4542       31.164         21.490526      33.755689      22607.223      823.29974      254.2877       1083.7752     -816.83002     -89.174872      1290.1864    
  53980000   249.05674     -408.20132     -324.78898     -408.15092      0              3091.2154      31.164         21.490526      33.692921      22565.185      2724.1511      4463.1216      2086.3736      1195.7927      226.51061     -62.233264    
  53982000   257.32987     -404.66312     -318.47999     -404.62823      0              4325.2767      31.164         21.490526      33.617909      22514.947      5969.585       384.09702      6622.148      -1219.2866      789.23067     -466.37784    
  53984000   255.96795     -409.4067      -323.6797      -409.33121      0              1326.6471      31.164         21.490526      33.626539      22520.727      1598.7986      2792.6161     -411.47354      113.82801     -717.53352      370.67658    
  53986000   262.1014      -409.17108     -321.3899      -409.10731      0              3161.638       31.164         21.490526      33.566069      22480.229      1788.7229      1885.155       5811.0363     -356.81599     -1897.7414     -1353.336     
  53988000   256.66676     -413.18635     -327.2253      -413.08819      0              2615.3263      31.164         21.490526      33.648616      22535.513      1297.8834      5004.9351      1543.1606     -985.0831      -1087.7752     -206.16949    
  53990000   263.04546     -409.1196      -321.02225     -409.05427      0              5036.8089      31.164         21.490526      33.369028      22348.264      5190.18        5320.7574      4599.4892      90.108933     -1718.5653     -585.59273    
  53992000   259.36727     -406.26476     -319.39929     -406.21451      0              3129.4009      31.164         21.490526      33.448393      22401.417      1417.3607      4649.1644      3321.6777     -233.05053      8.6200061     -385.11157    
  53994000   259.67545     -407.52827     -320.55958     -407.46511      0              3616.2351      31.164         21.490526      33.406653      22373.463      3364.814       5231.6627      2252.2288     -760.61577     -150.8906      -467.56382    
  53996000   262.75237     -409.12632     -321.12713     -409.09833      0              2488.2052      31.164         21.490526      33.35777       22340.725      3928.4192      327.75195      3208.4446     -1757.8667     -244.78099      1687.5975    
  53998000   263.9829      -404.84429     -316.43297     -404.79923      0              3166.2903      31.164         21.490526      33.391448      22363.28       1623.0422      3613.353       4262.4756      1557.2177      53.013523      348.36469    
  54000000   261.68709     -408.20004     -320.55762     -408.14483      0              4100.9187      31.164         21.490526      33.317444      22313.717      4066.9201      4799.1219      3436.7142     -1139.4612     -62.943443     -610.38529    
  54002000   260.78362     -409.68857     -322.34874     -409.63183      0              4077.951       31.164         21.490526      33.502151      22437.421      4900.5457      4442.4382      2890.8689      388.57386      367.5802       237.40713    
  54004000   260.21317     -407.40518     -320.2564      -407.3371       0              3049.1564      31.164         21.490526      33.446791      22400.344      3535.6283      1801.2856      3810.5553      261.04236     -1507.1085     -596.71013    
  54006000   254.53431     -408.03721     -322.79035     -407.99394      0              4536.7343      31.164         21.490526      33.426029      22386.44       3114.4641      5111.7493      5383.9893     -1065.5962      114.47923      208.10204    
  54008000   264.56457     -409.49571     -320.88959     -409.42998      0              1435.6851      31.164         21.490526      33.4448        22399.011      995.58257      4456.1861     -1144.7134     -444.82387      457.5559      -1027.0371    
  54010000   257.97854     -409.27157     -322.87119     -409.21554      0              8005.9381      31.164         21.490526      33.218059      22247.156      6845.5771      7798.6076      9373.6297     -359.81331      156.38027      195.701      
  54012000   254.48348     -408.18053     -322.95069     -408.11202      0              3409.7996      31.164         21.490526      33.324682      22318.564      2991.2241      4626.4819      2611.6929     -39.980323     -921.14615      1058.8403    
  54014000   260.67626     -405.5137      -318.20982     -405.47071      0              2587.4334      31.164         21.490526      33.57636       22487.121      1966.0916      3783.9335      2012.275      -1445.3806      616.82495      1007.7737    
  54016000   253.96168     -410.10347     -325.04839     -410.06957      0              3616.5295      31.164         21.490526      33.334494      22325.136      3726.6109      4279.0855      2843.8922     -184.62386     -906.84903      453.86252    
  54018000   261.56271     -407.76157     -320.16081     -407.72022      0              1434.4837      31.164         21.490526      33.576426      22487.165      1927.6254      681.454        1694.3716      363.14976     -984.91425      1153.6167    
  54020000   260.08432     -411.34137     -324.23574     -411.32962      0              3725.9239      31.164         21.490526      33.500432      22436.269      3115.928       4204.2769      3857.5667      1010.4134      176.7082       767.83485    
  54022000   259.83287     -407.8324      -320.81099     -407.78893      0              4864.9315      31.164         21.490526      33.323043      22317.467      5850.7368      5462.0077      3282.05       -924.23177     -281.95465      571.77887    
  54024000   254.56687     -408.35645     -323.09869     -408.32015      0              715.18446      31.164         21.490526      33.385722      22359.445      713.79384      1915.9135     -484.15399     -1706.9112     -580.85236     -103.88835    
  54026000   259.90933     -410.71334     -323.66632     -410.66397      0              3379.4063      31.164         21.490526      33.626195      22520.497      3183.6119      4360.6342      2593.9729      1601.8433      927.24744     -1741.5955    
  54028000   255.61986     -410.44933     -324.83891     -410.41057      0              3588.8503      31.164         21.490526      33.447755      22400.99       2895.9243      5230.7001      2639.9264      552.74472      147.12974     -2098.638     
  54030000   260.45892     -412.37947     -325.14838     -412.32973      0              1188.5815      31.164         21.490526      33.319223      22314.908      1716.8145      1254.0182      594.91171     -443.538       -258.92471     -30.091833    
  54032000   265.5363      -410.28649     -321.35492     -410.23295      0              2107.6173      31.164         21.490526      33.481863      22423.833      267.00035      3264.5695      2791.2821     -173.60921     -239.85841     -261.51832    
  54034000   254.51475     -409.20629     -323.96599     -409.17079      0              3971.5178      31.164         21.490526      33.513517      22445.033      3032.5299      5396.4746      3485.5488      880.7161       611.42359     -515.01111    
  54036000   259.53962     -410.66098     -323.73778     -410.63174      0              3245.245       31.164         21.490526      33.41726       22380.566      3828.2314      4090.4384      1817.0652     -1246.8156     -282.97471     -949.03743    
  54038000   253.66205     -410.84409     -325.88936     -410.78796      0              1321.8619      31.164         21.490526      33.380743      22356.11       606.90625      1680.0128      1678.6665      1420.9427     -214.35764     -1136.1758    
  54040000   265.58683     -409.53457     -320.58608     -409.49211      0              3605.6105      31.164         21.490526      33.4747        22419.036      1512.6393      6046.5819      3257.6103      898.03208      1183.8174      643.04299    
  54042000   260.17648     -409.08942     -321.95293     -409.05494      0              3328.929       31.164         21.490526      33.579553      22489.259      3089.1268      2604.5191      4293.1411      613.06645     -1092.833      -237.18528    
  54044000   259.7889      -409.14507     -322.13838     -409.09326      0              4121.7081      31.164         21.490526      33.368547      22347.942      3524.4791      4700.7519      4139.8934      1413.2763     -2453.1619      64.855239    
  54046000   265.35352     -409.47429     -320.60394     -409.42225      0              3683.8582      31.164         21.490526      33.370948      22349.55       1836.1021      4638.6864      4576.7862     -774.06365      216.15947      796.10267    
  54048000   263.81837     -408.52782     -320.17161     -408.47442      0              3405.2578      31.164         21.490526      33.345494      22332.503      3918.0848      4341.1536      1956.5351     -959.57383     -366.99535     -1712.6849    
  54050000   257.06509     -407.0761      -320.98165     -407.0295       0              3316.7264      31.164         21.490526      33.390623      22362.727      3207.148       2935.393       3807.6384      2235.9785      862.34997      577.70925    
  54052000   259.01074     -412.81021     -326.06413     -412.77726      0              1626.9784      31.164         21.490526      33.372895      22350.854      2396.3331      821.29177      1663.3103      389.82437      1052.795      -178.9494     
  54054000   256.44209     -410.95197     -325.06617     -410.88311      0              3811.7693      31.164         21.490526      33.320319      22315.642      3348.6985      4503.6526      3582.9567      1427.1991     -1307.9846      269.36799    
  54056000   262.30858     -408.42805     -320.57749     -408.40216      0              4209.1129      31.164         21.490526      33.377519      22353.951      3366.849       4964.9226      4295.5672      360.44686      616.99579     -28.407109    
  54058000   259.82731     -409.08803     -322.06847     -409.0453       0              3789.012       31.164         21.490526      33.374074      22351.644      3886.9534      3582.7049      3897.3777      258.61737      1418.9882     -518.13121    
  54060000   259.11329     -408.82549     -322.04507     -408.7848       0              2504.5944      31.164         21.490526      33.388234      22361.127      3437.8637      1298.0708      2777.8487     -443.29881      2988.5283     -626.6686     
  54062000   263.80004     -409.24796     -320.89789     -409.22304      0              3108.7271      31.164         21.490526      33.568526      22481.874      3914.9888      2702.3283      2708.8643      231.57513      1345.7007      500.85545    
  54064000   246.51835     -409.31209     -326.74988     -409.25925      0              5619.6897      31.164         21.490526      33.307464      22307.033      4504.2974      6621.0545      5733.7172      247.86598      65.323048     -147.38165    
  54066000   262.76757     -408.22573     -320.22144     -408.17187      0              2570.986       31.164         21.490526      33.451719      22403.645      1043.3818      3699.5824      2969.9937      329.35167     -156.25679     -273.07235    
  54068000   262.69365     -410.9933      -323.01377     -410.93994      0              3620.0011      31.164         21.490526      33.469678      22415.673      4018.0406      5089.1869      1752.7759      819.80785     -1439.6326     -670.9834     
  54070000   262.79903     -411.82024     -323.80542     -411.76757      0              2179.5781      31.164         21.490526      33.529723      22455.886      1809.8393      4063.9058      664.9891      -473.3804      -52.508252     -3151.6175    
  54072000   260.32336     -410.19743     -323.01174     -410.17003      0              3110.7659      31.164         21.490526      33.685127      22559.965      3251.4982      4636.574       1444.2257      1833.4424      746.1437       638.49258    
  54074000   258.04452     -409.16892     -322.74644     -409.11835      0              3521.7521      31.164         21.490526      33.496047      22433.333      2015.9879      5407.7567      3141.5117      600.06362     -791.0642       1535.896     
  54076000   262.95903     -409.92421     -321.8558      -409.85799      0              2099.2433      31.164         21.490526      33.547753      22467.962      1287.8286      3873.9321      1135.9691     -41.640421      1666.3108      1063.3489    
  54078000   260.22973     -409.72461     -322.57028     -409.66148      0              4277.9098      31.164         21.490526      33.595035      22499.628      4067.3068      3828.7618      4937.6607      1109.565       143.2081       1271.0785    
  54080000   264.55666     -409.65255     -321.04908     -409.62509      0              2962.1846      31.164         21.490526      33.75146       22604.391      3283.6218      4189.4554      1413.4766      1161.8235     -130.66285      155.99855    
  54082000   264.23672     -411.32145     -322.82513     -411.27113      0              4823.3267      31.164         21.490526      33.602665      22504.738      4157.635       3941.3888      6370.9562      146.80649     -499.49654      1093.6036    
  54084000   253.83777     -410.33314     -325.31957     -410.28335      0              3356.5341      31.164         21.490526      33.486873      22427.188      3482.9393      1402.0827      5184.5801      1192.7715      13.266315      2112.8582    
  54086000   253.15602     -408.86632     -324.08107     -408.82397      0              5498.9983      31.164         21.490526      33.735878      22593.955      6150.9442      5859.6865      4486.3644      745.63725     -1163.8613      962.03817    
  54088000   254.4934      -410.0688      -324.83564     -410.04726      0              3359.3052      31.164         21.490526      33.600729      22503.442      2057.2218      3741.2717      4279.422      -631.22374     -109.33879     -611.3762     
  54090000   258.37645     -408.55558     -322.02194     -408.50753      0              2534.2339      31.164         21.490526      33.482136      22424.016      3337.1361      2310.9508      1954.6148      679.75953     -1433.6412      124.67546    
  54092000   267.42272     -410.29643     -320.73308     -410.26219      0              2974.3718      31.164         21.490526      33.612115      22511.067      4195.5338      3755.6964      971.88512     -1577.2841     -737.31737      795.88999    
  54094000   259.37404     -406.03089     -319.16314     -406.02847      0              1632.0399      31.164         21.490526      33.740956      22597.356      813.5759       2990.4902      1092.0536      710.63706      1452.2343      1068.711     
  54096000   261.01751     -409.45413     -322.03596     -409.42983      0              2025.013       31.164         21.490526      33.604199      22505.766      3596.6449      1199.8176      1278.5767     -778.20495      212.73392      333.65158    
  54098000   258.66102     -411.44931     -324.82036     -411.41749      0              3912.6053      31.164         21.490526      33.483057      22424.633      3821.2071      5031.1371      2885.4718     -398.56811     -1097.6973     -1032.9272    
  54100000   267.16919     -409.54054     -320.06209     -409.52183      0              5755.8215      31.164         21.490526      33.747996      22602.071      6188.2396      5732.8885      5346.3364     -494.25426      1066.2034      821.7744     
  54102000   253.34469     -408.41662     -323.56818     -408.40602      0              2625.2867      31.164         21.490526      33.416712      22380.2        3745.2053      919.37084      3211.284      -272.05719      610.92962     -1455.6027    
  54104000   265.75789     -411.10504     -322.09926     -411.0768       0              2617.6456      31.164         21.490526      33.559061      22475.535      2205.0346      3179.3787      2468.5235      211.54905     -798.83167      916.44687    
  54106000   262.68025     -411.121       -323.14596     -411.08584      0              3690.3902      31.164         21.490526      33.553457      22471.782      3409.8237      3974.1645      3687.1825     -1318.9316     -366.18389      386.55287    
  54108000   258.24574     -411.73592     -325.24606     -411.71382      0              4351.7547      31.164         21.490526      33.458238      22408.011      3307.0446      5310.3928      4437.8268     -415.87398      749.6683       615.69284    
  54110000   253.49814     -409.09017     -324.19034     -409.07736      0              887.52714      31.164         21.490526      33.476611      22420.316      1184.6027      511.7271       966.25162      1451.6889     -2389.7351      141.94604    
  54112000   267.87718     -408.09172     -318.37616     -408.06129      0              4993.0465      31.164         21.490526      33.649677      22536.224      4129.2796      6584.1482      4265.7116     -273.23224      53.961222      430.42841    
  54114000   255.67335     -408.28689     -322.65855     -408.27832      0              4258.4087      31.164         21.490526      33.563059      22478.213      3477.9033      4337.2058      4960.117       1225.4482     -1114.8331     -874.1411     
  54116000   265.04219     -408.09062     -319.32454     -408.06637      0              3533.5052      31.164         21.490526      33.587845      22494.812      2791.8107      4639.3168      3169.3881     -128.14522     -1251.0801     -1451.0589    
  54118000   254.38638     -409.84684     -324.64953     -409.78222      0              1339.827       31.164         21.490526      33.483186      22424.719      2394.1304      745.23472      880.11596      644.81554     -1735.673      -723.70456    
  54120000   250.91142     -408.80896     -324.77545     -408.77675      0              4663.9653      31.164         21.490526      33.325106      22318.848      4441.3709      4173.3582      5377.1668     -2190.7858      1079.1454      358.54486    
  54122000   265.87328     -410.23038     -321.18595     -410.20122      0              3092.2274      31.164         21.490526      33.498071      22434.688      2892.2908      2845.6232      3538.7682      65.001411     -685.25266     -1000.7096    
  54124000   259.14802     -407.3007      -320.50865     -407.2788       0              3213.4264      31.164         21.490526      33.40033       22369.228      1311.6845      3728.7314      4599.8633      1554.6449      653.04168     -463.55477    
  54126000   261.71668     -409.70942     -322.05709     -409.70302      0              2415.3957      31.164         21.490526      33.505173      22439.444      2035.5136      2216.3397      2994.3338     -117.53067     -792.16271      256.09184    
  54128000   261.04111     -407.06364     -319.63757     -407.06287      0              4018.9098      31.164         21.490526      33.519146      22448.803      4943.0954      4059.7359      3053.8981      523.554        707.85895     -619.01409    
  54130000   262.00412     -409.75996     -322.01137     -409.74336      0              2973.1795      31.164         21.490526      33.647821      22534.981      1927.2605      4506.7921      2485.4858      77.147025      506.04631      583.60578    
  54132000   262.40949     -408.3838      -320.49944     -408.36045      0              4717.2021      31.164         21.490526      33.501442      22436.946      6112.7063      5718.8218      2320.0781     -1375.9992     -629.04782     -420.19659    
  54134000   258.0031      -407.9698      -321.56119     -407.96863      0              1624.7977      31.164         21.490526      33.59538       22499.859      1401.0224      3172.1671      301.20366     -839.89086      196.28861     -696.99949    
  54136000   257.61691     -409.75375     -323.47449     -409.75733      0              1557.0041      31.164         21.490526      33.746259      22600.907      1508.0532      2104.1212      1058.8377      347.46116     -267.7506       470.83521    
  54138000   264.35043     -407.68079     -319.14639     -407.68765      0              2665.925       31.164         21.490526      33.439811      22395.67       1396.5253      3827.2229      2774.0268      188.076        468.40531      486.06431    
  54140000   260.13169     -405.66347     -318.54197     -405.72522      0              1108.7557      31.164         21.490526      33.477294      22420.773     -316.21717      1029.7712      2612.7131      282.01286     -49.0352       -890.81508    
  54142000   260.57406     -411.79785     -324.5282      -411.79384      0              5447.8591      31.164         21.490526      33.307418      22307.002      5828.649       5239.508       5275.4202     -779.22893     -494.53949      392.25567    
  54144000   265.75242     -407.74899     -318.74505     -407.73645      0              1415.768       31.164         21.490526      33.496284      22433.492      837.03999      589.7068       2820.5574      1749.1012     -227.45725      1605.7881    
  54146000   256.10004     -411.45298     -325.68174     -411.45584      0              3698.5739      31.164         21.490526      33.22857       22254.195      1225.6539      4038.1409      5831.9268      918.27243     -808.24679      312.96541    
  54148000   258.10644     -412.58826     -326.14505     -412.56668      0              2980.2993      31.164         21.490526      33.400233      22369.163      3330.7152      3039.827       2570.3556     -331.90272      646.36116      706.98612    
  54150000   264.71957     -412.25488     -323.59685     -412.2436       0              2903.487       31.164         21.490526      33.554763      22472.657      3127.8572      1745.8166      3836.7871      837.16081     -810.57925      647.31703    
  54152000   256.72363     -411.38101     -325.40092     -411.33985      0              1119.4773      31.164         21.490526      33.437587      22394.18       130.50851      798.12689      2429.7965     -333.63533      22.34235       750.64901    
  54154000   263.72238     -412.13645     -323.81239     -412.10107      0              3476.4457      31.164         21.490526      33.440826      22396.349      3345.9385      1703.1922      5380.2065      813.70395     -880.42823      197.76213    
  54156000   261.86795     -408.90634     -321.20335     -408.88489      0              2319.1833      31.164         21.490526      33.479317      22422.128      1575.0426      2737.8403      2644.6671     -266.31198     -269.76312      66.454895    
  54158000   258.04174     -409.3828      -322.96126     -409.35383      0              2540.9999      31.164         21.490526      33.566809      22480.724      1458.9298      3205.5135      2958.5565     -310.85156     -727.40992     -710.08135    
  54160000   261.43751     -408.09547     -320.53664     -408.08858      0              1453.3335      31.164         21.490526      33.486061      22426.645      2559.4062      506.42991      1294.1643      239.41889      158.28663     -295.08224    
  54162000   257.26636     -410.00048     -323.83862     -410.05596      0              2155.5523      31.164         21.490526      33.509885      22442.601      1764.0157      3482.4189      1220.2224     -658.50684      1837.2857     -1684.7379    
  54164000   251.91494     -406.03855     -321.66895     -406.0437       0              2156.3336      31.164         21.490526      33.462788      22411.058      544.03986      4153.8549      1771.106      -931.23234      873.1569      -347.00447    
  54166000   260.5373      -409.42923     -322.17189     -409.41473      0              3718.7726      31.164         21.490526      33.405927      22372.977      3195.0698      5713.9784      2247.2695      1465.1594     -1861.2714     -2045.2597    
  54168000   266.55593     -408.38427     -319.11122     -408.3472       0              3068.1342      31.164         21.490526      33.476204      22420.043      3642.4206      2466.9731      3095.0088      1475.1848     -1635.3092     -774.3257     
  54170000   262.83861     -410.51694     -322.48887     -410.50049      0              3951.6761      31.164         21.490526      33.56759       22481.247      2536.5129      5045.0856      4273.4297      381.35334      1775.4315      594.72046    
  54172000   256.33846     -406.9065      -321.05541     -406.86619      0              2725.2314      31.164         21.490526      33.550798      22470.001      2771.8602      2135.703       3268.1311     -475.02077      283.62286      793.98133    
  54174000   261.71377     -405.95565     -318.3043      -405.95882      0              3268.3034      31.164         21.490526      33.484353      22425.501      2106.8371      4056.3657      3641.7074     -51.862467      602.40497     -180.28897    
  54176000   261.86372     -408.58222     -320.88065     -408.56194      0              4209.6333      31.164         21.490526      33.417349      22380.626      3120.78        4879.9367      4628.1833      768.90612     -934.80499      189.49077    
  54178000   256.5392      -408.00495     -322.08663     -407.99165      0              1406.0818      31.164         21.490526      33.594035      22498.958      974.66243      2051.4156      1192.1674     -1782.5003      1098.4004     -277.34161    
  54180000   254.91598     -407.8706      -322.49592     -407.87955      0              3169.1713      31.164         21.490526      33.680969      22557.181      1675.0568      5829.0656      2003.3916      77.424337     -918.88465     -627.51535    
  54182000   269.44523     -409.44422     -319.2035      -409.42994      0              3429.3666      31.164         21.490526      33.825767      22654.157      2808.1981      3659.9017      3820          -354.95707      61.322759      201.2196     
  54184000   254.28736     -410.29447     -325.13031     -410.27945      0              1780.9533      31.164         21.490526      33.651038      22537.135      1442.0614      1691.7619      2209.0366      1526.9657     -92.550398      849.65955    
  54186000   258.93205     -407.93703     -321.21731     -407.90192      0              3768.2602      31.164         21.490526      33.394497      22365.321      3905.7516      4012.064       3386.9649      764.66203      318.20061      498.95054    
  54188000   260.36614     -407.5729      -320.37289     -407.57312      0              4340.0624      31.164         21.490526      33.795444      22633.848      4965.2246      5414.8788      2640.0838      1585.3683      153.71215      1479.5564    
  54190000   259.46006     -409.33652     -322.43997     -409.34087      0              4236.9809      31.164         21.490526      33.764122      22612.871      3662.2144      4294.6577      4754.0707      1234.4972     -184.14401      1320.3408    
  54192000   259.6644      -409.38448     -322.41949     -409.34248      0              4864.0076      31.164         21.490526      33.597862      22501.522      5073.7746      1439.0522      8079.196       283.73831      23.17752       1946.9841    
  54194000   259.59382     -408.89469     -321.95334     -408.88116      0              3071.9195      31.164         21.490526      33.374556      22351.966      2202.2742      4620.4398      2393.0446     -806.55395      1226.039      -866.4608     
  54196000   259.17169     -409.97884     -323.17886     -409.97982      0              5261.2152      31.164         21.490526      33.506423      22440.282      4272.0311      6769.171       4742.4435      681.65614     -2565.2889      298.01348    
  54198000   257.03301     -410.25694     -324.17323     -410.24467      0              3407.8064      31.164         21.490526      33.455405      22406.114      2114.3483      4132.1362      3976.9346     -22.586718     -375.24417     -178.55971    
  54200000   259.87841     -407.74045     -320.70378     -407.73375      0              3812.2696      31.164         21.490526      33.454653      22405.61       3597.0035      3955.3223      3884.4831      822.10759      1557.165       872.15751    
  54202000   255.7941      -410.97618     -325.3074      -410.97571      0              2895.6045      31.164         21.490526      33.313626      22311.16       2402.6204      2979.6248      3304.5682     -883.44819     -1877.2045      964.90737    
  54204000   259.47939     -407.87013     -320.9671      -407.86046      0              4369.5104      31.164         21.490526      33.460771      22409.707      5086.3254      3598.4165      4423.7894     -191.66292     -254.27244     -380.77612    
  54206000   259.80791     -408.50057     -321.48752     -408.49903      0              2951.2139      31.164         21.490526      33.660003      22543.139      4171.0678      4258.5896      423.98433     -1217.2528     -290.90957     -1534.0954    
  54208000   260.813       -407.39967     -320.05        -407.39636      0              3573.032       31.164         21.490526      33.522383      22450.971      3666.5898      4101.5358      2950.9705      662.75106     -811.53146     -730.98121    
  54210000   259.93082     -407.62373     -320.56951     -407.62366      0              4166.4866      31.164         21.490526      33.625006      22519.7        4654.7371      5805.7051      2039.0176     -732.74093     -374.92614     -1179.8667    
  54212000   258.72234     -407.8751      -321.22561     -407.96633      0             -484.61116      31.164         21.490526      33.762393      22611.713      1724.3297     -1132.0576     -2046.1056     -702.73896     -819.90205     -628.4989     
  54214000   261.01636     -406.9468      -319.52902     -406.92771      0              2585.635       31.164         21.490526      33.529324      22455.619      2534.6995      3330.1484      1892.0572     -552.5162      -285.98462      280.54102    
  54216000   264.57962     -412.03618     -323.42502     -412.03819      0              4284.5863      31.164         21.490526      33.687439      22561.514      3870.09        4781.0849      4202.5839      741.4325       673.59691      1345.6919    
  54218000   260.26529     -410.33112     -323.16488     -410.36134      0              2931.8462      31.164         21.490526      33.741225      22597.536      4640.831       3421.5008      733.20694     -60.287113     -986.0169      -1550.1071    
  54220000   256.2951      -411.76564     -325.92907     -411.77115      0              2702.5352      31.164         21.490526      33.417625      22380.811      2621.9115      2646.9695      2838.7247      1409.6097      926.27917     -1410.6156    
  54222000   248.44516     -410.51186     -327.30434     -410.50538      0              5032.6309      31.164         21.490526      33.444036      22398.499      6616.4917      4929.178       3552.2231      1277.3231     -1279.7189      1957.3815    
  54224000   258.86886     -407.49286     -320.7943      -407.50479      0              3475.634       31.164         21.490526      33.4969        22433.904      4179.7942      3481.4306      2765.6771      1298.876      -2151.4683     -217.39962    
  54226000   254.82534     -409.95661     -324.61228     -409.92621      0              3924.4436      31.164         21.490526      33.277074      22286.68       5169.4145      2651.8462      3952.07       -404.45598     -1773.4431      959.22023    
  54228000   257.71749     -407.42334     -321.11039     -407.42284      0              4939.3926      31.164         21.490526      33.327597      22320.517      4696.5595      6249.8391      3871.7793     -1093.3208     -2333.1588      1125.713     
  54230000   263.52659     -410.2536      -321.99511     -410.20752      0              3489.8723      31.164         21.490526      33.333995      22324.802      3677.0681      3249.8595      3542.6892     -241.17335      206.10129      111.53236    
  54232000   263.94316     -406.64577     -318.24777     -406.60447      0              4394.2926      31.164         21.490526      33.356656      22339.978      4305.8848      2949.2594      5927.7335     -541.96634     -2225.5695     -123.5236     
  54234000   252.1315      -408.36856     -323.92644     -408.31821      0              3511.2629      31.164         21.490526      33.27986       22288.546      3453.7065      2765.8488      4314.2335     -1420.0399     -1018.6513     -977.32336    
  54236000   260.11626     -408.91027     -321.79395     -408.88922      0              2284.3857      31.164         21.490526      33.537466      22461.073      1836.4698      1829.0479      3187.6395     -99.269933     -339.20193     -241.46792    
  54238000   250.11171     -408.47818     -324.7125      -408.44505      0              4992.0233      31.164         21.490526      33.501101      22436.718      4270.6481      4729.225       5976.1968      1290.8482     -394.26695      856.60159    
  54240000   256.97722     -407.70544     -321.64042     -407.69665      0              3988.7245      31.164         21.490526      33.457034      22407.205      3680.2862      4214.9425      4070.9448     -678.04644     -6.0951257     -386.56826    
  54242000   260.2355      -407.76516     -320.6089      -407.72126      0              3401.7202      31.164         21.490526      33.249359      22268.118      3570.3013      2152.1115      4482.7477      192.16811     -196.32938     -673.56089    
  54244000   259.32358     -410.24864     -323.39779     -410.21954      0              4105.5185      31.164         21.490526      33.585177      22493.026      3725.0186      4859.4896      3732.0472      360.49944     -238.34238      577.94753    
  54246000   258.94739     -410.85781     -324.13295     -410.84119      0              1967.4545      31.164         21.490526      33.572934      22484.827      1508.1167      3210.4618      1183.785       815.05734      718.05639      878.75024    
  54248000   252.88294     -412.23045     -327.53665     -412.17819      0              4063.207       31.164         21.490526      33.568964      22482.167      3822.529       4120.8133      4246.2789     -668.19532      240.24193     -512.32682    
  54250000   260.70252     -410.57083     -323.25816     -410.55373      0              887.35772      31.164         21.490526      33.56613       22480.269      58.376503      2779.639      -175.94237     -1110.0621      1646.5755     -551.71856    
  54252000   259.68389     -408.62336     -321.65184     -408.57876      0              3751.813       31.164         21.490526      33.484752      22425.768      5195.7911      4039.1091      2020.5387      788.15888     -1330.8835      1060.379     
  54254000   262.13635     -409.97862     -322.18574     -409.92804      0              2140.9878      31.164         21.490526      33.560894      22476.763      3118.3         3332.7334     -28.070102     -1251.5706     -801.28035      451.05705    
  54256000   257.5467      -409.09595     -322.84021     -409.07585      0              4546.442       31.164         21.490526      33.644375      22532.673      5057.3007      4065.7739      4516.2514     -135.09324     -1708.6686     -2385.136     
  54258000   263.29817     -406.60355     -318.42156     -406.59366      0              3209.8484      31.164         21.490526      33.449495      22402.156      2924.5017      2947.5297      3757.5138     -923.3424      -365.91059     -337.19514    
  54260000   263.84015     -407.31429     -318.95079     -407.26022      0              4202.4859      31.164         21.490526      33.349308      22335.057      5845.6461      5052.7068      1709.1047      414.93008     -34.918716      209.20347    
  54262000   253.4742      -410.21235     -325.32054     -410.18724      0              1557.9415      31.164         21.490526      33.446317      22400.027      3058.2001      1418.1884      197.4359       171.71779     -1138.5671     -402.33094    
  54264000   252.97127     -408.49534     -323.77197     -408.45397      0              3046.9808      31.164         21.490526      33.209304      22241.292      3152.2848      3428.171       2560.4864     -137.95973      633.22997     -85.613185    
  54266000   261.25388     -409.36147     -321.86414     -409.31661      0              2656.9777      31.164         21.490526      33.385396      22359.226      2175.3086      2449.4376      3346.1871     -251.28074      742.06778      736.6308     
  54268000   262.72171     -408.0538      -320.06488     -408.02191      0              3876.3938      31.164         21.490526      33.459205      22408.658      2724.3817      4805.2336      4099.5661      205.84192     -674.06475     -169.32882    
  54270000   263.01772     -408.40835     -320.32028     -408.36802      0              4468.5151      31.164         21.490526      33.399544      22368.702      4560.0137      5004.996       3840.5357     -911.77881     -87.439282     -513.14815    
  54272000   267.27886     -407.8919      -318.37673     -407.87618      0              3135.4455      31.164         21.490526      33.454585      22405.564      818.64731      5391.0931      3196.596       267.9108      -238.7976      -2160.6019    
  54274000   254.96595     -405.65265     -320.26123     -405.61866      0             -550.10425      31.164         21.490526      33.723878      22585.918     -2017.7144      1718.2075     -1350.8059      26.624899      499.94506      374.51042    
  54276000   256.57991     -410.24728     -324.31532     -410.22256      0              2006.9097      31.164         21.490526      33.416511      22380.065      1426.562       3033.0281      1561.1391     -256.76958      740.97366     -252.47717    
  54278000   253.41418     -407.59579     -322.72408     -407.57324      0              2797.5728      31.164         21.490526      33.239716      22261.66       3853.2762      3644.2577      895.18435      1075.695       657.58074      62.486431    
  54280000   261.59934     -410.39558     -322.78255     -410.35238      0              4567.3044      31.164         21.490526      33.233232      22257.317      4942.8118      5316.205       3442.8964     -661.65069      168.58705      335.45558    
  54282000   262.41515     -410.61823     -322.73198     -410.57827      0              3587.7587      31.164         21.490526      33.320438      22315.722      4263.2388      1612.7567      4887.2806     -730.36593      344.49314     -1939.8496    
  54284000   246.10032     -406.3851      -323.96289     -406.38526      0              1541.5903      31.164         21.490526      33.453311      22404.711      3390.0893      7.2604617      1227.421       182.46344     -1767.6285     -660.01493    
  54286000   259.62599     -410.72634     -323.77421     -410.67359      0              2626.8345      31.164         21.490526      33.349288      22335.043      2010.8542      3243.3151      2626.3342     -221.49896      104.90281      172.72846    
  54288000   267.18773     -409.71589     -320.23124     -409.67963      0              2578.9965      31.164         21.490526      33.402798      22370.881      2705.3124      3782.6017      1249.0752     -1745.9202      2214.9446     -521.28765    
  54290000   252.83236     -410.40088     -325.72403     -410.3606       0              4517.0288      31.164         21.490526      33.147388      22199.825      5850.5776      4271.1221      3429.3866      2069.8815      512.2225      -1034.5306    
  54292000   256.2666      -406.66121     -320.83419     -406.63295      0              865.08133      31.164         21.490526      33.175893      22218.915     -220.9747       2320.0342      496.18449      16.632825      955.51856     -218.30955    
  54294000   257.07393     -409.66752     -323.5701      -409.62945      0              4438.9276      31.164         21.490526      33.407683      22374.152      3807.5903      5369.8409      4139.3515     -247.81767     -350.60224      509.53813    
  54296000   265.01935     -410.46024     -321.70181     -410.44108      0              2853.1543      31.164         21.490526      33.554673      22472.597      1543.7993      3600.1099      3415.5537      386.27868      145.2348       49.597584    
  54298000   254.09458     -410.064       -324.96441     -410.03189      0              2501.8802      31.164         21.490526      33.650876      22537.027      1561.1118      1577.8187      4366.71       -2145.0354     -156.38395      360.52999    
  54300000   259.53832     -413.76455     -326.84178     -413.72619      0              4308.0346      31.164         21.490526      33.493899      22431.894      2824.2765      5093.6942      5006.1331      841.95239      1191.5624      1173.5554    
  54302000   257.0234      -409.14108     -323.06059     -409.08975      0              4116.9848      31.164         21.490526      33.371723      22350.069      4628.4275      3265.6997      4456.8271      624.71148      776.22345     -107.97308    
  54304000   265.94339     -407.85197     -318.78407     -407.83502      0              3067.9444      31.164         21.490526      33.37106       22349.625      3447.5019      3146.2953      2610.036       612.76823     -1035.5702      1215.4938    
  54306000   249.53504     -408.53166     -324.95913     -408.51358      0              4333.9859      31.164         21.490526      33.339565      22328.532      4811.2454      2896.1713      5294.541      -691.3947      -578.45002     -1633.4919    
  54308000   257.13133     -408.66816     -322.55152     -408.64448      0              4383.1724      31.164         21.490526      33.542962      22464.753      5093.3832      4662.1176      3394.0165      184.64398      458.93197      1082.0215    
  54310000   259.89707     -406.7603      -319.71738     -406.7351       0              2951.9282      31.164         21.490526      33.680889      22557.127      2670.4283      4156.2558      2029.1006     -377.39593      1911.9236      944.58821    
  54312000   258.10696     -405.88887     -319.44548     -405.8704       0              3839.7496      31.164         21.490526      33.855534      22674.092      5118.3083      2959.4827      3441.4576     -403.21497     -889.74147     -1123.8931    
  54314000   266.14242     -410.23474     -321.10018     -410.19014      0              3618.0177      31.164         21.490526      33.50239       22437.581      1564.7519      3913.3514      5375.9499     -1846.6389      588.94611      360.03216    
  54316000   271.12406     -408.16006     -317.35707     -408.11953      0              1912.1029      31.164         21.490526      33.521435      22450.336      1849.1988      1837.9993      2049.1105     -90.741188     -781.22267      592.36179    
  54318000   262.56739     -407.31895     -319.38171     -407.28955      0              2515.7663      31.164         21.490526      33.674846      22553.08       3424.1227      1727.8083      2395.3681     -94.070214      1207.5884     -1272.451     
  54320000   266.79097     -408.78363     -319.43185     -408.71888      0              4919.0773      31.164         21.490526      33.52269       22451.177      3846.7754      5752.205       5158.2517     -370.32527      1587.4282     -47.945169    
  54322000   258.35621     -407.46433     -320.93747     -407.40933      0              2396.3964      31.164         21.490526      33.242014      22263.199      4001.3178      1790.9972      1396.8742     -712.28648     -331.70636     -1390.3249    
  54324000   254.44753     -406.35493     -321.13713     -406.34542      0              3864.0843      31.164         21.490526      33.531684      22457.2        5994.2659      4313.2151      1284.7718      191.79275      392.84704     -824.98928    
  54326000   261.11432     -408.47377     -321.02318     -408.44198      0              2146.4524      31.164         21.490526      33.322778      22317.289      1341.4832      3228.4548      1869.4192     -1346.4214      883.3721      -1577.5832    
  54328000   258.44335     -408.41993     -321.86388     -408.39203      0              2594.7749      31.164         21.490526      33.366252      22346.405      3368.4454     -851.85943      5267.7388     -642.35775     -19.351228      756.98752    
  54330000   256.30284     -409.93161     -324.09245     -409.89839      0              2985.0673      31.164         21.490526      33.366077      22346.288      2218.2762      2583.7343      4153.1914      324.84475      545.45677      620.95146    
  54332000   258.82527     -409.2577      -322.57374     -409.27742      0              3438.1258      31.164         21.490526      33.573863      22485.448      3518.2777      2906.2827      3889.817      -187.04836      47.405029     -454.33665    
  54334000   262.1196      -405.62323     -317.83596     -405.63245      0              1933.1953      31.164         21.490526      33.454474      22405.49       1235.8607      2644.7836      1918.9415     -1324.3675      1486.8884     -652.88561    
  54336000   258.53269     -409.39785     -322.81188     -409.39819      0              2180.2537      31.164         21.490526      33.718512      22582.324      2236.198       1925.7838      2378.7794     -299.3758      -1027.6347     -188.72256    
  54338000   258.58101     -407.54974     -320.94759     -407.56434      0              2337.123       31.164         21.490526      33.86767       22682.22       1918.265       3752.6906      1340.4135     -978.45663      919.64891     -229.52734    
  54340000   266.26827     -406.76473     -317.58801     -406.7731       0              2134.3776      31.164         21.490526      33.660087      22543.195      530.51367      3389.8278      2482.7912     -30.469808      613.62183      2058.6048    
  54342000   255.90097     -407.65921     -321.95464     -407.6733       0              2807.9988      31.164         21.490526      33.564675      22479.295      1114.9614      5271.8475      2037.1875      259.96316      810.71895     -323.50039    
  54344000   264.5068      -409.41197     -320.82519     -409.41674      0              2698.8588      31.164         21.490526      33.722996      22585.327      4405.44        1883.298       1807.8383     -440.42921     -1230.2539     -1464.4104    
  54346000   252.18651     -409.2172      -324.75665     -409.26031      0              592.61022      31.164         21.490526      33.624509      22519.368      381.16061      627.23669      769.43336     -720.22662     -316.14938     -832.50788    
  54348000   257.57338     -405.75496     -319.49028     -405.75999      0              2278.3824      31.164         21.490526      33.677098      22554.588      2175.958       2228.9797      2430.2095      1093.8979     -894.05609     -352.03331    
  54350000   265.79276     -406.92243     -317.90497     -406.92534      0              3643.7129      31.164         21.490526      33.686         22560.55       2938.4828      5023.4164      2969.2396      234.62437      501.69069     -1044.0649    
  54352000   260.92455     -409.60909     -322.22206     -409.59213      0              3151.8129      31.164         21.490526      33.602128      22504.379      3938.0962      1174.1984      4343.1442     -434.10526      1586.1119     -1471.0497    
  54354000   259.73112     -409.5094      -322.52206     -409.48748      0              3045.5972      31.164         21.490526      33.379122      22355.024      3730.4887      1165.542       4240.7609     -622.82721     -319.41519      1497.3046    
  54356000   258.92038     -409.92504     -323.20923     -409.90821      0              4324.6956      31.164         21.490526      33.579765      22489.401      3484.9504      4755.1227      4734.0137      197.31415      200.23493      165.42819    
  54358000   264.79702     -407.46449     -318.78051     -407.46294      0              851.89854      31.164         21.490526      33.688907      22562.497      2259.1821      602.09352     -305.58004     -471.16215      566.28332     -1172.1518    
  54360000   259.27153     -409.23764     -322.40423     -409.23215      0              1975.77        31.164         21.490526      33.665417      22546.765      2933.4702      1306.2025      1687.6373     -639.51502     -1178.5799     -559.34968    
  54362000   267.63938     -411.37452     -321.73861     -411.35261      0              2997.51        31.164         21.490526      33.627064      22521.079      3902.1874      2875.8511      2214.4916     -1020.287      -50.628401     -436.71121    
  54364000   254.17251     -408.61355     -323.48787     -408.59978      0              1187.8381      31.164         21.490526      33.639176      22529.191      3994.7491     -1166.4205      735.18587      233.19743     -205.5233       550.47717    
  54366000   265.06012     -407.64241     -318.87032     -407.62726      0              3127.0327      31.164         21.490526      33.530944      22456.704      3097.2003      4397.0889      1886.8089     -2017.2339      885.62882     -767.20486    
  54368000   259.85902     -407.76217     -320.73199     -407.76902      0              4253.3072      31.164         21.490526      33.39238       22363.904      4460.9313      3324.8769      4974.1133      522.40003      160.42        -203.07996    
  54370000   260.65727     -408.41293     -321.11541     -408.40337      0              1438.5234      31.164         21.490526      33.472036      22417.252      3472.6755      371.63208      471.26276      621.1959      -1373.067      -1232.7391    
  54372000   267.21425     -410.28961     -320.79607     -410.27824      0              2631.4074      31.164         21.490526      33.32485       22318.677      813.50205      3184.4925      3896.2278     -473.28707      499.33669     -1225.4467    
  54374000   255.63027     -408.14536     -322.53145     -408.11806      0              4012.4448      31.164         21.490526      33.167443      22213.256      3197.294       3913.7684      4926.272      -1592.3191      751.94686      1076.8896    
  54376000   260.21513     -406.72504     -319.5756      -406.71228      0              5263.0505      31.164         21.490526      33.262848      22277.153      4732.4751      5081.3158      5975.3606     -2054.5994      1327.2504      0.330083     
  54378000   262.70944     -409.11944     -321.13463     -409.20049      0              2664.8498      31.164         21.490526      33.425867      22386.331      3733.1268      3423.4372      837.98542     -1578.2943     -617.31093     -723.17687    
  54380000   262.58747     -408.36819     -320.42422     -408.33926      0              3829.7968      31.164         21.490526      33.210393      22242.021      2796.8129      3003.0584      5689.519      -1700.5336     -514.5572      -882.06292    
  54382000   257.65692     -413.73034     -327.43768     -413.69792      0              2428.9788      31.164         21.490526      33.310755      22309.237      2212.0018      2973.0884      2101.8463      84.950691     -14.99215       62.454151    
  54384000   260.01599     -410.46078     -323.37804     -410.44761      0              4457.6672      31.164         21.490526      33.270796      22282.475      4095.8758      5025.9631      4251.1626     -172.3785      -294.27905     -1301.7415    
  54386000   265.04114     -407.40187     -318.63614     -407.39344      0              3637.1518      31.164         21.490526      33.472663      22417.672      3658.8526      2833.1752      4419.4276      1625.1229     -221.87759      369.89408    
  54388000   260.50161     -405.85768     -318.61229     -405.86036      0              2826.7338      31.164         21.490526      33.521644      22450.476      2036.4432      2846.047       3597.7113      217.27119     -668.68067      1301.7439    
  54390000   260.13803     -406.94209     -319.81848     -406.93938      0              4399.0276      31.164         21.490526      33.326924      22320.066      6291.2883      2941.598       3964.1964     -1279.1922     -2209.0974     -1123.224     
  54392000   263.33119     -412.22092     -324.02788     -412.22575      0              1679.9499      31.164         21.490526      33.550971      22470.117      732.27539      2744.8594      1562.715      -1368.3275     -983.95072      292.83496    
  54394000   259.94509     -407.62979     -320.57079     -407.63584      0              3303.1259      31.164         21.490526      33.505159      22439.435      1011.3226      4285.524       4612.531      -749.49788      1081.8694      1042.4988    
  54396000   264.23813     -409.01335     -320.51655     -408.99423      0              3313.921       31.164         21.490526      33.522347      22450.947      4901.412       2826.3923      2213.9585     -743.55016      1659.3082      373.70554    
  54398000   260.74653     -406.85291     -319.52549     -406.83788      0              1144.3123      31.164         21.490526      33.602952      22504.93       87.489663      914.63134      2430.8159      421.65202     -310.9796       1070.7787    
  54400000   263.92099     -410.76745     -322.37687     -410.76655      0              5202.2076      31.164         21.490526      33.513598      22445.087      4712.6866      4811.2793      6082.657      -901.7586       193.54191     -749.98689    
  54402000   258.29802     -409.83378     -323.3264      -409.83148      0              3566.7861      31.164         21.490526      33.64483       22532.978      4070.1372      3133.8994      3496.3219      216.57409      33.767842     -1354.669     
  54404000   265.51699     -410.83274     -321.90764     -410.81669      0              2652.6661      31.164         21.490526      33.51973       22449.194      3533.1797      2758.7981      1666.0204     -953.90057      1524.5792     -1163.7806    
  54406000   260.79801     -407.59164     -320.24698     -407.56674      0              3319.4857      31.164         21.490526      33.321929      22316.72       4090.2705      1874.8742      3993.3123      1150.3453     -318.71519      682.51934    
  54408000   258.55385     -412.29263     -325.69957     -412.27869      0              2257.7374      31.164         21.490526      33.544077      22465.5        2499.7941      2027.4933      2245.9247      82.271373      979.60541      882.01879    
  54410000   263.31598     -410.37214     -322.18419     -410.37811      0              4024.534       31.164         21.490526      33.60197       22504.273      4050.5158      4885.7699      3137.3161     -793.01874      1256.1736     -2142.093     
  54412000   262.55339     -408.33055     -320.398       -408.38751      0              2422.0365      31.164         21.490526      33.807656      22642.027      1769.1865      3586.5451      1910.378       1047.5965      65.817669      710.25584    
  54414000   268.66996     -411.00871     -321.02764     -411.01455      0              1363.9167      31.164         21.490526      33.454185      22405.297      496.78776      2105.2832      1489.6792      146.78304     -41.713868     -537.54285    
  54416000   260.66315     -409.60368     -322.3042      -409.61302      0              2313.9263      31.164         21.490526      33.57841       22488.494      809.99226      2615.5063      3516.2804      697.87451      107.85001      1501.8654    
[...]
  61320000   262.40542     -408.19926     -320.31627     -408.1488       0              5184.3323      31.164         21.490526      33.151882      22202.835      4676.1272      4098.0987      6778.7711      1212.6378     -1596.419       97.455314    
  61322000   261.98562     -411.78555     -324.04315     -411.72267      0              2198.8978      31.164         21.490526      33.313157      22310.846      2902.4388      1605.1254      2089.1293      696.36726     -295.70174      349.10231    
  61324000   259.01818     -408.59413     -321.84556     -408.56135      0              2706.7484      31.164         21.490526      33.38296       22357.595      3024.604       3869.2237      1226.4176      1685.2141     -1771.5019     -2724.008     
  61326000   252.93143     -411.44192     -326.73188     -411.44271      0              3555.326       31.164         21.490526      33.391201      22363.114      4681.1539      2762.7708      3222.0532      1521.3595     -242.53675      1023.9134    
  61328000   261.61203     -408.96169     -321.34441     -408.95195      0              4352.7168      31.164         21.490526      33.350907      22336.128      5316.2565      4501.2942      3240.5996     -1112.5315      458.449        639.72795    
  61330000   256.20296     -411.96333     -326.15762     -411.92862      0              3586.8867      31.164         21.490526      33.580577      22489.945      2722.8975      3289.7615      4748.0012     -52.241225      308.50355     -566.40444    
  61332000   256.38069     -412.31842     -326.45319     -412.29795      0              1574.6579      31.164         21.490526      33.62979       22522.905      2544.3285      3451.3161     -1271.6708      1429.2673     -697.10592     -577.11107    
  61334000   255.34639     -409.66175     -324.14291     -409.64095      0              3103.3229      31.164         21.490526      33.629314      22522.586      4606.5122      2584.3403      2119.1161     -698.35657      678.89874     -870.29719    
  61336000   263.39171     -410.55979     -322.34647     -410.54341      0              2284.8093      31.164         21.490526      33.578707      22488.693      1648.0674      3172.4677      2033.8928      1328.2188      207.65076     -455.05532    
  61338000   265.18247     -408.50727     -319.69421     -408.51758      0              2754.538       31.164         21.490526      33.328982      22321.444      1004.366       2896.0468      4363.2012      270.19709      1052.8159     -537.99534    
  61340000   255.81345     -409.09235     -323.41709     -409.08667      0              4133.402       31.164         21.490526      33.491146      22430.051      5159.3652      4592.4701      2648.3706     -583.54909      493.09502     -157.71372    
  61342000   264.24184     -409.45235     -320.95432     -409.40784      0              4379.5502      31.164         21.490526      33.111822      22176.006      2755.8488      4104.4395      6278.3622      399.96413      928.03672     -1776.0817    
  61344000   255.39166     -410.4189      -324.8849      -410.37416      0              3227.1346      31.164         21.490526      33.162315      22209.822      2412.7831      2387.2439      4881.3768      1185.3479      294.8378       326.99913    
  61346000   262.56044     -408.75452     -320.8196      -408.71454      0              2516.3274      31.164         21.490526      33.309977      22308.716      3633.7066      1562.6173      2352.6583     -831.29603     -98.591756      274.34784    
  61348000   259.33948     -409.70701     -322.85084     -409.66512      0              2503.0883      31.164         21.490526      33.334919      22325.421      4486.7277      715.72411      2306.813      -3051.6856      1129.6891     -699.57394    
  61350000   260.80466     -408.12074     -320.77386     -408.08698      0              2043.6062      31.164         21.490526      33.156058      22205.632      1908.4126      3835.5755      386.83041     -998.16402      638.27672      362.47531    
  61352000   261.28833     -409.94217     -322.4333      -409.9103       0              4312.12        31.164         21.490526      33.272542      22283.645      4266.0439      2986.928       5683.3882      1576.9203     -455.03334      999.82726    
  61354000   260.10187     -412.51212     -325.40061     -412.47062      0              2004.725       31.164         21.490526      33.296556      22299.727      1913.0325      988.88365      3112.2588      532.29458     -782.99124      1149.9274    
  61356000   263.76376     -409.52252     -321.1846      -409.51303      0              1781.6867      31.164         21.490526      33.191239      22229.193      1471.8879      63.454454      3809.7178      468.95582     -475.2112      -4.2544433    
  61358000   266.80427     -409.43474     -320.07852     -409.42321      0              3744.5215      31.164         21.490526      33.201764      22236.242      2704.8005      4369.2767      4159.4874      906.90219     -11.87685      -294.95351    
  61360000   261.66891     -409.73138     -322.09506     -409.69961      0              2310.6237      31.164         21.490526      33.339267      22328.332      1815.7368      3132.7065      1983.4277      196.58077     -73.789382     -441.17342    
  61362000   269.42959     -408.33136     -318.09588     -408.32046      0              4672.4108      31.164         21.490526      33.235644      22258.933      4986.4696      3032.9408      5997.8219      28.364031     -373.16242     -1150.4027    
  61364000   259.02909     -409.12007     -322.36785     -409.12758      0              4530.3525      31.164         21.490526      33.320989      22316.091      5216.1382      4912.5024      3462.417       758.24831     -2334.1627     -187.35209    
  61366000   260.27321     -410.69069     -323.5218      -410.66618      0              2706.2348      31.164         21.490526      33.15268       22203.369      3105.2137      933.17405      4080.3166      61.268807     -171.01482     -1638.0197    
  61368000   259.93754     -408.74078     -321.68431     -408.72243      0              3469.8013      31.164         21.490526      33.464835      22412.429      2727.6139      3532.3513      4149.4386      48.425567     -170.3177      -1174.5487    
  61370000   260.41569     -408.98545     -321.76884     -408.95377      0              2563.3002      31.164         21.490526      33.388094      22361.033      4572.1476      1601.982       1515.771      -13.532357      618.30372      522.09065    
  61372000   262.26049     -408.10167     -320.26722     -408.09065      0              3138.8956      31.164         21.490526      33.568139      22481.615      1830.7162      4051.9258      3534.0448     -625.29506      1067.1067      736.14652    
  61374000   264.77782     -409.1292      -320.45166     -409.10291      0              2437.1275      31.164         21.490526      33.353174      22337.646      1526.7017      2789.6627      2995.0181      555.69261     -724.74224     -143.98035    
  61376000   265.1589      -409.73709     -320.93192     -409.69663      0              4045.9006      31.164         21.490526      33.380485      22355.937      2157.1293      4399.6147      5580.9577      46.002113      164.37046      1087.7033    
  61378000   254.62342     -407.91112     -322.63442     -407.91465      0              3112.9932      31.164         21.490526      33.396053      22366.364      4467.6939      543.48454      4327.8011     -2497.9625     -568.58296     -889.22258    
  61380000   261.75896     -409.32717     -321.66068     -409.30607      0              3772.4052      31.164         21.490526      33.333174      22324.251      4270.7342      5179.0605      1867.421       739.965       -336.53537     -229.86739    
  61382000   257.09069     -412.05885     -325.95583     -412.02331      0              3117.6774      31.164         21.490526      33.245655      22265.637      2855.4618      2349.0242      4148.5463     -1375.6426     -669.79688     -1723.2403    
  61384000   251.02045     -409.17007     -325.10005     -409.17054      0              2614.0781      31.164         21.490526      33.5535        22471.811      2643.9231      3552.2447      1646.0665      703.8673      -1505.8599     -459.82411    
  61386000   265.82845     -404.94774     -315.91833     -404.96069      0              2404.4825      31.164         21.490526      33.62028       22516.536      1478.1552      3336.9777      2398.3146     -683.23738     -302.36516      568.67318    
  61388000   249.14043     -408.06533     -324.62496     -408.07664      0              3564.5876      31.164         21.490526      33.595917      22500.219      4854.6822      2747.9151      3091.1656     -774.36588     -645.54722     -967.05657    
  61390000   266.06458     -405.51044     -316.40195     -405.47607      0              2968.264       31.164         21.490526      33.58907       22495.633      1958.1278      3784.0839      3162.5804      30.091351      1494.144       748.18378    
  61392000   254.3894      -408.60069     -323.40236     -408.57961      0              1865.5203      31.164         21.490526      33.672757      22551.681      2677.2768      1710.73        1208.5541      593.97117      1285.4274     -989.22228    
  61394000   258.9925      -410.7269      -323.98694     -410.71691      0              2615.9913      31.164         21.490526      33.591398      22497.192      1217.1767      3453.7637      3177.0334      573.33608      164.11141     -719.79795    
  61396000   258.67453     -407.42445     -320.79097     -407.37731      0              1864.7287      31.164         21.490526      33.60752       22507.99       2812.2811      1903.5424      878.36253     -351.58669     -541.33039     -1380.8436    
  61398000   257.36683     -407.58753     -321.39202     -407.59585      0              2725.2136      31.164         21.490526      33.614006      22512.334      2980.551       3064.7946      2130.2951     -805.25783     -581.43691     -382.28871    
  61400000   255.53997     -407.82483     -322.24117     -407.83509      0              3969.8213      31.164         21.490526      33.781366      22624.42       4489.6728      2673.1063      4746.6848     -693.88634      1131.4107      484.50261    
  61402000   261.87631     -411.37577     -323.66997     -411.36489      0              3676.4356      31.164         21.490526      33.656055      22540.495      5965.4142      2994.8168      2069.0758      199.90599      305.16262     -249.6774     
  61404000   258.85486     -410.71333     -324.01947     -410.69917      0              1952.4145      31.164         21.490526      33.451583      22403.554      3156.2221      798.04971      1902.9717      895.54578     -931.39769     -925.22276    
  61406000   260.68061     -408.5844      -321.27907     -408.57662      0              3588.4007      31.164         21.490526      33.700044      22569.956      5653.0351      4032.2093      1079.9577     -676.92586     -1244.0274     -407.47501    
  61408000   259.76383     -408.48481     -321.48652     -408.49213      0              2332.0092      31.164         21.490526      33.606918      22507.587      2890.9721      397.00598      3708.0496     -521.45512      788.15585      942.94433    
  61410000   258.74963     -410.00986     -323.35124     -409.9937       0              3780.7976      31.164         21.490526      33.715658      22580.413      3887.6748      4665.0232      2789.6948     -2324.7417     -930.49025     -710.19616    
  61412000   258.48538     -408.81017     -322.24005     -408.80967      0              4437.059       31.164         21.490526      33.686402      22560.819      7688.5956      4225.578       1397.0034     -1574.7315     -249.84935     -2453.5807    
  61414000   271.81298     -409.69526     -318.66155     -409.68513      0              3322.0294      31.164         21.490526      33.431315      22389.98       4035.6137      3960.2216      1970.253      -1185.0239     -697.9923      -1848.349     
  61416000   260.89962     -410.23859     -322.85991     -410.22812      0              2888.8219      31.164         21.490526      33.589783      22496.111      2959.4748      2680.0364      3026.9545     -744.57919      400.67746      446.59897    
  61418000   262.95532     -409.10615     -321.03899     -409.06726      0              2540.7644      31.164         21.490526      33.741441      22597.681      2113.097       2272.5313      3236.6649     -519.95628      2033.7836      156.78683    
  61420000   263.28647     -409.13679     -320.95872     -409.13778      0              2620.2522      31.164         21.490526      33.69778       22568.439      3262.5457      3047.2562      1550.9548     -1056.9536      876.97852     -421.75275    
  61422000   254.42297     -409.18086     -323.97129     -409.17122      0              1404.041       31.164         21.490526      33.85422       22673.212      1757.3429      1055.152       1399.6282     -1522.8803      1094.1924     -844.95432    
  61424000   261.66779     -407.23176     -319.59581     -407.21863      0              2662.4152      31.164         21.490526      33.915951      22714.555      1990.4515      3202.5157      2794.2786      608.40767     -1185.2594      1032.9293    
  61426000   261.82221     -406.6566      -318.96893     -406.66614      0              1509.2466      31.164         21.490526      33.752878      22605.34       3146.741       1349.9012      31.09759      -119.99321     -1766.4448     -703.29983    
  61428000   259.84857     -407.55494     -320.52827     -407.5384       0              2322.5697      31.164         21.490526      33.841671      22664.808      2538.7895      3156.5443      1272.3754     -520.27069      762.21322     -1296.9045    
  61430000   259.01753     -410.95254     -324.2042      -410.95914      0              3189.453       31.164         21.490526      33.840024      22663.705      3953.6904      2048.1997      3566.4688      350.90761     -718.46407      1502.9322    
  61432000   261.28999     -408.20443     -320.69501     -408.19654      0              1470.6702      31.164         21.490526      33.748143      22602.169      3345.5369      854.90313      211.57059      132.06439     -1060.7135      27.006512    
  61434000   257.46613     -408.35656     -322.1278      -408.32465      0              2265.5321      31.164         21.490526      33.884425      22693.442      3222.1851      1569.5111      2004.9         180.79261     -113.32046      660.75718    
  61436000   259.74835     -408.80689     -321.81378     -408.76252      0              4775.8338      31.164         21.490526      33.715323      22580.189      4071.2294      4451.013       5805.259      -736.95177     -435.92464      50.162984    
  61438000   266.34283     -404.6456      -315.44392     -404.64497      0              2926.0865      31.164         21.490526      33.548341      22468.356      1211.3324      3614.9466      3951.9804     -919.13255      620.37601     -1034.4413    
  61440000   256.27362     -407.60117     -321.77179     -407.61103      0              3316.3099      31.164         21.490526      33.776863      22621.404      2769.7673      4957.2892      2221.8731      259.87131     -170.87823     -349.65748    
  61442000   256.87599     -407.18408     -321.15296     -407.19691      0              4502.8823      31.164         21.490526      33.540413      22463.046      4953.2402      4835.7357      3719.671       1558.8828     -157.3984      -304.96335    
  61444000   260.87961     -408.24649     -320.8745      -408.22684      0              3208.3874      31.164         21.490526      33.49158       22430.341      3283.2258      2026.2376      4315.6989      646.80559      1277.9878      521.16479    
  61446000   257.99864     -412.43836     -326.03125     -412.38489      0              2608.2563      31.164         21.490526      33.597633      22501.368      2120.3096      4311.6051      1392.8543      2038.4447      361.44867     -1731.3417    
  61448000   263.44984     -407.8912      -319.65841     -407.84795      0              2176.0875      31.164         21.490526      33.715339      22580.199      3026.4871      2727.0851      774.6904      -686.28368      364.5006       109.49667    
  61450000   258.35681     -408.55047     -322.02341     -408.52883      0              1208.5821      31.164         21.490526      33.892029      22698.534     -352.70696      4316.4604     -338.00713      1853.7236      328.94097     -648.7156     
  61452000   261.15633     -410.77138     -323.30672     -410.74568      0              2307.0772      31.164         21.490526      33.617909      22514.948      3166.5146      1957.9252      1796.7916      773.99796      489.27803      740.83467    
  61454000   256.83251     -407.4309      -321.41434     -407.43108      0              1661.3967      31.164         21.490526      33.680628      22556.952      2055.0187      1481.6231      1447.5484      149.3509      -228.3946      -1239.5687    
  61456000   259.98282     -410.73955     -323.66792     -410.74733      0              4249.3382      31.164         21.490526      33.757396      22608.366      5002.6684      5062.4417      2682.9045     -755.20939     -869.31161      11.317097    
  61458000   255.76845     -410.23824     -324.57805     -410.25366      0              932.93129      31.164         21.490526      33.726806      22587.879      2470.6074     -53.250702      381.43721      779.59103     -922.15215     -1017.3749    
  61460000   254.0551      -411.01232     -325.92596     -411.01043      0              3343.2513      31.164         21.490526      33.570873      22483.446      4589.1549      1564.5518      3876.0472     -172.20571      280.0547       65.367797    
  61462000   257.92892     -409.71309     -323.32934     -409.70336      0              1968.4801      31.164         21.490526      33.686688      22561.011      3260.3126      522.91693      2122.2106     -1615.9793     -432.85754     -210.86406    
WARNING: Wall time limit reached (../timer.cpp:193)
Loop time of 85804.9 on 4 procs for 7613000 steps with 2592 atoms

Performance: 3.833 ns/day, 6.262 hours/ns, 88.725 timesteps/s
1453.5% CPU use with 4 MPI tasks x no OpenMP threads

MPI task timing breakdown:
Section |  min time  |  avg time  |  max time  |%varavg| %total
---------------------------------------------------------------
Pair    | 21174      | 21417      | 21689      | 147.2 | 24.96
Bond    | 0.77698    | 0.7985     | 0.82391    |   2.3 |  0.00
Neigh   | 640.87     | 643.03     | 647.63     |  10.8 |  0.75
Comm    | 2387.5     | 2657.5     | 2894.9     | 410.3 |  3.10
Output  | 5569.1     | 5569.1     | 5569.3     |   0.1 |  6.49
Modify  | 55490      | 55496      | 55503      |   2.6 | 64.68
Other   |            | 21.46      |            |       |  0.03

Nlocal:            648 ave         662 max         629 min
Histogram: 1 0 0 1 0 0 0 0 0 2
Nghost:        4147.25 ave        4158 max        4135 min
Histogram: 1 0 0 1 0 0 0 1 0 1
Neighs:              0 ave           0 max           0 min
Histogram: 4 0 0 0 0 0 0 0 0 0
FullNghs:       159516 ave      166053 max      151276 min
Histogram: 1 0 1 0 0 0 0 0 0 2

Total # of neighbors = 638062
Ave neighs/atom = 246.1659
Ave special neighs/atom = 0
Neighbor list builds = 152260
Dangerous builds not checked
unfix 3
unfix 1
unfix 2


# Finalize simulation
write_restart	restart.lmp.${pid}
write_restart	restart.lmp.0
System init for write_restart ...
Generated 0 of 1 mixed pair_coeff terms from geometric mixing rule
write_data	data.final.${pid} nocoeff
write_data	data.final.0 nocoeff
System init for write_data ...
Generated 0 of 1 mixed pair_coeff terms from geometric mixing rule
Total wall time: 23:50:19
