LAMMPS (23 Jun 2022)
include procedure.lmp
echo both
include		in.partitions
variable        pid world 0
include		in.temp
variable	temperature equal 260
variable        tempDamp equal 0.100 # this is 0.1 ps
include		in.pressure
variable        pressure equal 3039.75
variable        pressureDamp equal 1.0 #this is 1ps

variable	barostat string	   tri
variable	direction string   z
variable	direction_x_bool equal 0
variable	direction_y_bool equal 0
variable	direction_z_bool equal 1

include		in.seed
variable        seed world 745823

units           metal
atom_style	full
box tilt large
read_restart 	restart.lmp.${pid}
read_restart 	restart.lmp.0
Reading restart file ...
  restart file = 23 Jun 2022, LAMMPS = 23 Jun 2022
  restoring atom style full from restart
  triclinic box = (0 0 -0.88629722) to (31.164 21.490526 32.570801) with tilt (-9.197534 0.81934797 -11.227585)
WARNING: Triclinic box skew is large (../domain.cpp:224)
  2 by 1 by 2 MPI processor grid
Summary of lammps deepmd module ...
  >>> Info of deepmd-kit:
  installed to:       /u/sigbjobo/software/DEEPMD_FROM_SOURCE/deepmd-kit/install
  source:             v2.1.3
  source branch:       master
  source commit:      5a32c49
  source commit at:   2022-07-01 09:52:58 +0800
  surpport model ver.:1.1 
  build float prec:   double
  build with tf inc:  /u/sigbjobo/software/DEEPMD_FROM_SOURCE/tensorflow/install/include;/u/sigbjobo/software/DEEPMD_FROM_SOURCE/tensorflow/install/include
  build with tf lib:  /u/sigbjobo/software/DEEPMD_FROM_SOURCE/tensorflow/install/lib/libtensorflow_cc.so;/u/sigbjobo/software/DEEPMD_FROM_SOURCE/tensorflow/install/lib/libtensorflow_framework.so
  set tf intra_op_parallelism_threads: 0
  set tf inter_op_parallelism_threads: 0
  >>> Info of lammps module:
  use deepmd-kit at:  /u/sigbjobo/software/DEEPMD_FROM_SOURCE/deepmd-kit/install
  source:             v2.1.3
  source branch:      master
  source commit:      5a32c49
  source commit at:   2022-07-01 09:52:58 +0800
  build float prec:   double
  build with tf inc:  /u/sigbjobo/software/DEEPMD_FROM_SOURCE/tensorflow/install/include;/u/sigbjobo/software/DEEPMD_FROM_SOURCE/tensorflow/install/include
  build with tf lib:  /u/sigbjobo/software/DEEPMD_FROM_SOURCE/tensorflow/install/lib/libtensorflow_cc.so;/u/sigbjobo/software/DEEPMD_FROM_SOURCE/tensorflow/install/lib/libtensorflow_framework.so
  restoring pair style deepmd from restart
  2592 atoms
Finding 1-2 1-3 1-4 neighbors ...
  special bond factors lj:    0        0        0       
  special bond factors coul:  0        0        0       
     0 = max # of 1-2 neighbors
     0 = max # of 1-3 neighbors
     0 = max # of 1-4 neighbors
     1 = max # of special neighbors
  special bonds CPU = 0.000 seconds
  read_restart CPU = 0.046 seconds
include 	in.setup
variable	out_freq equal 2000
variable	out_freq2 equal 2000

timestep        0.0005

neigh_modify    delay 7 every 1

include         in.deepmd
# This is deepMD model

# create groups ###
#group ox type 2
#group hy type 1

mass 2 15.999
mass 1 1.008

pair_style      deepmd ../graph.pb
pair_coeff      * *

bond_style      none
angle_style     none
dihedral_style  none
improper_style  none
neigh_modify exclude none


neighbor        2.0 bin
neigh_modify    every 50 delay 0 check no

thermo          ${out_freq}
thermo          2000
thermo_style 	custom step temp pe etotal epair emol press lx ly lz vol pxx pyy pzz pxy pxz pyz

restart 	${out_freq} restart.lmp.${pid} restart2.lmp.${pid}
restart 	2000 restart.lmp.${pid} restart2.lmp.${pid}
restart 	2000 restart.lmp.0 restart2.lmp.${pid}
restart 	2000 restart.lmp.0 restart2.lmp.0


timer           timeout 23:50:00 every 1000
New timer settings: style=normal  mode=nosync  timeout=23:50:00


# Set number of time steps
variable 	nsteps_wall		equal	 6000000
variable 	nsteps_enhanced_coex    equal	60000000

variable     nsteps_enhanced_coex_upto equal (${nsteps_wall}+${nsteps_enhanced_coex})
variable     nsteps_enhanced_coex_upto equal (6000000+${nsteps_enhanced_coex})
variable     nsteps_enhanced_coex_upto equal (6000000+60000000)


# Set temperature for first step
if "$(step) < 1  " then    "velocity 	all create ${temperature} ${seed} dist gaussian"


# Always run thermo and barostat


######################################
# Run simulation with wall potential #
######################################
if " $(step) < ${nsteps_wall} " then    "fix             3 all plumed plumedfile plumed.equil.dat outfile plumed.equil.out"   "fix             1 all nph ${direction} ${pressure} ${pressure} ${pressureDamp}"   "fix             2 all temp/csvr ${temperature} ${temperature} ${tempDamp} ${seed}"   "run             ${nsteps_wall} upto"
if " $(step) == ${nsteps_wall} " then    "unfix 3"   "unfix 1"   "unfix 2"


############################
# Run enhanced coesistence #
############################
if "$(step) == ${nsteps_wall}" then    "fix             3 all plumed plumedfile plumed.start.dat outfile plumed.out" else    "fix             3 all plumed plumedfile plumed.dat outfile plumed.out"
fix             3 all plumed plumedfile plumed.dat outfile plumed.out

if "$(step) < ${nsteps_enhanced_coex_upto} && $(step) >= ${nsteps_wall} " then    "include         in.dump"    "fix             1 all nph ${direction} ${pressure} ${pressure} ${pressureDamp}"   "fix             2 all temp/csvr ${temperature} ${temperature} ${tempDamp} ${seed}"   "run             ${nsteps_enhanced_coex_upto} upto"    "unfix 3"   "unfix 1"   "unfix 2"
include         in.dump
dump            myDump all atom ${out_freq2} dump.water.${pid}
dump            myDump all atom 2000 dump.water.${pid}
dump            myDump all atom 2000 dump.water.0
dump            myDump2 all dcd ${out_freq2} dump.${pid}.dcd
dump            myDump2 all dcd 2000 dump.${pid}.dcd
dump            myDump2 all dcd 2000 dump.0.dcd
dump_modify     myDump append yes
dump_modify     myDump2 append yes

fix             1 all nph ${direction} ${pressure} ${pressure} ${pressureDamp}
fix             1 all nph z ${pressure} ${pressure} ${pressureDamp}
fix             1 all nph z 3039.75 ${pressure} ${pressureDamp}
fix             1 all nph z 3039.75 3039.75 ${pressureDamp}
fix             1 all nph z 3039.75 3039.75 1
fix             2 all temp/csvr ${temperature} ${temperature} ${tempDamp} ${seed}
fix             2 all temp/csvr 260 ${temperature} ${tempDamp} ${seed}
fix             2 all temp/csvr 260 260 ${tempDamp} ${seed}
fix             2 all temp/csvr 260 260 0.1 ${seed}
fix             2 all temp/csvr 260 260 0.1 745823
run             ${nsteps_enhanced_coex_upto} upto
run             66000000 upto

CITE-CITE-CITE-CITE-CITE-CITE-CITE-CITE-CITE-CITE-CITE-CITE-CITE

Your simulation uses code contributions which should be cited:

- USER-DEEPMD package:

@article{Wang_ComputPhysCommun_2018_v228_p178,
  author = {Wang, Han and Zhang, Linfeng and Han, Jiequn and E, Weinan},
  doi = {10.1016/j.cpc.2018.03.016},
  url = {https://doi.org/10.1016/j.cpc.2018.03.016},
  year = 2018,
  month = {jul},
  publisher = {Elsevier {BV}},
  volume = 228,
  journal = {Comput. Phys. Commun.},
  title = {{DeePMD-kit: A deep learning package for many-body potential energy representation and molecular dynamics}},
  pages = {178--184}
}

CITE-CITE-CITE-CITE-CITE-CITE-CITE-CITE-CITE-CITE-CITE-CITE-CITE

Generated 0 of 1 mixed pair_coeff terms from geometric mixing rule
Neighbor list info ...
  update every 50 steps, delay 0 steps, check no
  max neighbors/atom: 2000, page size: 100000
  master list distance cutoff = 8
  ghost atom cutoff = 8
  binsize = 4, bins = 11 9 9
  1 neighbor lists, perpetual/occasional/extra = 1 0 0
  (1) pair deepmd, perpetual
      attributes: full, newton on
      pair build: full/bin
      stencil: full/bin/3d
      bin: standard
Per MPI rank memory allocation (min/avg/max) = 7.305 | 7.306 | 7.307 Mbytes
   Step          Temp          PotEng         TotEng         E_pair         E_mol          Press            Lx             Ly             Lz           Volume          Pxx            Pyy            Pzz            Pxy            Pxz            Pyz      
  26000000   259.9769      -406.46713     -319.39748     -406.46713      0              3810.4324      31.164         21.490526      33.457098      22407.248      3703.3041      4335.1675      3392.8257      468.03475      208.25492      475.7671     
  26002000   263.98226     -407.52121     -319.11011     -407.52121      0              3279.2566      31.164         21.490526      33.357745      22340.708      4931.5352      3108.7015      1797.533      -1363.05        402.02853     -774.90511    
  26004000   260.21589     -409.50341     -322.35371     -409.50341      0              5606.3539      31.164         21.490526      33.424917      22385.695      5174.5047      5860.945       5783.612       518.44312     -1232.2654      198.5895     
  26006000   265.39726     -410.32707     -321.44207     -410.32707      0              5044.7305      31.164         21.490526      33.263006      22277.258      4313.2047      4669.5087      6151.4781      146.89021      2609.6603     -937.76405    
  26008000   258.07558     -408.4353      -322.00243     -408.4353       0              3309.4205      31.164         21.490526      33.239298      22261.38       4396.0827      1747.1028      3785.076      -1952.6919     -250.42724     -1686.0114    
  26010000   268.011       -407.77477     -318.01439     -407.77477      0              1853.9448      31.164         21.490526      33.579358      22489.129      2004.3333      2775.1227      782.37835      1338.1573     -204.5964      -111.67527    
  26012000   260.25486     -407.35602     -320.19327     -407.35602      0              3721.0744      31.164         21.490526      33.349197      22334.983      2029.0354      5144.7981      3989.3896      1480.0041     -551.07714     -150.9485     
  26014000   256.56213     -408.92596     -322.99996     -408.92596      0              1632.768       31.164         21.490526      33.322172      22316.884      2171.1358     -429.18525      3156.3534      1970.2444     -783.80707      135.18313    
  26016000   263.94284     -409.16073     -320.76283     -409.16073      0              4268.6553      31.164         21.490526      33.483724      22425.08       3200.8796      5111.4356      4493.6506     -897.10717     -1146.1958      245.95194    
  26018000   256.14529     -410.12118     -324.33478     -410.12118      0              4276.405       31.164         21.490526      33.499578      22435.697      3122.9574      4933.0503      4773.2072     -204.92877     -41.153198     -856.11774    
  26020000   254.03208     -408.59194     -323.51328     -408.59194      0              3339.6329      31.164         21.490526      33.440968      22396.445      4084.9412      3409.6862      2524.2714     -1155.3663      1459.2495     -348.61708    
  26022000   260.20485     -411.21373     -324.06773     -411.21373      0              2995.6168      31.164         21.490526      33.489643      22429.044      1754.1338      3182.2148      4050.5019      786.54895     -1081.1841      230.69437    
  26024000   266.72673     -408.45822     -319.12796     -408.45822      0              5235.7864      31.164         21.490526      33.28994       22295.296      5089.8117      6044.1651      4573.3822     -352.06794     -1738.5962     -122.7933     
  26026000   267.83636     -407.41571     -317.71382     -407.41571      0              4078.2387      31.164         21.490526      33.454321      22405.388      4747.4958      3313.1326      4174.0878      90.99488       625.67951     -198.4941     
  26028000   262.84593     -410.42905     -322.39852     -410.42905      0              1388.813       31.164         21.490526      33.604675      22506.084      210.99283      1980.4141      1975.032       841.58137      1188.5258     -877.11596    
  26030000   275.07917     -408.57851     -316.4509      -408.57851      0              6547.5776      31.164         21.490526      33.467676      22414.331      7638.095       6027.8917      5976.746      -1582.8049      401.95811      55.819029    
  26032000   252.63177     -406.45506     -321.84539     -406.45506      0              4343.0474      31.164         21.490526      33.53214       22457.505      3668.1179      5000.2972      4360.7272      486.76966     -1124.0399     -2543.4525    
  26034000   252.35924     -409.59682     -325.07842     -409.59682      0              2830.8786      31.164         21.490526      33.781766      22624.688      2518.4139      3466.7034      2507.5185     -604.78333      1515.4558      1045.4198    
  26036000   253.02775     -407.81663     -323.07434     -407.81663      0              2577.15        31.164         21.490526      33.710662      22577.067      1690.3466      3763.6162      2277.4872      442.41623      210.9232       180.5141     
  26038000   268.48913     -409.03176     -319.11125     -409.03176      0              3544.276       31.164         21.490526      33.599459      22502.591      2833.567       4054.4468      3744.8141     -743.50551      527.77287     -1573.5133    
  26040000   258.5556      -407.98258     -321.38894     -407.98258      0              2867.1254      31.164         21.490526      33.662161      22544.584      2980.0596      2853.8756      2767.4409      1359.388      -2774.3341      275.05495    
  26042000   264.84415     -408.77824     -320.07848     -408.77824      0              4052.5444      31.164         21.490526      33.607699      22508.109      3455.5528      5007.4272      3694.6532      1380.154       215.10448     -1198.4742    
  26044000   255.19447     -408.04873     -322.58077     -408.04873      0              4663.7654      31.164         21.490526      33.63169       22524.177      4523.1375      5945.5101      3522.6484      290.59735      418.82612     -1099.0918    
  26046000   261.31368     -408.12115     -320.60379     -408.12115      0              4562.4149      31.164         21.490526      33.447698      22400.952      5348.8288      5763.0592      2575.3567     -27.342282     -753.23473     -2015.7455    
  26048000   259.7167      -408.2059      -321.22339     -408.2059       0              2958.3089      31.164         21.490526      33.697612      22568.327      2019.5872      4077.2651      2778.0745     -1156.6749      488.8494      -699.89948    
  26050000   269.54015     -407.27561     -317.0031      -407.27561      0              872.21865      31.164         21.490526      33.814089      22646.335     -42.878495      3081.7428     -422.20836      884.57645      1.4143786     -145.77228    
  26052000   257.7344      -408.57407     -322.25546     -408.57407      0              2873.8606      31.164         21.490526      33.717353      22581.548      3926.5881      3244.2016      1450.7922      855.78475      412.35853     -765.95624    
  26054000   262.24517     -406.86605     -319.03673     -406.86605      0              3464.2294      31.164         21.490526      33.557879      22474.743      3393.0339      4416.206       2583.4482      627.56189     -643.19951     -2010.5194    
  26056000   262.03905     -405.90631     -318.14601     -405.90631      0              4715.8155      31.164         21.490526      33.312104      22310.14       3997.6854      3557.5555      6592.2055      140.04438      1661.1498     -2131.9448    
  26058000   255.64947     -406.73677     -321.11643     -406.73677      0              2826.0359      31.164         21.490526      33.372324      22350.472      2187.4721      2415.9056      3874.7299     -1783.5986      2208.5519     -1908.2229    
  26060000   262.30658     -408.846       -320.99611     -408.846        0              3178.6792      31.164         21.490526      33.402346      22370.579      3376.0248      2021.2805      4138.7322      845.36166      650.01548      551.60542    
  26062000   264.32265     -406.68352     -318.15842     -406.68352      0              3969.8819      31.164         21.490526      33.314188      22311.536      3189.3348      4245.4692      4474.8417     -576.12033      2040.2953     -2341.9042    
  26064000   267.69152     -405.175       -315.52162     -405.175        0              3908.6052      31.164         21.490526      33.545595      22466.517      5942.8452      4583.2771      1199.6933      1012.6463     -494.40725     -2931.3883    
  26066000   265.80655     -404.64144     -315.61936     -404.64144      0              3531.7924      31.164         21.490526      33.477728      22421.064      3611.3031      3896.8514      3087.2227      233.38534      90.064996      1006.699     
  26068000   263.30058     -410.0391      -321.8563      -410.0391       0              4091.8479      31.164         21.490526      33.448532      22401.51       5352.1129      3550.3511      3373.0796      1317.6991      98.102453     -449.16827    
  26070000   258.61541     -407.72668     -321.113       -407.72668      0              3712.1269      31.164         21.490526      33.402307      22370.552      3719.5811      3128.21        4288.5894      304.26947      1959.0851     -424.793      
  26072000   268.12078     -406.1023      -316.30516     -406.1023       0              3201.9504      31.164         21.490526      33.691077      22563.95       2792.0309      3034.8447      3778.9755     -1184.8833      90.262713     -498.40053    
  26074000   262.0047      -407.50417     -319.75538     -407.50417      0              2841.2857      31.164         21.490526      33.52931       22455.61       2908.1841      2863.8825      2751.7906     -449.00789     -899.87202     -1287.7718    
  26076000   265.13605     -408.91279     -320.11527     -408.91279      0              3060.068       31.164         21.490526      33.674276      22552.698      3178.6784      3181.5295      2819.996      -442.78443     -121.78639      975.5257     
  26078000   258.96533     -404.02232     -317.29145     -404.02232      0              1631.367       31.164         21.490526      33.715339      22580.2        3411.641       2307.7842     -825.32417      473.38373     -754.1471      -298.91856    
  26080000   267.1257      -409.33237     -319.86849     -409.33237      0              4323.2104      31.164         21.490526      33.725568      22587.05       3366.0854      5825.0761      3778.4697     -409.76162     -730.09573     -221.27422    
  26082000   256.74133     -409.2473      -323.26128     -409.2473       0              3996.6063      31.164         21.490526      33.793941      22632.841      4383.4121      2951.6717      4654.7352     -908.66947     -204.4279       1216.3817    
  26084000   259.54126     -405.5891      -318.66535     -405.5891       0              3013.6312      31.164         21.490526      33.695086      22566.635      3825.4452      2157.9465      3057.5018     -277.19988     -85.50372      -172.46075    
  26086000   254.67409     -406.52981     -321.23614     -406.52981      0              872.02196      31.164         21.490526      33.512103      22444.086      741.47784      1207.5183      667.06971     -445.09848      1365.6574     -1243.6013    
  26088000   260.20548     -406.26055     -319.11434     -406.26055      0              4503.5406      31.164         21.490526      33.700814      22570.472      2777.8303      5001.0805      5731.711       681.8008       1435.842       1410.2811    
  26090000   254.61317     -411.20633     -325.93306     -411.20633      0              1952.3725      31.164         21.490526      33.594773      22499.453      1032.853       1669.6592      3154.6055     -231.7802       1644.0029     -164.93955    
  26092000   260.57718     -407.35602     -320.08532     -407.35602      0              4993.3577      31.164         21.490526      33.549452      22469.1        5063.43        5178.1908      4738.4524     -261.23397      121.69259     -26.133253    
  26094000   260.56084     -409.94718     -322.68196     -409.94718      0              2332.26        31.164         21.490526      33.634721      22526.207      2702.4372      1131.2392      3163.1035      1637.0905      210.20946     -936.75333    
  26096000   256.63271     -408.4539      -322.50427     -408.4539       0              3992.3438      31.164         21.490526      33.622438      22517.981      4597.3592      4745.2879      2634.3843      1528.5813      1377.949      -431.06077    
  26098000   259.8092      -409.1828      -322.16932     -409.1828       0              2911.1632      31.164         21.490526      33.559852      22476.065      2534.7574      3603.3402      2595.3919      763.6582       629.98852     -897.73731    
  26100000   261.38677     -407.75327     -320.21144     -407.75327      0              3490.5436      31.164         21.490526      33.560169      22476.277      4178.8955      2582.747       3709.9884     -575.57206      476.70272      2043.0322    
  26102000   262.61        -410.17499     -322.22348     -410.17499      0              3271.3883      31.164         21.490526      33.390541      22362.672      4007.7427      4472.767       1333.6551     -275.91159      1991.8806     -1723.7147    
  26104000   260.86882     -410.64832     -323.27995     -410.64832      0              3036.4858      31.164         21.490526      33.389788      22362.168      5299.8429      2615.4872      1194.1273     -800.95653     -883.20478     -1072.7694    
  26106000   263.94991     -410.71793     -322.31767     -410.71793      0              2739.1144      31.164         21.490526      33.475046      22419.268      3514.8912      4410.6953      291.75672      475.24682     -1046.4665      1354.795     
  26108000   268.22751     -411.66115     -321.82826     -411.66115      0              1752.2306      31.164         21.490526      33.561167      22476.946      2098.2854      2385.6329      772.7734      -493.11751     -658.99278     -869.1737     
  26110000   261.27947     -409.95571     -322.44981     -409.95571      0              4361.9098      31.164         21.490526      33.182342      22223.235      4040.4594      5173.6985      3871.5715      176.02426     -1193.6012      1563.9245    
  26112000   258.99096     -410.26624     -323.5268      -410.26624      0              2943.2926      31.164         21.490526      33.391757      22363.487      4355.4664      3142.7586      1331.6529      1459.4743      568.48316      980.6735     
  26114000   261.94974     -410.14441     -322.41403     -410.14441      0              2497.9503      31.164         21.490526      33.486576      22426.99       3583.7809      1314.032       2596.0379      71.348715     -399.5222       990.37527    
  26116000   255.54082     -409.23304     -323.64909     -409.23304      0              5155.9743      31.164         21.490526      33.245281      22265.387      5611.2458      6003.7606      3852.9167      299.63333      1140.322      -104.67356    
  26118000   259.98669     -410.49221     -323.41928     -410.49221      0              2170.9862      31.164         21.490526      33.424157      22385.186      1541.1289      2542.5599      2429.2699     -2480.7376     -163.65617      93.810122    
  26120000   257.83652     -408.21774     -321.86493     -408.21774      0              2246.2439      31.164         21.490526      33.564106      22478.914      1999.98        3037.8924      1700.8592      205.54294      567.57796      438.69474    
  26122000   257.58138     -406.9156      -320.64824     -406.9156       0              2580.6599      31.164         21.490526      33.518908      22448.643      3153.5549      1233.8473      3354.5777      475.90672      489.66202      22.754844    
  26124000   263.6409      -409.60117     -321.30439     -409.60117      0              3973.3116      31.164         21.490526      33.471283      22416.747      3971.4565      3464.7189      4483.7593     -553.39408     -425.03981     -221.08259    
  26126000   264.6687      -409.17895     -320.53795     -409.17895      0              2419.5769      31.164         21.490526      33.614935      22512.955      2464.1465      3908.4641      886.12        -1829.7214     -443.35098      1034.7894    
  26128000   262.92852     -410.59669     -322.5385      -410.59669      0              2809.2497      31.164         21.490526      33.570134      22482.951      4047.3762      2569.8197      1810.5533     -1451.0966      300.15953      984.4804     
  26130000   260.34867     -409.75616     -322.56199     -409.75616      0              3070.007       31.164         21.490526      33.612538      22511.35       3745.8303      3016.7378      2447.4528      1143.5762      373.60278     -719.31278    
  26132000   258.42338     -408.8204      -322.27104     -408.8204       0              2471.9392      31.164         21.490526      33.562122      22477.585      1127.0813      4448.661       1840.0752     -226.11058     -294.6114      -174.44794    
  26134000   259.74822     -408.84335     -321.85029     -408.84335      0              1255.1284      31.164         21.490526      33.534648      22459.185      1355.3187      2627.587      -217.52068      26.648813     -708.05514     -235.96279    
  26136000   259.14845     -410.53794     -323.74575     -410.53794      0              2251.9582      31.164         21.490526      33.764368      22613.036      3547.3889      2532.9519      675.53364     -135.76386      1065.5489      347.26764    
  26138000   258.61831     -407.08982     -320.47517     -407.08982      0              3864.7397      31.164         21.490526      33.748339      22602.3        4530.5662      3944.0744      3119.5787     -77.676494      631.17565     -1657.6757    
  26140000   265.93457     -407.09435     -318.02939     -407.09435      0              4858.4654      31.164         21.490526      33.706979      22574.6        3814.3866      6046.3724      4714.6373      460.71274      564.76092      901.343      
  26142000   259.52827     -407.71464     -320.79524     -407.71464      0              3217.4894      31.164         21.490526      33.536725      22460.576      3783.3308      2127.1925      3741.9449     -631.41061     -1106.1377      362.7899     
  26144000   263.67162     -407.894       -319.58693     -407.894        0              2043.807       31.164         21.490526      33.440489      22396.124      4170.8677     -298.91344      2259.4668      432.92835     -1133.0373     -672.21862    
  26146000   262.88639     -408.69757     -320.65349     -408.69757      0              1616.7801      31.164         21.490526      33.556482      22473.808      1044.9472      1529.0824      2276.3107     -621.2827       93.947497     -1084.4786    
  26148000   262.77461     -409.28754     -321.2809      -409.28754      0              4182.7648      31.164         21.490526      33.541448      22463.739      4330.4484      4802.6822      3415.1636     -1200.5858      105.5484       278.97841    
  26150000   263.68278     -410.81744     -322.50664     -410.81744      0              1384.2628      31.164         21.490526      33.4775        22420.911      2460.6256      1647.6186      44.544272      1171.3018     -681.4969      -288.25641    
  26152000   255.06862     -406.40357     -320.97776     -406.40357      0              4330.8188      31.164         21.490526      33.639617      22529.486      2837.0062      5651.22        4504.2301      162.2907      -2254.0448     -1007.242     
  26154000   259.20002     -406.7273      -319.91784     -406.7273       0              3664.551       31.164         21.490526      33.558384      22475.082      4540.7737      2912.98        3539.8992     -838.37378     -759.57317     -946.78752    
  26156000   255.59389     -409.82227     -324.22054     -409.82227      0              1790.8103      31.164         21.490526      33.513537      22445.046      1438.9283      2447.092       1486.4108     -1326.6834     -547.67685      464.54903    
  26158000   251.51532     -409.20738     -324.97163     -409.20738      0              2042.4965      31.164         21.490526      33.606081      22507.026      2611.2157      1497.5641      2018.7095      1.8950989     -260.43828      118.2878     
  26160000   265.27464     -410.8468      -322.00286     -410.8468       0              5305.989       31.164         21.490526      33.488957      22428.584      5072.645       7349.8179      3495.5042     -260.30584     -121.67803     -1406.0653    
  26162000   254.99465     -407.34882     -321.94779     -407.34882      0              2492.5643      31.164         21.490526      33.405788      22372.883      4084.11        1662.9004      1730.6825      938.30556     -1279.984       287.20736    
  26164000   264.61915     -408.92986     -320.30545     -408.92986      0              3392.8608      31.164         21.490526      33.561158      22476.939      4460.4823      3830.1021      1887.9981      399.60796     -178.51731      339.12844    
  26166000   259.18686     -406.59936     -319.7943      -406.59936      0              2134.0234      31.164         21.490526      33.413057      22377.752      4379.9187      2361.7643     -339.6129       1128.0027     -184.64672      13.090514    
  26168000   259.01129     -407.60323     -320.85697     -407.60323      0              2321.6944      31.164         21.490526      33.520628      22449.795      1904.7874      3124.9125      1935.3833      1488.1647      2058.0962      477.79608    
  26170000   259.67108     -406.18795     -319.22072     -406.18795      0              3324.432       31.164         21.490526      33.502308      22437.526      2864.9355      4345.6236      2762.7368      59.743017     -314.23446      361.36427    
  26172000   259.21029     -407.62073     -320.80783     -407.62073      0              1698.362       31.164         21.490526      33.643039      22531.778      2131.0074      2662.8309      301.2477       343.21864     -1310.7184      1046.3793    
  26174000   254.53996     -408.04897     -322.80021     -408.04897      0              1930.7128      31.164         21.490526      33.727616      22588.422      2830.5426      2076.9311      884.66458     -804.18885      994.26354      845.21983    
  26176000   254.06948     -409.12927     -324.03809     -409.12927      0              2805.568       31.164         21.490526      33.658335      22542.022      2179.7877      2993.7318      3243.1846      546.30756      684.54976      1064.3711    
  26178000   259.12919     -405.68924     -318.9035      -405.68924      0              4389.3468      31.164         21.490526      33.688225      22562.04       4476.1171      4898.2222      3793.7012     -268.72033     -593.14708     -1023.6513    
  26180000   259.96903     -407.78936     -320.72234     -407.78936      0              3509.0407      31.164         21.490526      33.537726      22461.246      2595.1925      3377.562       4554.3677     -1642.4727      656.71559      478.41633    
  26182000   257.72693     -407.16706     -320.85095     -407.16706      0              3994.6431      31.164         21.490526      33.538858      22462.004      4133.2634      2838.5217      5012.1441      349.2201      -2688.7514      909.46427    
  26184000   262.32194     -406.97324     -319.1182      -406.97324      0              1210.8957      31.164         21.490526      33.476036      22419.931      3177.7742      94.832813      360.08007      980.89921     -18.621321      554.34553    
  26186000   264.92084     -406.87279     -318.14735     -406.87279      0              3318.0264      31.164         21.490526      33.586254      22493.747      1603.0338      3621.0704      4729.975      -744.21367     -1700.3792     -1475.223     
  26188000   264.90456     -408.47942     -319.75943     -408.47942      0              3767.9122      31.164         21.490526      33.374852      22352.165      3270.7247      4840.9455      3192.0664      554.84006     -484.71606      1067.9705    
  26190000   264.26798     -404.40439     -315.8976      -404.40439      0              3472.7503      31.164         21.490526      33.508822      22441.889      4948.6628      1814.8415      3654.7466     -836.95421      855.43147     -262.08981    
  26192000   260.58911     -406.41107     -319.13638     -406.41107      0              3463.8412      31.164         21.490526      33.611253      22510.49       2648.3062      3211.6846      4531.5328      591.19894      936.1777      -538.83469    
  26194000   264.95228     -409.02661     -320.29064     -409.02661      0              3728.5665      31.164         21.490526      33.502692      22437.783      3056.7745      3252.2063      4876.7188     -659.09692      841.14929     -803.85112    
  26196000   265.39605     -407.16387     -318.27927     -407.16387      0              3325.8946      31.164         21.490526      33.515873      22446.611      4869.5674      3033.7707      2074.3458     -351.66171     -2229.0099     -1165.8226    
  26198000   257.98594     -404.75557     -318.35271     -404.75557      0              3093.2066      31.164         21.490526      33.718707      22582.455      2082.2997      2763.7259      4433.5942      666.15782      436.93611     -2359.2649    
  26200000   263.86199     -408.39304     -320.02222     -408.39304      0              2126.1631      31.164         21.490526      33.765137      22613.551      1708.1827      1923.4266      2746.88        1390.6152      1924.5385      1480.8246    
  26202000   262.78307     -406.73827     -318.7288      -406.67721      0              1618.4437      31.164         21.490526      33.805131      22640.336      2377.1999      1171.26        1306.8711     -1091.4646      658.01163      1338.328     
  26204000   258.76718     -408.17326     -321.50876     -408.14728      0              2058.4887      31.164         21.490526      33.699313      22569.467      2641.1622      802.71809      2731.5858     -1045.2591     -88.9628       -541.16596    
  26206000   257.56512     -409.62329     -323.36137     -409.64749      0              2777.8997      31.164         21.490526      33.774294      22619.683      2580.61        2700.2756      3052.8136     -131.67493      545.85334      605.01733    
  26208000   262.48386     -408.56219     -320.65293     -408.60779      0              3915.9959      31.164         21.490526      33.728816      22589.226      1576.6837      7227.6977      2943.6064     -339.4439       836.66013     -461.70524    
  26210000   263.09162     -408.51229     -320.39947     -408.49721      0              1883.3659      31.164         21.490526      33.776528      22621.179      417.4104       2398.5334      2834.1539      975.39282     -891.9499       197.64634    
  26212000   259.44124     -410.18806     -323.29781     -410.15491      0              3250.7671      31.164         21.490526      33.703201      22572.07       2559.3527      3108.4218      4084.5267     -301.03564      1946.9836     -1040.1559    
  26214000   263.81103     -408.95363     -320.59987     -409.00672      0              2897.221       31.164         21.490526      33.605449      22506.603      3138.267       2728.3572      2825.0388      2178.646       177.57096     -760.65225    
  26216000   250.40704     -407.52342     -323.65884     -407.47443      0              3817.0376      31.164         21.490526      33.362435      22343.849      4920.6964      3350.4389      3179.9774     -1653.8502      1361.675       1247.1446    
  26218000   260.39252     -407.83658     -320.62773     -407.7987       0              2210.6359      31.164         21.490526      33.795012      22633.558      2292.9232      1997.5043      2341.4802      731.99503      530.18296     -809.83648    
  26220000   261.24832     -411.65571     -324.16024     -411.60304      0              1542.4916      31.164         21.490526      33.692776      22565.088      1578.3914      117.3047       2931.7787      674.83197      496.9008      -134.78439    
  26222000   253.82086     -411.21735     -326.20943     -411.16805      0              1679.6907      31.164         21.490526      33.628402      22521.975      1733.9648      3343.0315     -37.924151     -325.63744      46.906551     -1216.4308    
  26224000   262.03224     -408.04491     -320.28689     -408.03899      0              1367.2795      31.164         21.490526      33.647614      22534.842      1295.4176      1298.5427      1507.8782      380.49449     -711.73854      867.91952    
  26226000   257.70387     -410.22605     -323.91766     -410.18513      0              4897.2569      31.164         21.490526      33.669336      22549.39       4682.2077      3430.8856      6578.6774     -1920.8314      442.35058     -867.6851     
  26228000   265.63886     -407.53952     -318.5736      -407.52531      0              2159.1103      31.164         21.490526      33.664081      22545.87       1900.1881      1947.7218      2629.421       467.08189      1010.0295     -814.06942    
  26230000   260.8336      -408.98319     -321.62661     -408.95881      0              3001.9764      31.164         21.490526      33.4685        22414.883      3214.5541      2228.8114      3562.5636      392.3222       148.29079      54.668402    
  26232000   264.24307     -411.19154     -322.69309     -411.15446      0              3356.0686      31.164         21.490526      33.404947      22372.32       4122.1793      2907.6283      3038.3982     -1546.2199      88.118656      143.01063    
  26234000   261.33679     -408.51418     -320.98909     -408.47712      0              5317.7626      31.164         21.490526      33.456526      22406.864      5243.0785      6370.0713      4340.138      -1116.9925     -735.46435      892.62813    
  26236000   257.2903      -409.58842     -323.41855     -409.58728      0              4753.3799      31.164         21.490526      33.427281      22387.278      3608.4569      2767.3449      7884.338      -1492.1476      544.17673     -239.34454    
  26238000   260.66544     -407.9776      -320.67735     -407.9884       0              5880.7479      31.164         21.490526      33.39847       22367.982      8618.9051      5643.7396      3379.599       1499.9166     -1632.5523     -1340.8556    
  26240000   255.72655     -407.5475      -321.90135     -407.54787      0              3957.6025      31.164         21.490526      33.481137      22423.347      5029.7308      1913.4382      4929.6386     -599.92437     -1732.4572      725.37698    
  26242000   264.52586     -406.59402     -318.00086     -406.58929      0              1737.571       31.164         21.490526      33.670401      22550.103      1836.3127      2204.4392      1171.9609      1485.3957     -152.49919      700.48118    
  26244000   258.46357     -409.16173     -322.59891     -409.11081      0              2738.7623      31.164         21.490526      33.363044      22344.256      1295.5952      4006.1436      2914.5479      723.46953     -514.44979      975.30621    
  26246000   261.39758     -408.19529     -320.64983     -408.16437      0              3024.5268      31.164         21.490526      33.267481      22280.255      3312.5385      1207.8357      4553.2064     -2367.0414     -700.16419     -342.37536    
  26248000   256.66684     -409.47143     -323.51036     -409.43024      0              3627.9034      31.164         21.490526      33.448937      22401.781      2404.1973      6246.7797      2232.7332     -96.637973     -680.12849     -319.85848    
  26250000   268.15532     -409.18767     -319.37896     -409.16514      0              4238.4502      31.164         21.490526      33.569508      22482.532      4627.2159      3316.6684      4771.4661      2476.1915     -853.2137       1561.2848    
  26252000   257.24835     -411.32458     -325.16875     -411.2893       0              1046.2716      31.164         21.490526      33.598059      22501.653      887.86189      656.05811      1594.8948      228.79928      1536.2153     -895.69985    
  26254000   264.431       -409.87467     -321.31328     -409.8473       0              4260.9435      31.164         21.490526      33.578671      22488.669      4372.1399      2985.034       5425.6566     -1602.227      -926.29683     -463.09844    
  26256000   266.12647     -408.62788     -319.49865     -408.64705      0              3272.2844      31.164         21.490526      33.618632      22515.432      3247.5919      4117.1965      2452.0648     -1592.3175     -69.311195      647.43102    
  26258000   249.74875     -407.86413     -324.22002     -407.84666      0              3237.9424      31.164         21.490526      33.721494      22584.321      3805.5213      2008.9417      3899.3642     -795.49074     -2287.7218     -383.45944    
  26260000   254.84669     -411.80286     -326.45138     -411.79013      0              3443.864       31.164         21.490526      33.59921       22502.424      2656.5197      5739.5207      1935.5515      560.39653     -304.79266     -1165.0905    
  26262000   265.0655      -409.95343     -321.17953     -409.99469      0              3177.8456      31.164         21.490526      33.698989      22569.249      2534.4305      3387.0011      3612.1052     -709.12319     -159.86487      1769.5402    
  26264000   258.09331     -408.31087     -321.87206     -408.30083      0              4292.265       31.164         21.490526      33.55688       22474.074      5730.5105      2644.9136      4501.3708      135.09818     -377.25197     -648.69069    
  26266000   254.29226     -410.42738     -325.26159     -410.3925       0              3529.9125      31.164         21.490526      33.493658      22431.733      3486.1162      3340.0071      3763.6141      1238.6378      359.18061      563.02022    
  26268000   258.80688     -408.81778     -322.13999     -408.81543      0              2197.3218      31.164         21.490526      33.488472      22428.26       742.88377      3971.3971      1877.6845     -301.47362     -647.1367      -1713.9035    
  26270000   264.25044     -410.9468      -322.44589     -410.95321      0              2812.6207      31.164         21.490526      33.737343      22594.936      2715.9382      3009.8362      2712.0877     -1110.3539      1247.2274     -1364.7438    
  26272000   267.73642     -408.91149     -319.24308     -408.89421      0              3421.1597      31.164         21.490526      33.510827      22443.231      1775.8719      5063.8185      3423.7887      818.36881      1148.6314     -1925.4106    
  26274000   261.81376     -406.38087     -318.69603     -406.35292      0              4319.8371      31.164         21.490526      33.519416      22448.984      2831.9735      4652.1429      5475.3949      197.80511      1806.1538      626.99009    
  26276000   258.56135     -406.96121     -320.36564     -406.98297      0              2492.5906      31.164         21.490526      33.726707      22587.813      3992.7801      2525.799       959.19257     -515.50617     -879.9718       143.67332    
  26278000   263.37664     -409.35787     -321.1496      -409.34746      0              2551.9633      31.164         21.490526      33.577953      22488.188      1112.7437      3186.5124      3356.6338      1181.6092      477.5118       1048.1245    
  26280000   266.07462     -407.77351     -318.66165     -407.68767      0              4799.2477      31.164         21.490526      33.430923      22389.717      4465.4973      5451.9182      4480.3277     -7.7740925      315.2848       636.61603    
  26282000   270.84451     -411.00126     -320.2919      -410.98459      0              2143.5994      31.164         21.490526      33.529466      22455.714      2620.4044      977.46735      2832.9264      16.153712      233.43802      1141.1774    
  26284000   271.79959     -409.70683     -318.67761     -409.70803      0              2671.8662      31.164         21.490526      33.71271       22578.438      2194.6284      3440.1741      2380.7961      450.07378      548.46917      1381.2725    
  26286000   261.01398     -411.91714     -324.50016     -411.86802      0              1353.7508      31.164         21.490526      33.686495      22560.882      1749.8899      1200.1436      1111.219      -1494.9822      44.592582      612.24319    
  26288000   260.26223     -415.03982     -327.8746      -414.40604      0              2258.3356      31.164         21.490526      33.501721      22437.133      777.9776       2737.0776      3259.9518      529.49323      1399.2724     -46.282971    
  26290000   262.66818     -409.74914     -321.77814     -409.12159      0              3277.8512      31.164         21.490526      33.451442      22403.46       3315.6007      3332.8711      3185.0819     -727.12929      1498.1705      244.48116    
  26292000   264.4496      -411.14557     -322.57795     -410.54721      0              4267.2605      31.164         21.490526      33.501948      22437.285      4705.8937      3885.5201      4210.3678      1396.8241      797.07116      789.76752    
  26294000   260.84569     -410.50575     -323.14513     -409.91633      0              2158.2022      31.164         21.490526      33.324802      22318.645      2176.8443      1904.6244      2393.1379     -79.627056      179.58024     -782.53678    
  26296000   255.93559     -409.44891     -323.73275     -408.82151      0              1564.8829      31.164         21.490526      33.354469      22338.513      873.32344      2737.4538      1083.8713     -910.66616     -1547.3827      303.11891    
  26298000   253.58675     -411.00042     -326.07091     -410.36813      0              4589.5262      31.164         21.490526      33.421402      22383.341      2775.8359      5627.3494      5365.3932      2511.0751     -1819.0985      1355.8945    
  26300000   265.6599      -411.14226     -322.16929     -410.53987      0              4681.1186      31.164         21.490526      33.488465      22428.255      3580.7869      4938.9953      5523.5736      1392.1328     -750.45469     -183.65875    
  26302000   255.70659     -408.17079     -322.53132     -407.57619      0              3286.456       31.164         21.490526      33.275315      22285.502      794.91774      4004.1165      5060.3337     -19.4558        1121.6418      570.1193     
  26304000   257.90311     -410.57327     -324.19816     -409.95663      0              4016.014       31.164         21.490526      33.621436      22517.309      2385.9416      6307.7096      3354.3906      440.68298     -12.329273      80.241431    
  26306000   264.17672     -411.17921     -322.70299     -410.60753      0              4162.9314      31.164         21.490526      33.717482      22581.635      4237.4763      5201.8114      3049.5065     -1741.2185     -1646.046      -793.91015    
  26308000   261.05529     -411.44895     -324.01813     -410.90899      0              2320.8181      31.164         21.490526      33.584999      22492.907      1124.2705      3205.4846      2632.6993     -566.07543     -421.93297     -319.16782    
  26310000   265.13928     -411.06049     -322.26188     -410.54054      0              472.57143      31.164         21.490526      33.603069      22505.009      1408.177       1654.775      -1645.2377      869.8139      -423.66676     -938.63013    
  26312000   262.8527      -412.46918     -324.43639     -411.89583      0              2588.3746      31.164         21.490526      33.581558      22490.602     -284.48072      5181.5267      2868.0777      173.58529     -1205.2015     -911.77576    
  26314000   261.03062     -409.97319     -322.55064     -409.43491      0              4534.4057      31.164         21.490526      33.415205      22379.19       4354.5647      3554.4815      5694.171      -505.45502     -1802.6016     -548.38182    
  26316000   261.30857     -410.80299     -323.28734     -410.26179      0              2838.9712      31.164         21.490526      33.514785      22445.882      2474.8208      4093.9698      1948.123       1053.8765      201.1508      -332.64555    
  26318000   259.43476     -412.56831     -325.68023     -411.9909       0              4742.8818      31.164         21.490526      33.49648       22433.623      5743.4515      3472.1562      5013.0379     -2040.0491     -1200.9011     -2139.2525    
  26320000   262.94895     -413.72794     -325.66291     -413.16018      0              2690.8579      31.164         21.490526      33.308125      22307.475      2620.0632      2518.8724      2933.6382     -47.064837     -1785.0307     -1051.8816    
  26322000   262.24054     -413.74048     -325.91271     -413.23717      0              6019.8321      31.164         21.490526      33.172685      22216.768      4649.3805      6773.3687      6636.747       780.97868     -1582.5555     -794.98205    
  26324000   263.31541     -415.50669     -327.31893     -414.89553      0              3085.6078      31.164         21.490526      33.43594       22393.078      3274.366       2528.0857      3454.3716     -16.696959     -1259.4185     -1020.6178    
  26326000   258.76147     -412.65627     -325.99368     -412.06126      0              3805.3609      31.164         21.490526      33.515671      22446.476      3760.6087      4523.4303      3132.0437     -969.49886     -129.17459     -1709.5066    
  26328000   258.57728     -412.13869     -325.53779     -411.53983      0              2502.4884      31.164         21.490526      33.364271      22345.078      1377.4656      4203.4904      1926.509       1540.9797     -5.9584857     -1768.0316    
  26330000   261.61485     -409.14173     -321.5235      -408.58699      0              4342.3369      31.164         21.490526      33.345008      22332.177      5631.7847      3602.0309      3793.1951      273.48147     -1057.83       -1344.3111    
  26332000   268.36894     -412.01439     -322.13414     -411.44951      0              4950.169       31.164         21.490526      33.346938      22333.47       5622.2603      5399.8769      3828.3699     -180.29356      862.75325     -628.80374    
  26334000   259.29235     -410.19755     -323.35716     -409.58161      0              2246.7528      31.164         21.490526      33.47816       22421.353      2019.483       3738.9696      981.80571      1073.5655      1383.3218      202.39831    
  26336000   265.08403     -411.47989     -322.6998      -410.93183      0              3825.3292      31.164         21.490526      33.415349      22379.287      4481.852       3111.3377      3882.7978      485.27837     -1232.1514     -757.72574    
  26338000   254.82446     -412.83321     -327.48918     -412.25639      0              2833.414       31.164         21.490526      33.562349      22477.737      3753.095       1144.8556      3602.2913      582.36787      448.42002     -1161.0192    
  26340000   265.20642     -411.72614     -322.90506     -411.10975      0              2822.45        31.164         21.490526      33.63562       22526.809      3553.6962      3262.4828      1651.171      -653.97604      605.8991      -594.78125    
  26342000   260.64567     -410.98292     -323.68929     -410.37962      0              1223.5904      31.164         21.490526      33.509286      22442.199      1446.5092      1039.6214      1184.6405      655.26896      361.4115       1931.8833    
  26344000   256.61678     -413.53548     -327.59117     -413.00458      0              4953.338       31.164         21.490526      33.612457      22511.296      5802.5829      5153.5543      3903.8769      563.90762     -658.86246     -107.96192    
  26346000   255.38111     -411.43033     -325.89986     -410.79424      0              2384.2789      31.164         21.490526      33.588824      22495.468      3139.4755      2440.443       1572.9183      1705.1402     -203.59398     -1992.557     
  26348000   253.34654     -412.22949     -327.38043     -411.72753      0              2397.003       31.164         21.490526      33.500629      22436.402      2738.8727      2232.343       2219.7932     -1204.4308      435.39778     -786.16565    
  26350000   264.70024     -412.34956     -323.698       -411.7352       0              2604.2326      31.164         21.490526      33.528716      22455.212      2266.4105      3406.1326      2140.1546      1290.4125      319.95517      185.82331    
  26352000   262.89037     -410.75325     -322.70784     -410.20901      0              4045.8269      31.164         21.490526      33.517526      22447.718      4799.8416      3668.4889      3669.1503      77.699        -1239.7425     -1378.4887    
  26354000   260.9775      -409.88219     -322.47742     -409.29614      0              2157.4079      31.164         21.490526      33.641904      22531.018      1159.1445      3847.7041      1465.3752      27.844496      1221.3923      476.82653    
  26356000   257.90358     -409.82558     -323.45031     -409.19062      0              2726.0326      31.164         21.490526      33.650055      22536.476      2589.5722      3360.855       2227.6706     -96.819799      1858.7994     -360.27151    
  26358000   256.7577      -410.69222     -324.70072     -410.16176      0              3235.7666      31.164         21.490526      33.311338      22309.628      1718.2783      2936.9546      5052.0669      25.887719      2095.2903     -532.98431    
  26360000   263.52292     -410.93918     -322.68191     -410.33804      0              1504.4557      31.164         21.490526      33.340889      22329.419      1447.3666      1674.4439      1391.5566     -1982.1765      1502.4863     -2258.753     
  26362000   259.28382     -410.78984     -323.95231     -410.19378      0              2274.4654      31.164         21.490526      33.403022      22371.031      2251.3676      3553.8609      1018.1676      1572.5386     -975.02347      142.29969    
  26364000   260.62618     -408.31359     -321.02649     -407.71243      0              2469.4679      31.164         21.490526      33.436887      22393.712      1664.786       1532.2557      4211.3621      837.66123      114.25755     -1072.1069    
  26366000   263.43434     -409.76718     -321.53958     -409.1648       0              4355.8348      31.164         21.490526      33.318529      22314.444      4635.7552      4156.6568      4275.0925      669.63725     -319.80801     -194.11596    
  26368000   259.0205      -411.07448     -324.32514     -410.51782      0              2978.0081      31.164         21.490526      33.377646      22354.036      2167.2662      3540.1529      3226.6051      75.725839     -210.08399      9.1838869    
  26370000   266.91503     -411.84115     -322.44783     -411.20282      0              3167.1615      31.164         21.490526      33.373681      22351.381      3563.032       3064.0034      2874.4492      742.66684      88.978334     -536.00823    
  26372000   261.35672     -411.80078     -324.26901     -411.20863      0              1135.4641      31.164         21.490526      33.547285      22467.648     -641.31189      2501.9558      1545.7483     -956.94881      758.73326     -202.94672    
  26374000   257.42403     -411.13075     -324.91609     -410.63632      0              1770.5758      31.164         21.490526      33.593471      22498.581      1815.1899      1440.5144      2056.0229      1145.7013     -717.24452      570.40236    
  26376000   263.39059     -410.52279     -322.30985     -410.00343      0              4157.6113      31.164         21.490526      33.502419      22437.6        5022.9899      2042.4239      5407.4201     -887.16034      414.42906      607.42066    
  26378000   258.15451     -411.7741      -325.31479     -411.19521      0              5689.0057      31.164         21.490526      33.367151      22347.007      4688.5286      5835.051       6543.4375      279.00113     -113.28484      182.29333    
  26380000   258.87002     -415.67109     -328.97214     -415.15688      0              2014.3793      31.164         21.490526      33.309006      22308.066      515.25944      114.28229      5413.5961      694.36028     -78.37793       767.7046     
  26382000   262.57011     -411.87634     -323.93819     -411.35171      0              2709.4102      31.164         21.490526      33.381285      22356.473      3399.9442      3395.539       1332.7474     -2059.6101     -2333.6101     -1185.6659    
  26384000   258.20598     -413.09563     -326.61908     -412.53551      0              2672.2143      31.164         21.490526      33.59121       22497.066      2780.5728      4936.9569      299.11314      803.28933     -22.838121      1255.4117    
  26386000   259.75776     -411.19002     -324.19376     -410.56601      0              4252.924       31.164         21.490526      33.496719      22433.783      4084.5092      4304.0217      4370.2412      2336.8078     -677.41635     -702.26768    
  26388000   254.4237      -412.8679      -327.65808     -412.22869      0              3198.9392      31.164         21.490526      33.432748      22390.939      2772.9122      3394.2781      3429.6274      394.95858     -438.15978      353.6096     
  26390000   250.75734     -413.56484     -329.58294     -412.93182      0              5182.1177      31.164         21.490526      33.351227      22336.342      6895.5952      3781.4744      4869.2836     -1400.3943     -504.2202       205.96144    
  26392000   260.04279     -413.95901     -326.86729     -413.33514      0              3585.5156      31.164         21.490526      33.304139      22304.806      3254.2053      3952.5946      3549.747       1038.736      -986.84129      558.13302    
  26394000   259.83134     -412.7399      -325.719       -412.11862      0              1775.9218      31.164         21.490526      33.417339      22380.62       3143.2768      3010.1325     -825.64386      1805.7046      77.547866      183.00945    
  26396000   252.7091      -411.86458     -327.22901     -411.25297      0              2166.8236      31.164         21.490526      33.511448      22443.647      3500.9228      753.6478       2245.9003      727.43306     -383.68956     -887.3269     
  26398000   255.36446     -410.50272     -324.97784     -409.9044       0              2674.254       31.164         21.490526      33.429883      22389.021      2055.3148      2025.0876      3942.3595     -775.30196      2095.9698     -401.91874    
  26400000   257.70811     -414.23992     -327.93011     -413.63797      0              2324.7891      31.164         21.490526      33.509151      22442.109      1920.3411      1811.1758      3242.8504     -20.41877      -283.94953      267.74181    
  26402000   259.48111     -412.82352     -325.91991     -412.24674      0              2233.1539      31.164         21.490526      33.438676      22394.91       880.60262      3650.6693      2168.1897     -176.63765      910.99935      507.05957    
  26404000   249.23176     -411.69414     -328.22318     -411.09133      0              2915.4277      31.164         21.490526      33.364299      22345.097      2465.6099      2671.3926      3609.2805     -36.331782     -1575.1778     -8.9113958    
  26406000   256.50316     -409.26885     -323.3626      -408.67261      0              2551.4356      31.164         21.490526      33.452028      22403.852      565.1571       4144.3076      2944.842       1416.7091      918.49501     -1102.3078    
  26408000   257.02866     -409.48131     -323.39906     -408.87684      0              1188.7245      31.164         21.490526      33.500574      22436.365      1485.1522      942.38515      1138.6363      1544.6324     -1718.7589      132.77233    
  26410000   257.88094     -410.43638     -324.0687      -409.85228      0              867.67804      31.164         21.490526      33.365559      22345.941      430.50327      405.73093      1766.7999      1271.7795     -547.01029      1605.1305    
  26412000   259.30484     -412.12736     -325.28279     -411.56351      0              2209.0157      31.164         21.490526      33.350774      22336.039      3509.1098      1169.6429      1948.2943      505.34963      484.26815      144.17861    
  26414000   255.00544     -411.50588     -326.10123     -410.87711      0              2561.9824      31.164         21.490526      33.247565      22266.917      4097.8474      741.82312      2846.2766     -64.412881     -1177.692       507.41946    
  26416000   258.98347     -411.27637     -324.53943     -410.65192      0              3203.9817      31.164         21.490526      33.410801      22376.241      2845.5547      2174.4457      4591.9448      273.00767     -326.08936     -220.71697    
  26418000   258.28974     -411.6353      -325.1307      -411.04257      0              1624.5729      31.164         21.490526      33.402471      22370.662      1110.7958      1949.2005      1813.7223     -695.98375     -269.04138      162.47193    
  26420000   256.04424     -411.07701     -325.32446     -410.47468      0              2306.7903      31.164         21.490526      33.443117      22397.884      1325.6149      2873.6125      2721.1433      201.48087      86.73551       2819.356     
  26422000   253.03014     -407.98094     -323.23785     -407.38209      0              1663.509       31.164         21.490526      33.365365      22345.811      629.60789      1913.4148      2447.5042      702.42162      650.16018     -2122.6709    
  26424000   259.83906     -414.78517     -327.76168     -414.16782      0              6498.3096      31.164         21.490526      33.287637      22293.754      6009.4072      5186.1269      8299.3947     -651.13874     -1355.3044     -38.737323    
  26426000   262.49106     -412.40808     -324.4964      -411.88942      0              2496.0656      31.164         21.490526      33.329765      22321.968      1908.2578      3401.5889      2178.3499     -552.13518     -344.77352     -985.04593    
  26428000   254.7292      -408.96599     -323.65386     -408.39346      0              2704.1251      31.164         21.490526      33.370998      22349.584      2601.2998      3763.853       1747.2225      688.92844      2589.9135     -686.06125    
  26430000   259.24454     -411.3722      -324.54782     -410.80306      0              2600.5186      31.164         21.490526      33.366045      22346.266      2965.0424      4361.3738      475.13971      529.31117      753.37039     -832.84269    
  26432000   261.17668     -410.81346     -323.34199     -410.2291       0              5201.5542      31.164         21.490526      33.472411      22417.503      4789.1128      6368.5868      4446.963       469.99648      260.61593     -1680.5024    
  26434000   259.10839     -411.4215      -324.64272     -410.82369      0              3371.0239      31.164         21.490526      33.336582      22326.534      2400.1877      4039.6646      3673.2194     -570.9148       1011.7129     -754.00521    
  26436000   261.18733     -414.53203     -327.05698     -413.93897      0              4100.0536      31.164         21.490526      33.234806      22258.371      3739.7358      7094.3799      1466.0452     -39.027296      214.54271      469.6862     
  26438000   256.74483     -412.07437     -326.08718     -411.48448      0              1403.2664      31.164         21.490526      33.088982      22160.709      1858.336       1543.4119      808.05149     -796.14039     -65.186921     -335.17407    
  26440000   258.15159     -412.29679     -325.83846     -411.70431      0              1858.3688      31.164         21.490526      33.254355      22271.465      1090.3462      235.81051      4248.9497      1475.4692      860.88677      730.93099    
  26442000   261.88725     -413.50748     -325.79803     -412.93653      0              2692.2555      31.164         21.490526      33.259239      22274.735      3562.615       1519.4393      2994.7122     -2230.4621      868.74033     -1638.1179    
  26444000   257.84842     -411.87135     -325.51456     -411.30154      0              3789.1992      31.164         21.490526      33.486932      22427.228      4796.1785      2185.5386      4385.8806     -914.82469      236.58185      26.434436    
  26446000   261.1386      -410.89019     -323.43146     -410.31384      0              2858.6957      31.164         21.490526      33.333484      22324.459      4538.0872      1335.2626      2702.7374      915.90219     -331.38646      289.31662    
  26448000   259.12229     -412.81627     -326.03283     -412.25332      0              4665.0468      31.164         21.490526      33.253948      22271.192      4978.6056      5666.4487      3350.0859     -46.217689     -1102.4022      1182.1619    
  26450000   263.93406     -412.05496     -323.66        -411.46436      0              4032.2362      31.164         21.490526      33.136044      22192.228      4498.373       4295.9483      3302.3874     -741.68453     -1161.3693     -4.2480519    
  26452000   258.67627     -411.48119     -324.84713     -410.90137      0              3702.0714      31.164         21.490526      33.281108      22289.381      3565.0028      6059.0877      1482.1239     -14.596281      509.29086     -1787.8704    
  26454000   266.27279     -410.181       -321.00277     -409.62096      0              2125.6178      31.164         21.490526      33.356106      22339.61       1123.5483      2905.8525      2347.4527      1065.3568      58.324987     -899.31388    
  26456000   260.30253     -411.10792     -323.92921     -410.55617      0              1810.1075      31.164         21.490526      33.550214      22469.61       2795.4687      714.7274       1920.1266     -559.69335      1287.374       199.88074    
  26458000   257.81281     -412.7876      -326.44273     -412.22975      0              2916.8047      31.164         21.490526      33.479641      22422.345      1121.9208      3070.6426      4557.8506     -258.6835       305.87836      1112.359     
  26460000   263.24877     -411.76964     -323.6042      -411.2209       0              1693.6301      31.164         21.490526      33.371641      22350.014      3571.895      -659.20761      2168.203       819.04766     -1175.7096      115.28976    
  26462000   257.1327      -409.16514     -323.04805     -408.62437      0              3349.1514      31.164         21.490526      33.608879      22508.899      2507.0978      3224.079       4316.2774      522.17834      86.962547     -612.48696    
  26464000   258.8018      -408.33577     -321.65968     -407.76486      0              5135.0105      31.164         21.490526      33.431182      22389.891      5963.0328      4859.6292      4582.3695     -1636.7051     -1318.5894      103.83591    
  26466000   258.3784      -410.77606     -324.24177     -410.23715      0              5680.8419      31.164         21.490526      33.328635      22321.212      5846.2275      5107.2493      6089.049       229.14757     -2125.2095      1142.2046    
  26468000   258.75413     -409.18952     -322.52939     -408.63748      0              2892.8659      31.164         21.490526      33.26819       22280.73       4935.7835      2611.5017      1131.3125     -323.42281     -639.08762     -708.7502     
  26470000   260.30492     -410.85213     -323.67262     -410.302        0              5335.2612      31.164         21.490526      33.483093      22424.657      7505.2452      4365.4574      4135.0808      250.1379      -474.73135     -261.2639     
  26472000   263.64455     -410.79384     -322.49585     -410.25286      0              3209.9694      31.164         21.490526      33.385277      22359.147      3477.5035      1859.0408      4293.3639     -444.38118     -577.1256       1357.0799    
  26474000   256.51061     -411.00914     -325.10039     -410.44703      0              5087.7237      31.164         21.490526      33.173471      22217.294      3361.7572      6060.8201      5840.594       159.6308       138.5727       44.199249    
  26476000   264.7301      -411.76626     -323.1047      -411.21135      0              4108.2159      31.164         21.490526      33.253222      22270.705      4879.7032      3700.7157      3744.2287     -1010.3774     -620.12264     -206.4275     
  26478000   256.2065      -408.8408      -323.0339      -408.29418      0              2352.4078      31.164         21.490526      33.353157      22337.635      3217.2889      1311.7228      2528.2118      418.04973     -139.03767     -1205.3169    
  26480000   257.83436     -411.95521     -325.60312     -411.41663      0              5206.145       31.164         21.490526      33.258813      22274.45       5994.0662      4937.0237      4687.3451     -437.47801      722.38987     -1688.1802    
  26482000   254.83543     -413.22601     -327.8783      -412.69347      0              2947.457       31.164         21.490526      33.52723       22454.217      4682.4551      1459.2274      2700.6884      471.48165      204.14921     -869.44585    
  26484000   260.3884      -410.87497     -323.6675      -410.33956      0              4339.1742      31.164         21.490526      33.388525      22361.322      5520.9365      4668.332       2828.254      -569.72653     -1779.7939     -1991.2557    
  26486000   252.87994     -412.62273     -327.92994     -412.09149      0              2990.1604      31.164         21.490526      33.317233      22313.576      3563.8116      1481.5747      3925.0948     -317.63729      1139.2316      1032.0152    
  26488000   260.71307     -410.65852     -323.34232     -410.13764      0              443.95888      31.164         21.490526      33.410817      22376.251     -534.615       -1242.1947      3108.6864      1590.9656      1107.6532     -499.02302    
  26490000   265.51762     -411.35455     -322.42923     -410.83739      0              1328.5728      31.164         21.490526      33.47213       22417.315      3925.5633     -787.31264      847.4676       120.41308      1069.1089     -320.57038    
  26492000   261.55261     -412.25439     -324.65701     -411.73014      0              2666.9286      31.164         21.490526      33.291578      22296.394      4692.9589      1470.647       1837.18        371.67057     -628.4768      -1447.9501    
  26494000   261.80254     -411.35691     -323.67583     -410.862        0              2467.2664      31.164         21.490526      33.492555      22430.994      2311.2143      1090.2758      4000.3091      129.53379     -126.76295      1048.3183    
  26496000   260.20959     -412.75298     -325.60539     -412.24269      0              1565.1049      31.164         21.490526      33.503618      22438.403      1661.1352      1433.4682      1600.7112     -431.18014      148.79612     -1725.9055    
  26498000   251.42205     -410.85693     -326.65241     -410.33815      0              1979.8785      31.164         21.490526      33.436789      22393.646      1432.2086      3047.0099      1460.4171     -568.71325      1075.0368     -1279.5052    
  26500000   259.03999     -409.84358     -323.08771     -409.35511      0              2808.5638      31.164         21.490526      33.336282      22326.333      2424.2051      3159.6381      2841.8483      2246.593      -511.55134      844.88469    
  26502000   266.20051     -414.18823     -325.03421     -413.66505      0              2449.7005      31.164         21.490526      33.424125      22385.164      2573.5084      1545.7318      3229.8614     -63.922482     -791.14406      212.14989    
  26504000   253.84388     -413.07569     -328.06007     -412.52643      0              3072.0485      31.164         21.490526      33.421009      22383.077      2267.4096      2296.1431      4652.5926      1556.4792      395.4872      -667.93461    
  26506000   259.9033      -411.24213     -324.19713     -410.719        0              2249.5433      31.164         21.490526      33.411         22376.374      1541.9629      4273.1445      933.5224       262.11942     -0.8678191     -125.62016    
  26508000   267.40321     -409.43467     -319.87785     -408.93628      0              6061.4713      31.164         21.490526      33.392431      22363.938      5360.6958      7720.5113      5103.2069      802.48584      1186.952       47.57153     
  26510000   263.3552      -413.00648     -324.80539     -412.49208      0              3049.5357      31.164         21.490526      33.477158      22420.682      2359.7479      3925.0179      2863.8412     -811.48839      136.34445     -1312.0058    
  26512000   259.19002     -410.76282     -323.9567      -410.28257      0              2981.1285      31.164         21.490526      33.444376      22398.727      4147.1522      3148.5031      1647.7303      1790.1295     -1642.1608     -1017.5733    
  26514000   266.15874     -410.51259     -321.37256     -410.03298      0              3703.7121      31.164         21.490526      33.578619      22488.634      4138.0125      4607.757       2365.3669     -1059.6962      595.08607     -467.53751    
  26516000   259.52541     -412.46239     -325.54394     -411.95517      0              2517.5711      31.164         21.490526      33.333017      22324.146      1837.2807      1969.3895      3746.043       1762.0755     -973.97855      636.69633    
  26518000   254.71374     -412.53535     -327.2284      -412.0326       0              2844.3806      31.164         21.490526      33.495215      22432.776      2368.5147      2513.302       3651.325      -143.94168      318.15899     -1421.2617    
  26520000   262.25223     -411.26818     -323.43649     -410.76673      0              3696.893       31.164         21.490526      33.400477      22369.326      3846.5928      3579.5306      3664.5557      295.66523     -494.80211     -1494.6724    
  26522000   262.44551     -414.88199     -326.98557     -414.35729      0              2629.8622      31.164         21.490526      33.090101      22161.458      1929.1291      3669.9535      2290.5041     -621.29607      1070.1816      146.73735    
  26524000   259.02386     -411.41134     -324.66087     -410.91666      0              3193.8546      31.164         21.490526      33.25992       22275.191      3007.0342      3120.1852      3454.3444      28.698453     -1755.4108     -724.01315    
  26526000   256.23126     -415.08741     -329.27222     -414.54759      0              3074.7249      31.164         21.490526      33.227624      22253.562      5771.9852     -317.62035      3769.8097      50.931817      429.50487     -411.54894    
  26528000   264.85587     -414.1966      -325.49292     -413.69728      0              5676.5146      31.164         21.490526      33.102724      22169.912      4217.0509      5722.8225      7089.6703     -140.7978      -258.90097     -1191.7546    
  26530000   255.9941      -411.43174     -325.69598     -410.90489      0              3293.2015      31.164         21.490526      33.300804      22302.572      2603.2093      3685.5669      3590.8282      1362.8682     -2186.9895      1308.3688    
  26532000   267.55894     -412.47979     -322.87081     -411.95276      0              2586.7263      31.164         21.490526      33.371153      22349.687      1470.59        3048.5951      3240.9938     -55.519695      1075.9953      1074.3458    
  26534000   264.51652     -412.23195     -323.64192     -411.71416      0              3467.6283      31.164         21.490526      33.603312      22505.172      2884.2669      3443.7302      4074.888      -928.82966      833.24091      145.13399    
  26536000   253.7803      -414.08419     -329.08986     -413.57226      0              2182.9587      31.164         21.490526      33.419388      22381.992      4843.021       1398.4777      307.37735     -392.82191     -1642.3879     -1040.9302    
  26538000   260.02421     -411.09067     -324.00517     -410.59966      0              2701.8427      31.164         21.490526      33.466896      22413.81       2497.2198      3335.4643      2272.8439      1303.7511      402.82387      220.57578    
  26540000   259.26426     -413.73656     -326.90558     -413.23948      0              3545.806       31.164         21.490526      33.412788      22377.572      2998.9949      3276.2064      4362.2168     -125.78705     -1523.0832     -161.98498    
  26542000   259.94153     -414.97791     -327.9201      -414.47068      0              4629.9094      31.164         21.490526      33.417499      22380.727      5204.0413      4706.6816      3979.0052     -158.71343     -1753.452       1030.4034    
  26544000   255.05514     -412.6671      -327.2458      -412.16143      0              4425.059       31.164         21.490526      33.281963      22289.954      6438.9082      4026.0154      2810.2534     -115.3075      -1686.5471     -552.19841    
  26546000   262.2876      -414.30112     -326.45759     -413.80267      0              4027.8014      31.164         21.490526      33.354026      22338.217      4962.2454      3718.1198      3403.0391      334.20331      2132.7588     -628.39516    
  26548000   255.58115     -411.10424     -325.50678     -410.61675      0              3944.6207      31.164         21.490526      33.339096      22328.218      4680.7208      5121.2262      2031.9153      200.97998     -330.70444     -1539.3995    
  26550000   262.18537     -415.18043     -327.37113     -414.69053      0              1526.711       31.164         21.490526      33.577679      22488.004      795.45882      2256.8061      1527.868      -3.5321374     -367.98829     -1271.338     
  26552000   254.23872     -414.22008     -329.07222     -413.74017      0              2155.2822      31.164         21.490526      33.532237      22457.571      2627.8774      3144.8452      693.12411     -337.12919     -375.98457      672.66534    
  26554000   258.96326     -410.34194     -323.61177     -409.8678       0              3619.5355      31.164         21.490526      33.337365      22327.058      4221.4446      3273.6548      3363.5072     -1109.6616      1241.9777     -947.5925     
  26556000   246.34227     -410.35569     -327.85245     -409.93636      0              844.55647      31.164         21.490526      33.388955      22361.61      -155.09495      484.59327      2204.1711     -1673.4381      1115.6737     -795.18749    
  26558000   255.07443     -412.6824      -327.25464     -412.17941      0              1792.6544      31.164         21.490526      33.367278      22347.092      1442.7546      3323.8822      611.32637      807.02535      511.5818      -1810.7892    
  26560000   264.61096     -412.04438     -323.42272     -411.56552      0              3856.5715      31.164         21.490526      33.253333      22270.78       4538.2228      3863.5731      3167.9184      785.13175      960.3456      -1518.8359    
  26562000   266.04495     -414.86938     -325.76746     -414.37163      0              1169.4689      31.164         21.490526      33.289579      22295.055      691.54081      1444.844       1372.022       170.34319     -1610.1799      267.29562    
  26564000   261.18624     -416.92774     -329.45306     -416.42124      0              2051.7188      31.164         21.490526      33.19872       22234.204      1947.5849      2040.1059      2167.4658      446.34156     -495.77356      800.09623    
  26566000   262.71448     -411.47289     -323.48639     -411.00587      0              2960.3026      31.164         21.490526      33.321336      22316.323      3878.2291      2192.4172      2810.2615     -1339.2152     -1007.1741      95.06509     
  26568000   265.82614     -414.77982     -325.75119     -414.28944      0              2999.9637      31.164         21.490526      33.184739      22224.84       3834.4274      2791.5098      2373.9538      1413.459       1041.3896     -394.16063    
[...]
  28034000   257.28122     -408.3522      -322.18537     -408.36966      0              3382.6287      31.164         21.490526      33.489499      22428.947      3221.7212      4384.8522      2541.3128     -733.44257     -86.268618      1672.7052    
  28036000   259.90216     -404.61677     -317.57215     -404.62189      0              3848.2314      31.164         21.490526      33.418682      22381.519      4239.269       4498.8668      2806.5585      328.1424      -321.39872     -625.01828    
  28038000   256.62398     -406.44773     -320.50101     -406.47264      0              2984.8614      31.164         21.490526      33.389601      22362.042      4446.4543      812.23192      3695.898       1519.5413     -1339.3346      763.54333    
  28040000   262.8496      -406.02606     -317.99431     -406.0584       0              2941.2226      31.164         21.490526      33.73956       22596.421      1791.8903      4060.3262      2971.4514      1480.0817     -538.81793      289.61667    
  28042000   265.94566     -408.15027     -319.0816      -408.15127      0              1285.0589      31.164         21.490526      33.640384      22529.999     -387.48776      3134.6415      1108.0229     -320.86873      269.53466     -995.29587    
  28044000   265.10376     -405.31466     -316.52796     -405.32201      0              2177.4915      31.164         21.490526      33.666826      22547.708      3647.415       1382.2967      1502.763       1603.1867     -2799.8932      20.062433    
  28046000   262.55042     -408.93123     -320.99967     -408.93242      0              676.44425      31.164         21.490526      33.863411      22679.367      1672.1014      191.24149      165.98982      591.938       -495.81108      383.75668    
  28048000   262.43288     -407.05188     -319.15969     -407.07657      0              2548.882       31.164         21.490526      33.767197      22614.93       1659.8954      3135.0415      2851.7091      1189.139       957.9061       257.48073    
  28050000   259.51507     -406.18935     -319.27437     -406.2005       0              1931.538       31.164         21.490526      33.795273      22633.734      1354.1881      2829.0854      1611.3404     -368.16953      699.55401      254.48528    
  28052000   259.15002     -404.27693     -317.48422     -404.2983       0              5891.3593      31.164         21.490526      33.705231      22573.43       4942.0555      7875.4612      4856.5611      1037.0858      658.16379      13.025197    
  28054000   270.65977     -406.9876      -316.34012     -406.999        0              3375.2759      31.164         21.490526      33.810854      22644.168      3089.5875      3819.9834      3216.2568      1316.9837     -1383.9204      1663.9595    
  28056000   257.15234     -403.80715     -317.68348     -403.82121      0              1870.653       31.164         21.490526      33.719204      22582.788      3952.2309      919.27367      740.45458     -82.358455      1167.7809      4.1177143    
  28058000   252.53885     -408.068       -323.48945     -408.06984      0              3316.8438      31.164         21.490526      33.53879       22461.959      2988.9864      3103.6655      3857.8796     -553.10429     -62.286602     -1585.0522    
  28060000   262.20171     -407.86049     -320.04572     -407.86342      0              4110.264       31.164         21.490526      33.320531      22315.784      2886.416       3382.9705      6061.4055      1245.2606     -467.7612       541.15885    
  28062000   253.85828     -408.08763     -323.06719     -408.103        0              4090.3296      31.164         21.490526      33.474245      22418.731      1449.1392      3786.4519      7035.3977      583.67598      1039.1556      1033.0275    
  28064000   259.10961     -407.49079     -320.7116      -407.502        0              2072.2144      31.164         21.490526      33.407797      22374.229      3015.0137      1452.4499      1749.1795     -309.84273      546.31782      650.76532    
  28066000   255.54086     -408.97591     -323.39194     -408.99571      0              2349.3307      31.164         21.490526      33.381902      22356.886      2106.3366      1792.0029      3149.6527     -793.68944      454.26993      509.50477    
  28068000   259.7417      -409.51667     -322.52579     -409.51941      0              2995.8817      31.164         21.490526      33.528401      22455.001      4453.7365      2366.8592      2167.0494     -288.17392      3.574497       1087.5259    
  28070000   255.65924     -407.63564     -322.01202     -407.63809      0              3974.8796      31.164         21.490526      33.404123      22371.769      2647.9905      4630.9675      4645.6807     -308.61381      398.82128     -323.03651    
  28072000   270.8431      -408.24118     -317.53229     -408.26315      0              3777.161       31.164         21.490526      33.435374      22392.698      3485.3688      3771.521       4074.5934      1373.9189      1447.6697     -1113.8701    
  28074000   262.69658     -408.63692     -320.65642     -408.63918      0              3939.2026      31.164         21.490526      33.589551      22495.955      5044.354       1463.1797      5310.0741     -501.14833     -829.61052      187.43221    
  28076000   254.20162     -407.10652     -321.97108     -407.11429      0              4200.301       31.164         21.490526      33.636128      22527.149      5032.2764      4424.6433      3143.9833      1253.7447      567.96107      46.778436    
  28078000   261.54264     -406.83582     -319.24178     -406.84449      0              2354.1597      31.164         21.490526      33.786094      22627.586      2556.6867      1540.0251      2965.7674     -826.23079     -271.34515     -444.44813    
  28080000   261.4591      -405.35831     -317.79225     -405.38737      0              3643.7479      31.164         21.490526      33.757298      22608.3        977.53544      4415.5518      5538.1564      1232.2967     -591.08527      644.74743    
  28082000   258.60748     -409.26648     -322.65547     -409.27975      0              3143.4731      31.164         21.490526      33.643097      22531.817      3685.4045      2991.3281      2753.6867      1368.9612      1522.1234     -682.5282     
  28084000   258.37958     -409.1679      -322.63321     -409.17868      0              2397.7489      31.164         21.490526      33.460647      22409.624      2298.7275      4249.1598      645.35927      93.085863      899.07215     -787.37204    
  28086000   256.67107     -407.97011     -322.00762     -407.97638      0              5431.6759      31.164         21.490526      33.648662      22535.544      6100.3801      4636.6269      5558.0207      934.33048     -316.06527     -1656.7432    
  28088000   263.63618     -408.07086     -319.77567     -408.09991      0              5341.1128      31.164         21.490526      33.33694       22326.774      4992.7703      4671.8448      6358.7232      257.91427      1685.3403     -454.3788     
  28090000   262.19015     -408.2254      -320.4145      -408.23201      0              1824.4909      31.164         21.490526      33.533052      22458.116      593.82184      1367.9544      3511.6965     -435.91336      100.97191     -621.60915    
  28092000   265.41328     -410.63908     -321.74871     -410.64317      0              3124.5569      31.164         21.490526      33.621654      22517.455      3346.6823      2863.8693      3163.1192     -1364.1521     -42.500742     -693.25787    
  28094000   259.65847     -408.03726     -321.07426     -408.05258      0              4200.0241      31.164         21.490526      33.573026      22484.888      4602.6993      4762.7802      3234.5928     -870.81859      52.887452      655.88764    
  28096000   259.09858     -407.03124     -320.25575     -407.04809      0              4809.6324      31.164         21.490526      33.849572      22670.1        4855.1393      3813.1655      5760.5924      2108.5608      1207.8797      464.17034    
  28098000   263.32992     -409.47691     -321.28429     -409.486        0              4161.2191      31.164         21.490526      33.722152      22584.762      5260.9875      3734.6797      3487.9901      547.80061      540.54615     -262.73158    
  28100000   259.16016     -408.50116     -321.70504     -408.51856      0              2978.7715      31.164         21.490526      33.738159      22595.483      3007.4621      3684.5689      2244.2834     -102.6954       584.91166     -1340.8623    
  28102000   264.36737     -407.67477     -319.13469     -407.69509      0              2726.3429      31.164         21.490526      33.672836      22551.734      2390.9595      2557.7972      3230.272       808.6018       809.14158     -1364.0307    
  28104000   256.92277     -405.22291     -319.17613     -405.27612      0              3405.128       31.164         21.490526      33.463018      22411.212      2480.3303      4271.5111      3463.5426     -99.816117     -42.104419     -1184.1026    
  28106000   253.86518     -408.66583     -323.64308     -408.68125      0              3790.2945      31.164         21.490526      33.556452      22473.788      3513.4627      3520.6087      4336.8121     -11.613708     -493.41853      28.899942    
  28108000   260.70564     -406.4536      -319.13989     -406.48838      0              3570.6594      31.164         21.490526      33.547373      22467.707      4344.803       2256.0666      4111.1085      731.93639     -932.4417       1049.6463    
  28110000   256.47519     -407.91692     -322.02004     -407.91905      0              3754.5143      31.164         21.490526      33.603354      22505.2        2715.1189      5731.3785      2817.0457     -321.78919      63.073539      421.05236    
  28112000   267.27466     -407.80461     -318.29084     -407.80941      0              2670.723       31.164         21.490526      33.762811      22611.993      4185.2624      2168.0772      1658.8295      581.94687      911.73214     -1201.3844    
  28114000   261.94591     -408.51847     -320.78937     -408.52014      0              3433.738       31.164         21.490526      33.56751       22481.193      3456.5668      3003.0148      3841.6323     -725.62261      1129.3059     -908.04102    
  28116000   258.89667     -410.6062      -323.89834     -410.6376       0              1929.2612      31.164         21.490526      33.718095      22582.045      3052.2602      1266.8973      1468.6262      2113.6759     -1598.5158      1029.0072    
  28118000   264.00494     -408.26479     -319.8461      -408.26935      0              2163.469       31.164         21.490526      33.720984      22583.98       949.62863      3657.2137      1883.5646     -742.42773      1042.0848      1184.0354    
  28120000   258.80747     -407.7553      -321.0773      -407.76478      0              3213.9297      31.164         21.490526      33.686815      22561.096      2189.2577      3966.432       3486.0993     -60.258593      389.60408      0.58528284   
  28122000   259.03414     -409.93664     -323.18273     -409.93796      0              4331.2557      31.164         21.490526      33.580769      22490.073      4921.0109      5353.4542      2719.3021     -1399.6276     -854.23174      1081.3154    
  28124000   250.77024     -410.79462     -326.8084      -410.81139      0              2604.0155      31.164         21.490526      33.664243      22545.979      4443.0635      825.30384      2543.6791      2116.3083      203.36777      154.16609    
  28126000   257.77461     -410.33158     -323.99951     -410.346        0              2771.7563      31.164         21.490526      33.713628      22579.053      2734.388       3086.6387      2494.2423      245.45262     -537.13896      546.29535    
  28128000   258.72506     -408.91893     -322.26853     -408.94507      0              1747.1189      31.164         21.490526      33.75252       22605.101      1523.7389      2879.1843      838.43355      1717.3841      1134.8636      239.95419    
  28130000   258.5019      -412.20634     -325.63069     -412.20764      0              3243.3071      31.164         21.490526      33.780669      22623.953      4022.3217      3330.155       2377.4446     -175.61875      1219.9764      1466.3007    
  28132000   256.49576     -412.03568     -326.13191     -412.05878      0              1694.6398      31.164         21.490526      33.52042       22449.656      2790.8843     -34.307         2327.3421     -1574.0154      120.87776      181.0456     
  28134000   262.61699     -409.37803     -321.42418     -409.39981      0              3383.732       31.164         21.490526      33.693989      22565.9        3983.6866      3901.3603      2266.1491      316.12873     -633.34682      800.47042    
  28136000   256.72235     -410.14966     -324.17        -410.15746      0              2153.3245      31.164         21.490526      33.782065      22624.888      1890.9969      2301.5493      2267.4274     -404.07748     -2250.5886     -92.383998    
  28138000   266.84954     -409.0095      -319.63811     -409.03821      0              2124.5659      31.164         21.490526      33.658699      22542.266      2810.0951      1985.3298      1578.2729     -665.77132     -1701.936       1908.247     
  28140000   258.92597     -408.76747     -322.04979     -408.79636      0              923.07793      31.164         21.490526      33.822924      22652.253      2579.6237     -1572.4443      1762.0545     -689.15517      287.42504      976.79987    
  28142000   258.269       -407.08637     -320.58871     -407.09367      0              2274.6434      31.164         21.490526      33.655391      22540.05       2316.5367      3389.7853      1117.6082     -1194.7798     -1781.7873     -678.52278    
  28144000   259.09605     -407.77843     -321.00379     -407.83328      0              1051.2642      31.164         21.490526      33.651623      22537.527      594.6279       1524.9997      1034.1651      185.26792      811.27822      1427.0481    
  28146000   266.6345      -409.9157      -320.61633     -409.94168      0              3429.0194      31.164         21.490526      33.822638      22652.061      2363.7106      4421.0936      3502.254       976.33227     -928.5512      -94.273399    
  28148000   258.04922     -408.21581     -321.79176     -408.24381      0              978.97223      31.164         21.490526      33.613837      22512.22      -159.08166      203.80621      2892.1921      1254.1988     -672.58012      1020.5577    
  28150000   252.64381     -408.14557     -323.53186     -408.15316      0              1515.017       31.164         21.490526      33.67337       22552.092      1023.5104      1570.1264      1951.4141     -585.1356      -924.88644     -47.297029    
  28152000   258.06284     -408.10799     -321.67938     -408.14086      0              3573.2158      31.164         21.490526      33.663147      22545.245      3349.3553      3799.0264      3571.2657      817.87272      640.80845     -1404.6057    
  28154000   257.41733     -406.77952     -320.56711     -406.80309      0              1928.2745      31.164         21.490526      33.695864      22567.157      1727.7477      2325.8854      1731.1905     -1305.954      -1007.3984      1434.8827    
  28156000   262.71783     -408.6316      -320.64398     -408.66201      0              4331.911       31.164         21.490526      33.380263      22355.789      4701.0279      4191.9765      4102.7287      179.5959      -309.20816      216.21113    
  28158000   258.4719      -408.19868     -321.63307     -408.21655      0              3443.2159      31.164         21.490526      33.59662       22500.69       3136.0585      2764.4041      4429.1852      1119.197       1227.6041     -641.70049    
  28160000   256.39163     -408.32814     -322.45924     -408.33207      0              2794.7512      31.164         21.490526      33.672101      22551.242      2625.8679      2587.6186      3170.7673      918.14615     -880.6849       1602.9772    
  28162000   265.08226     -411.75844     -322.97893     -411.75911      0              3854.6534      31.164         21.490526      33.314103      22311.479      4247.6185      3461.5523      3854.7894      513.08841      600.84821     -781.95724    
  28164000   260.13122     -408.11135     -320.99001     -408.11168      0              1577.3487      31.164         21.490526      33.445167      22399.257      1137.4482      923.90822      2670.6896     -200.08671     -1190.1001      880.45923    
  28166000   257.15515     -409.64632     -323.5217      -409.65177      0              4196.6786      31.164         21.490526      33.311064      22309.444      3164.2826      3156.4034      6269.3497      1005.2155     -2698.5938      560.48337    
  28168000   255.07163     -409.00689     -323.58008     -409.02609      0              3221.899       31.164         21.490526      33.402097      22370.411      4699.1398      1701.7925      3264.7646      486.81909      328.67262     -517.16304    
  28170000   261.39229     -408.55456     -321.01087     -408.56331      0              4879.658       31.164         21.490526      33.606938      22507.6        4716.3227      4192.0156      5730.6357      1515.9004      628.95974     -1704.8081    
  28172000   259.30974     -408.65226     -321.80604     -408.67358      0              2185.779       31.164         21.490526      33.512551      22444.386      2207.4869      3415.5703      934.2799      -534.1781      -1443.1803     -1159.8943    
  28174000   264.12216     -410.41143     -321.95347     -410.4318       0              3442.0496      31.164         21.490526      33.542497      22464.442      2487.5331      3330.2607      4508.3551     -666.47973      8.9317224     -878.6293     
  28176000   263.96575     -408.74986     -320.34429     -408.76468      0              2817.4848      31.164         21.490526      33.643388      22532.011      2692.9708      2038.0449      3721.4386      983.75194      961.76237      23.756833    
  28178000   260.40217     -409.40629     -322.19421     -409.41441      0              2472.703       31.164         21.490526      33.572978      22484.856      1899.8877      3608.7219      1909.4996     -388.57735     -337.47762      663.71923    
  28180000   256.87534     -405.32134     -319.29044     -405.34838      0              3920.7044      31.164         21.490526      33.591946      22497.559      4102.5973      4138.3476      3521.1684     -102.95463     -182.82502     -244.82971    
  28182000   261.61896     -408.9521      -321.3325      -408.9845       0              2855.9139      31.164         21.490526      33.548778      22468.648      1840.2411      3325.7597      3401.7409      298.73279      1196.1369     -837.04835    
  28184000   259.90825     -408.91607     -321.86941     -408.92955      0              554.42397      31.164         21.490526      33.63443       22526.012      1325.4195     -1348.6476      1686.5         225.71646      121.03493     -647.40848    
  28186000   260.04927     -405.88066     -318.78677     -405.88982      0              3846.84        31.164         21.490526      33.407924      22374.314      4258.5407      4074.6733      3207.3059      1288.0175      271.13901     -1734.3127    
  28188000   256.68573     -405.236       -319.2686      -405.24454      0              2224.2364      31.164         21.490526      33.431898      22390.37       1919.2905      1145.5655      3607.853       2208.7585      799.1123       2105.674     
ERROR on proc 0: Cannot open restart file restart.lmp.0: Permission denied (../write_restart.cpp:233)
Last command: run             ${nsteps_enhanced_coex_upto} upto
