LAMMPS (23 Jun 2022)
include procedure.lmp
echo both
include		in.partitions
variable        pid world 0
include		in.temp
variable	temperature equal 260
variable        tempDamp equal 0.100 # this is 0.1 ps
include		in.pressure
variable        pressure equal 3039.75
variable        pressureDamp equal 1.0 #this is 1ps

variable	barostat string	   tri
variable	direction string   z
variable	direction_x_bool equal 0
variable	direction_y_bool equal 0
variable	direction_z_bool equal 1

include		in.seed
variable        seed world 745823

units           metal
atom_style	full
box tilt large
read_restart 	restart.lmp.${pid}
read_restart 	restart.lmp.0
Reading restart file ...
  restart file = 23 Jun 2022, LAMMPS = 23 Jun 2022
  restoring atom style full from restart
  triclinic box = (0 0 -0.8068399) to (31.164 21.490526 32.491344) with tilt (-9.197534 0.81545623 -11.174256)
WARNING: Triclinic box skew is large (../domain.cpp:224)
  2 by 1 by 2 MPI processor grid
Summary of lammps deepmd module ...
  >>> Info of deepmd-kit:
  installed to:       /u/sigbjobo/software/DEEPMD_FROM_SOURCE/deepmd-kit/install
  source:             v2.1.3
  source branch:       master
  source commit:      5a32c49
  source commit at:   2022-07-01 09:52:58 +0800
  surpport model ver.:1.1 
  build float prec:   double
  build with tf inc:  /u/sigbjobo/software/DEEPMD_FROM_SOURCE/tensorflow/install/include;/u/sigbjobo/software/DEEPMD_FROM_SOURCE/tensorflow/install/include
  build with tf lib:  /u/sigbjobo/software/DEEPMD_FROM_SOURCE/tensorflow/install/lib/libtensorflow_cc.so;/u/sigbjobo/software/DEEPMD_FROM_SOURCE/tensorflow/install/lib/libtensorflow_framework.so
  set tf intra_op_parallelism_threads: 0
  set tf inter_op_parallelism_threads: 0
  >>> Info of lammps module:
  use deepmd-kit at:  /u/sigbjobo/software/DEEPMD_FROM_SOURCE/deepmd-kit/install
  source:             v2.1.3
  source branch:      master
  source commit:      5a32c49
  source commit at:   2022-07-01 09:52:58 +0800
  build float prec:   double
  build with tf inc:  /u/sigbjobo/software/DEEPMD_FROM_SOURCE/tensorflow/install/include;/u/sigbjobo/software/DEEPMD_FROM_SOURCE/tensorflow/install/include
  build with tf lib:  /u/sigbjobo/software/DEEPMD_FROM_SOURCE/tensorflow/install/lib/libtensorflow_cc.so;/u/sigbjobo/software/DEEPMD_FROM_SOURCE/tensorflow/install/lib/libtensorflow_framework.so
  restoring pair style deepmd from restart
  2592 atoms
Finding 1-2 1-3 1-4 neighbors ...
  special bond factors lj:    0        0        0       
  special bond factors coul:  0        0        0       
     0 = max # of 1-2 neighbors
     0 = max # of 1-3 neighbors
     0 = max # of 1-4 neighbors
     1 = max # of special neighbors
  special bonds CPU = 0.000 seconds
  read_restart CPU = 0.025 seconds
include 	in.setup
variable	out_freq equal 2000
variable	out_freq2 equal 2000

timestep        0.0005

neigh_modify    delay 7 every 1

include         in.deepmd
# This is deepMD model

# create groups ###
#group ox type 2
#group hy type 1

mass 2 15.999
mass 1 1.008

pair_style      deepmd ../graph.pb
pair_coeff      * *

bond_style      none
angle_style     none
dihedral_style  none
improper_style  none
neigh_modify exclude none


neighbor        2.0 bin
neigh_modify    every 50 delay 0 check no

thermo          ${out_freq}
thermo          2000
thermo_style 	custom step temp pe etotal epair emol press lx ly lz vol pxx pyy pzz pxy pxz pyz

restart 	${out_freq} restart.lmp.${pid} restart2.lmp.${pid}
restart 	2000 restart.lmp.${pid} restart2.lmp.${pid}
restart 	2000 restart.lmp.0 restart2.lmp.${pid}
restart 	2000 restart.lmp.0 restart2.lmp.0


timer           timeout 23:50:00 every 1000
New timer settings: style=normal  mode=nosync  timeout=23:50:00


# Set number of time steps
variable 	nsteps_wall		equal	 6000000
variable 	nsteps_enhanced_coex    equal	150000000

variable     nsteps_enhanced_coex_upto equal (${nsteps_wall}+${nsteps_enhanced_coex})
variable     nsteps_enhanced_coex_upto equal (6000000+${nsteps_enhanced_coex})
variable     nsteps_enhanced_coex_upto equal (6000000+150000000)


# Set temperature for first step
if "$(step) < 1  " then    "velocity 	all create ${temperature} ${seed} dist gaussian"


# Always run thermo and barostat


######################################
# Run simulation with wall potential #
######################################
if " $(step) < ${nsteps_wall} " then    "fix             3 all plumed plumedfile plumed.equil.dat outfile plumed.equil.out"   "fix             1 all nph ${direction} ${pressure} ${pressure} ${pressureDamp}"   "fix             2 all temp/csvr ${temperature} ${temperature} ${tempDamp} ${seed}"   "run             ${nsteps_wall} upto"
if " $(step) == ${nsteps_wall} " then    "unfix 3"   "unfix 1"   "unfix 2"


############################
# Run enhanced coesistence #
############################
if "$(step) == ${nsteps_wall}" then    "fix             3 all plumed plumedfile plumed.start.dat outfile plumed.out" else    "fix             3 all plumed plumedfile plumed.dat outfile plumed.out"
fix             3 all plumed plumedfile plumed.dat outfile plumed.out

if "$(step) < ${nsteps_enhanced_coex_upto} && $(step) >= ${nsteps_wall} " then    "include         in.dump"    "fix             1 all nph ${direction} ${pressure} ${pressure} ${pressureDamp}"   "fix             2 all temp/csvr ${temperature} ${temperature} ${tempDamp} ${seed}"   "run             ${nsteps_enhanced_coex_upto} upto"    "unfix 3"   "unfix 1"   "unfix 2"
include         in.dump
dump            myDump all atom ${out_freq2} dump.water.${pid}
dump            myDump all atom 2000 dump.water.${pid}
dump            myDump all atom 2000 dump.water.0
dump            myDump2 all dcd ${out_freq2} dump.${pid}.dcd
dump            myDump2 all dcd 2000 dump.${pid}.dcd
dump            myDump2 all dcd 2000 dump.0.dcd
dump_modify     myDump append yes
dump_modify     myDump2 append yes

fix             1 all nph ${direction} ${pressure} ${pressure} ${pressureDamp}
fix             1 all nph z ${pressure} ${pressure} ${pressureDamp}
fix             1 all nph z 3039.75 ${pressure} ${pressureDamp}
fix             1 all nph z 3039.75 3039.75 ${pressureDamp}
fix             1 all nph z 3039.75 3039.75 1
fix             2 all temp/csvr ${temperature} ${temperature} ${tempDamp} ${seed}
fix             2 all temp/csvr 260 ${temperature} ${tempDamp} ${seed}
fix             2 all temp/csvr 260 260 ${tempDamp} ${seed}
fix             2 all temp/csvr 260 260 0.1 ${seed}
fix             2 all temp/csvr 260 260 0.1 745823
run             ${nsteps_enhanced_coex_upto} upto
run             156000000 upto

CITE-CITE-CITE-CITE-CITE-CITE-CITE-CITE-CITE-CITE-CITE-CITE-CITE

Your simulation uses code contributions which should be cited:

- USER-DEEPMD package:

@article{Wang_ComputPhysCommun_2018_v228_p178,
  author = {Wang, Han and Zhang, Linfeng and Han, Jiequn and E, Weinan},
  doi = {10.1016/j.cpc.2018.03.016},
  url = {https://doi.org/10.1016/j.cpc.2018.03.016},
  year = 2018,
  month = {jul},
  publisher = {Elsevier {BV}},
  volume = 228,
  journal = {Comput. Phys. Commun.},
  title = {{DeePMD-kit: A deep learning package for many-body potential energy representation and molecular dynamics}},
  pages = {178--184}
}

CITE-CITE-CITE-CITE-CITE-CITE-CITE-CITE-CITE-CITE-CITE-CITE-CITE

Generated 0 of 1 mixed pair_coeff terms from geometric mixing rule
Neighbor list info ...
  update every 50 steps, delay 0 steps, check no
  max neighbors/atom: 2000, page size: 100000
  master list distance cutoff = 8
  ghost atom cutoff = 8
  binsize = 4, bins = 11 9 9
  1 neighbor lists, perpetual/occasional/extra = 1 0 0
  (1) pair deepmd, perpetual
      attributes: full, newton on
      pair build: full/bin
      stencil: full/bin/3d
      bin: standard
Per MPI rank memory allocation (min/avg/max) = 7.301 | 7.302 | 7.304 Mbytes
   Step          Temp          PotEng         TotEng         E_pair         E_mol          Press            Lx             Ly             Lz           Volume          Pxx            Pyy            Pzz            Pxy            Pxz            Pyz      
 120916000   253.5682      -414.29019     -329.36689     -414.29019      0              3876.2426      31.164         21.490526      33.298184      22300.818      4437.8098      2942.9568      4247.9611     -324.03456      164.97962     -281.04586    
 120918000   265.18822     -411.86725     -323.05226     -411.76535      0              4316.4548      31.164         21.490526      33.300528      22302.388      3728.7928      4013.8585      5206.713       610.93671      1032.6357      1363.8722    
 120920000   261.64422     -413.83158     -326.20352     -413.70506      0              2862.834       31.164         21.490526      33.408402      22374.634      1787.8348      3132.1066      3668.5605     -1111.693      -403.20565     -4.1363036    
 120922000   258.91239     -412.38572     -325.67258     -412.27309      0              1359.5439      31.164         21.490526      33.331886      22323.389      2201.6091      1414.9304      462.09208     -228.2691      -1181.9867      822.15182    
 120924000   260.65964     -412.56704     -325.26873     -412.43359      0              4977.3573      31.164         21.490526      33.436971      22393.768      4948.2363      4113.5652      5870.2704     -2385.5286     -990.59294      924.70037    
 120926000   262.88849     -409.79261     -321.74783     -409.68412      0              2566.3486      31.164         21.490526      33.329363      22321.699      2892.5632      2876.7705      1929.712      -204.74047      571.15655      137.98623    
 120928000   267.10664     -412.14534     -322.68784     -412.02072      0              4394.5187      31.164         21.490526      33.048053      22133.297      3106.644       5725.7555      4351.1567     -335.27796      676.20529     -1788.3748    
 120930000   258.4311      -413.34678     -326.79483     -413.22759      0              3351.6696      31.164         21.490526      33.150731      22202.064      2760.6423      4669.5309      2624.8356      1178.6235      514.36252      398.77084    
 120932000   268.21953     -415.27108     -325.44086     -415.15326      0              4054.4498      31.164         21.490526      33.16018       22208.392      4234.9134      2413.0652      5515.3707     -179.43365      581.53453      1505.7263    
 120934000   260.4865      -415.15212     -327.91179     -414.99254      0              2891.9832      31.164         21.490526      33.441675      22396.918      2194.2166      3860.4766      2621.2564      57.668675      145.36396     -429.05722    
 120936000   253.25732     -412.64321     -327.82403     -412.50613      0              2076.1022      31.164         21.490526      33.448976      22401.808      1279.3923      3778.0345      1170.8797     -1019.2532     -1836.8069     -628.18242    
 120938000   264.19568     -413.90615     -325.42357     -413.77882      0              4102.7284      31.164         21.490526      33.395804      22366.197      4240.4275      3719.1915      4348.5661     -773.26649      1513.4493     -19.865149    
 120940000   262.81137     -410.76505     -322.7461      -410.65909      0              3315.5618      31.164         21.490526      33.453986      22405.163      1846.7418      4542.0464      3557.8973     -1377.5938      513.69247     -3145.1436    
 120942000   267.38628     -409.38506     -319.83391     -409.31899      0              4683.1438      31.164         21.490526      33.29028       22295.524      4313.5799      5157.4883      4578.3631     -1638.1452     -1339.9526      374.99583    
 120944000   263.8239      -414.3777      -326.01964     -414.24554      0              4227.2875      31.164         21.490526      33.412231      22377.198      2459.6309      4545.1609      5677.0707      566.0331      -734.96912     -664.85242    
 120946000   269.2681      -408.69594     -318.51454     -408.57146      0              4689.119       31.164         21.490526      33.249837      22268.438      6362.9442      3898.1588      3806.2542     -2381.6976      382.97062     -780.10119    
 120948000   262.97479     -412.31942     -324.24573     -412.1944       0              4336.4294      31.164         21.490526      33.178079      22220.38       6061.2594      2353.3877      4594.6411     -1227.9946     -195.06699     -210.17679    
 120950000   257.59811     -414.20835     -327.93539     -414.10617      0              2061.9744      31.164         21.490526      33.143107      22196.958      2920.0901      1144.6718      2121.1613     -351.3487       499.67163      597.69223    
 120952000   260.76531     -413.78532     -326.45162     -413.68111      0              2307.6015      31.164         21.490526      33.197845      22233.618      2149.3814      3625.8679      1147.5553      924.82915     -19.364567     -840.75046    
 120954000   263.27443     -410.45006     -322.27602     -410.33548      0              3029.2802      31.164         21.490526      33.207142      22239.844      2728.9211      3227.3107      3131.6087      223.81086      1004.8309      9.4317491    
 120956000   257.14562     -411.66537     -325.54395     -411.51734      0              2713.4536      31.164         21.490526      33.234808      22258.373      1990.0196      2214.5357      3935.8054      527.62949     -12.713733     -324.12945    
 120958000   259.06339     -410.36336     -323.59966     -410.26033      0              4043.6179      31.164         21.490526      33.032457      22122.852      3336.1606      6829.1092      1965.5838      66.276309     -733.64542      611.56864    
 120960000   251.74445     -411.21875     -326.90625     -411.06549      0              2830.2813      31.164         21.490526      33.271506      22282.951      1038.9185      3764.3579      3687.5676      865.24117     -833.1741      -119.28327    
 120962000   264.08964     -413.57543     -325.12837     -413.46135      0              3175.8035      31.164         21.490526      33.303373      22304.293      1250.1754      5158.8423      3118.3927     -1526.6419     -26.776057     -1713.6317    
 120964000   257.43687     -412.08302     -325.86405     -411.9677       0              2433.5723      31.164         21.490526      33.268272      22280.785      1466.4287      1962.2402      3872.0479     -40.007327     -1371.2523      189.98493    
 120966000   266.48152     -411.4832      -322.23507     -411.35421      0              3509.3569      31.164         21.490526      33.367778      22347.427      4053.6636      5806.9363      667.47089      722.17646      443.85572      1145.7324    
 120968000   262.90211     -414.00679     -325.95744     -413.84907      0              4002.6953      31.164         21.490526      33.16965       22214.735      3316.199       4296.0562      4395.8308     -1357.5679      319.6182      -423.05298    
 120970000   265.60856     -411.21213     -322.25636     -411.07079      0              3226.2711      31.164         21.490526      33.2529        22270.49       3854.2669      1947.0861      3877.4603      1026.5806     -172.23241      1860.373     
 120972000   260.92193     -409.64133     -322.25517     -409.50681      0              3479.7289      31.164         21.490526      33.259084      22274.631      2375.2202      3459.5814      4604.3849      1042.4685      468.4149      -250.71182    
 120974000   254.99719     -411.61312     -326.21124     -411.45435      0              2529.4217      31.164         21.490526      33.174957      22218.289      2395.9286      1295.0558      3897.2808     -359.13136     -1507.9355      397.17435    
 120976000   263.21485     -413.91721     -325.76313     -413.79944      0              3602.7493      31.164         21.490526      33.205229      22238.563      670.61425      5005.6509      5131.9827      1118.6427      1312.4746     -1532.7355    
 120978000   259.46358     -410.88275     -323.98502     -410.75169      0              4336.511       31.164         21.490526      33.264273      22278.106      4768.1819      4055.2841      4186.067       568.216       -249.66317     -581.48973    
 120980000   263.68386     -411.61037     -323.29921     -411.47799      0              3716.165       31.164         21.490526      33.378059      22354.312      3893.5055      3874.5544      3380.4351      1024.0516      26.997795      629.65939    
 120982000   263.38196     -410.25955     -322.0495      -410.14211      0              2276.3936      31.164         21.490526      33.324678      22318.561      2130.1917      2253.3207      2445.6684      188.58618     -667.60588      89.231435    
 120984000   259.70379     -414.5787      -327.60052     -414.44682      0              1513.6807      31.164         21.490526      33.365107      22345.638      3187.4733      608.49655      745.07228     -20.659611     -104.79255      1621.7487    
 120986000   261.34588     -413.21353     -325.68539     -413.05535      0              3283.3427      31.164         21.490526      33.383749      22358.124      2213.6873      3204.862       4431.4789     -1148.173      -225.99893     -1425.5527    
 120988000   270.80774     -411.82512     -321.12807     -411.71292      0              2543.7111      31.164         21.490526      33.259642      22275.005      3910.9811      2908.7888      811.36348     -1597.0285      726.5963       602.70304    
 120990000   260.74041     -411.36165     -324.03629     -411.22627      0              3116.6354      31.164         21.490526      33.265634      22279.018      5037.6991      2891.5754      1420.6315     -1215.0194      191.08157     -996.21013    
 120992000   258.0056      -412.21073     -325.80129     -412.10081      0              3930.2609      31.164         21.490526      33.519411      22448.981      5779.5613      4370.2394      1640.9819     -1382.0004     -1972.2826     -541.1001     
 120994000   259.11767     -408.81352     -322.03164     -408.70659      0              1602.2845      31.164         21.490526      33.442101      22397.204      1269.3406      325.81084      3211.7021      852.65216     -983.69597     -191.89983    
 120996000   254.32233     -409.20778     -324.03192     -409.11921      0              2558.2114      31.164         21.490526      33.568758      22482.03       4420.4517      3592.2226     -338.04008     -146.29143      253.07286      913.79003    
 120998000   257.67202     -413.18047     -326.88275     -413.07587      0              3300.1601      31.164         21.490526      33.418305      22381.266      2348.7677      4027.5804      3524.1321     -2471.8432      682.04957      361.46653    
 121000000   261.37911     -409.8669      -322.32763     -409.80025      0              1453.1904      31.164         21.490526      33.489979      22429.269      1129.4215      607.1166       2623.0333     -572.35521      1743.85        1470.1107    
 121002000   261.79582     -411.56533     -323.88649     -411.44537      0              4173.5092      31.164         21.490526      33.369793      22348.776      3526.0643      4924.7634      4069.6998     -500.13961      386.08399      1749.9576    
 121004000   261.79747     -410.75206     -323.07268     -410.61785      0              3648.1278      31.164         21.490526      33.236731      22259.661      4229.5779      4301.2754      2413.53        485.82701     -766.58162     -1000.0245    
 121006000   251.40171     -412.92766     -328.72995     -412.77171      0              2819.1534      31.164         21.490526      33.142251      22196.385      1843.4569      2916.8727      3697.1306      1786.9663      636.93053      683.43924    
 121008000   263.02582     -410.54988     -322.4591      -410.42028      0              2484.7611      31.164         21.490526      33.211339      22242.655      2507.8635      1823.6579      3122.7618     -473.615        417.04562      500.20427    
 121010000   259.2257      -412.23486     -325.41679     -412.10283      0              4319.563       31.164         21.490526      33.242707      22263.663      4390.0719      5024.743       3543.874      -76.744391      402.30265     -887.02504    
 121012000   257.5983      -413.17418     -326.90115     -413.02292      0              2246.2006      31.164         21.490526      33.286945      22293.291      2020.3937      2486.6591      2231.5488     -929.12643      450.19401      789.37407    
 121014000   254.93337     -412.16616     -326.78566     -412.02186      0              3872.5475      31.164         21.490526      33.346765      22333.354      4214.9948      3433.6337      3969.014      -1408.3583      614.89967      429.69659    
 121016000   258.80526     -408.93999     -322.26273     -408.8033       0              3457.736       31.164         21.490526      33.186724      22226.169      906.29131      4962.2077      4504.7089     -1535.4071      896.68606     -1489.6767    
 121018000   259.42804     -411.77543     -324.88959     -411.64036      0              2661.8281      31.164         21.490526      33.292569      22297.058      3558.5178      2054.1656      2372.8008     -1002.627      -1300.3784     -579.2099     
 121020000   259.5828      -412.64936     -325.7117      -412.51785      0              2548.9023      31.164         21.490526      33.3534        22337.797      2568.9999      2775.2966      2302.4104      418.15163      1243.812       7.5200822    
 121022000   266.4955      -413.81392     -324.5611      -413.67472      0              3245.5156      31.164         21.490526      33.359037      22341.573      2731.5012      3427.5525      3577.493      -1072.8428     -117.97932      444.97364    
 121024000   263.96942     -410.47783     -322.07103     -410.39038      0              1934.5586      31.164         21.490526      33.362861      22344.134      2043.7752      2234.094       1525.8065      973.16362     -199.01071      70.739445    
 121026000   259.9289      -411.05244     -323.99886     -410.9645       0              2773.0224      31.164         21.490526      33.522238      22450.874      3388.3383      2548.5697      2382.1593     -24.884457     -853.32816     -875.00438    
 121028000   259.68833     -413.61433     -326.64133     -413.49607      0              2923.5059      31.164         21.490526      33.505736      22439.822      3781.4003      1649.4089      3339.7084      644.91943     -1068.8144     -417.06711    
 121030000   259.64895     -410.89011     -323.93029     -410.77395      0              1970.6027      31.164         21.490526      33.590383      22496.513      2530.8433      2824.0428      556.9221       24.492631      40.103089     -942.02837    
 121032000   261.06496     -413.56086     -326.1268      -413.42552      0              2363.6064      31.164         21.490526      33.624286      22519.218      4095.7254      1576.8042      1418.2896     -160.50598      745.52445     -579.09127    
 121034000   256.8172      -412.28443     -326.273       -412.19989      0              3827.1261      31.164         21.490526      33.615005      22513.003      5220.0113      1662.9364      4598.4305     -1057.2603      1611.6153      2279.4492    
 121036000   261.44247     -412.37132     -324.81083     -412.26959      0              4902.491       31.164         21.490526      33.610779      22510.172      3476.4291      6842.1904      4388.8536      1618.5611      740.74095     -2697.7386    
 121038000   263.62273     -412.85599     -324.5653      -412.74999      0              4095.5847      31.164         21.490526      33.653491      22538.778      4270.5449      3889.4872      4126.7221      38.508503     -296.18808     -21.745858    
 121040000   260.29761     -409.04737     -321.87031     -408.94439      0              2015.3019      31.164         21.490526      33.397523      22367.348      463.48342      3164.462       2417.9602     -25.551797      616.48104     -240.49879    
 121042000   261.92155     -408.967       -321.24606     -408.8472       0              2738.225       31.164         21.490526      33.302278      22303.56       2085.0917      4093.259       2036.3242      1109.3432     -746.46006     -102.5959     
 121044000   260.59501     -411.07631     -323.79965     -410.97087      0              2546.1835      31.164         21.490526      33.453979      22405.158      3092.9554      3036.2853      1509.3099      933.64283      455.2244       1362.4483    
 121046000   254.72263     -408.83613     -323.5262      -408.727        0              1450.7918      31.164         21.490526      33.39473       22365.477      443.36572      2277.6189      1631.3908     -27.916363      2443.3852      1415.6283    
 121048000   257.37033     -410.92516     -324.72848     -410.83864      0              2373.1537      31.164         21.490526      33.5084        22441.606      2990.1773      2273.737       1855.5469      0.96758855     1682.5365      1771.6712    
 121050000   260.7684      -411.12714     -323.79241     -411.01926      0              2257.9219      31.164         21.490526      33.460006      22409.195      728.97234      3532.9051      2511.8881     -957.03176     -902.98824      100.81409    
 121052000   254.10391     -409.07001     -323.9673      -408.92345      0              4295.8867      31.164         21.490526      33.422921      22384.358      4498.1446      6643.1319      1746.3835      73.971766     -432.70337     -516.19485    
 121054000   256.17729     -406.97892     -321.18181     -406.87759      0              3525.8966      31.164         21.490526      33.437195      22393.918      3592.1249      2525.2006      4460.3643      395.38934     -141.38375      655.22407    
 121056000   263.86367     -408.41673     -320.04534     -408.29736      0              1719.231       31.164         21.490526      33.55513       22472.902      1777.8464      1583.7099      1796.1366      1757.3161     -1282.7435      98.078762    
 121058000   260.7704      -410.90059     -323.56519     -410.80815      0              3638.8589      31.164         21.490526      33.332124      22323.549      2805.0934      4354.8644      3756.6189      434.2526       626.48856      471.56184    
 121060000   265.10774     -412.92095     -324.13291     -412.80217      0              2979.449       31.164         21.490526      33.475584      22419.628      1695.5606      5486.0103      1756.776       1296.5914      177.47458      1121.9718    
 121062000   258.37273     -412.11333     -325.58094     -412.00559      0              2644.6308      31.164         21.490526      33.505461      22439.637      1679.7427      3030.0206      3224.1291     -50.264536      1508.8309      911.29727    
 121064000   261.97421     -412.94724     -325.20867     -412.81479      0              3102.573       31.164         21.490526      33.331245      22322.96       2032.3239      4431.1136      2844.2816      1476.6567     -860.54934      1774.2307    
 121066000   257.98676     -412.46101     -326.05788     -412.35277      0              4220.0214      31.164         21.490526      33.306089      22306.112      2301.0327      4913.7189      5445.3126      42.130297      289.63222     -999.19809    
 121068000   256.145       -410.18985     -324.40355     -410.06572      0              4001.1226      31.164         21.490526      33.296711      22299.831      3619.3042      4785.429       3598.6345      919.0367       12.81457       779.81851    
 121070000   267.76763     -413.00729     -323.32842     -412.91635      0              2983.8135      31.164         21.490526      33.393498      22364.652      2842.8674      1146.3484      4962.2248      1495.5418     -84.895832      90.089194    
 121072000   254.03825     -413.26466     -328.18394     -413.11399      0              5375.4569      31.164         21.490526      33.038921      22127.181      6259.6767      5684.4424      4182.2518     -427.18744     -114.60515      548.80509    
 121074000   253.68172     -412.10889     -327.14758     -411.93409      0              5496.144       31.164         21.490526      33.011019      22108.494      6377.7368      5414.611       4696.0842     -30.888334     -1444.7889     -236.00028    
 121076000   257.40632     -410.52746     -324.31873     -410.4017       0              3637.0475      31.164         21.490526      33.318549      22314.457      4000.8022      3451.6386      3458.7017      1088.9038     -967.12153      319.9543     
 121078000   261.16587     -412.40582     -324.93797     -412.2643       0              3863.1106      31.164         21.490526      33.223559      22250.839      3516.2318      4620.0889      3453.0111     -526.25592     -759.47752     -904.41041    
 121080000   260.96561     -410.89283     -323.49205     -410.762        0              4956.5086      31.164         21.490526      33.331757      22323.303      5491.4126      5723.4762      3654.6371     -5.8256274      1232.1434     -760.35273    
 121082000   258.07672     -409.26212     -322.82886     -409.11212      0              2796.7965      31.164         21.490526      33.113986      22177.455      3749.3766      3650.4183      990.59463     -814.09061     -1327.6806     -732.35604    
 121084000   260.6086      -411.69861     -324.4174      -411.52983      0              4228.893       31.164         21.490526      33.155821      22205.473      5000.4589      3436.0854      4250.1347     -492.73301     -1535.5771     -1128.8715    
 121086000   260.01299     -410.04636     -322.96462     -409.88284      0              2749.7683      31.164         21.490526      33.311848      22309.969      4220.2475      3327.7327      701.3248      -501.80704     -62.24957       860.5165     
 121088000   260.50514     -412.79566     -325.54909     -412.62256      0              2430.9479      31.164         21.490526      33.147918      22200.18       1024.6071      3650.8671      2617.3696      766.81332     -774.00118     -2101.9611    
 121090000   252.06088     -412.13922     -327.72075     -411.97741      0              4663.3535      31.164         21.490526      33.249458      22268.185      5168.4688      4309.5256      4512.0662      194.1919       205.76593      76.391222    
 121092000   251.90478     -413.09787     -328.73168     -412.94142      0              2811.255       31.164         21.490526      33.314106      22311.481      1640.5548      3100.1532      3693.057      -90.217008      152.46196      996.83959    
 121094000   262.25993     -410.22054     -322.38627     -410.06412      0              3694.8042      31.164         21.490526      33.286897      22293.258      4575.4367      3855.2968      2653.6793     -773.68078      356.78442      457.89663    
 121096000   258.17929     -410.83877     -324.37116     -410.67978      0              5596.3739      31.164         21.490526      33.293215      22297.49       4996.6299      6925.5345      4866.9574      330.69119     -529.38406      907.139      
 121098000   257.1052      -411.64967     -325.54179     -411.50267      0              2621.9885      31.164         21.490526      33.367646      22347.339      571.8348       5767.6269      1526.5039     -1451.9741     -54.559237     -383.33266    
 121100000   257.88908     -410.12219     -323.75178     -409.98424      0              3227.0035      31.164         21.490526      33.20481       22238.282      3095.2858      2793.7419      3791.9828     -497.96947      218.95521     -709.47292    
 121102000   261.28612     -409.00333     -321.4952      -408.86252      0              3690.2444      31.164         21.490526      33.232346      22256.724      3074.3279      5186.1453      2810.2598      1747.1485     -55.193358      324.63059    
 121104000   257.91857     -410.26759     -323.8873      -410.1165       0              4077.9701      31.164         21.490526      33.215177      22245.225      5050.281       1660.582       5523.0473      892.27621     -2696.9723     -478.163      
 121106000   268.78726     -410.75372     -320.73336     -410.5926       0              4296.8367      31.164         21.490526      33.313786      22311.267      3406.9164      3427.384       6056.2097     -949.86552     -299.11031     -1630.2933    
 121108000   259.97237     -410.05834     -322.9902      -409.89297      0              4048.4157      31.164         21.490526      32.970282      22081.211      3320.073       4129.3275      4695.8467     -1662.0621     -135.20011     -582.96956    
 121110000   257.28592     -410.00753     -323.83912     -409.87412      0              2786.9556      31.164         21.490526      33.245128      22265.285      2924.9812      2353.3232      3082.5623     -1317.908       587.08439      258.97779    
 121112000   266.42927     -409.98328     -320.75265     -409.83311      0              2546.0468      31.164         21.490526      33.226082      22252.529      2806.6917      2715.3025      2116.1463     -1252.3202     -538.08144      394.68815    
 121114000   260.06275     -409.83744     -322.73903     -409.71921      0              2673.4707      31.164         21.490526      33.395599      22366.06       3603.3786      3237.8993      1179.1342     -1245.2413     -378.04709     -499.70201    
 121116000   257.27278     -409.7725      -323.60849     -409.63646      0              3681.9853      31.164         21.490526      33.48505       22425.967      5025.3987      2504.4348      3516.1224     -73.566357     -875.40849     -261.30749    
 121118000   262.93614     -410.84654     -322.7858      -410.67837      0              3989.5855      31.164         21.490526      33.153265      22203.761      3702.6638      3937.8393      4328.2534     -32.827953      900.14385     -1048.5214    
 121120000   259.30344     -411.92237     -325.07827     -411.78003      0              2471.1274      31.164         21.490526      33.380622      22356.029      1432.8535      3943.0496      2037.4791      1230.0929     -1576.9515     -459.91113    
 121122000   254.68446     -411.77486     -326.47771     -411.61054      0              3020.1545      31.164         21.490526      33.410143      22375.8        3239.3266      4571.2476      1249.8892     -897.44243      1334.7632     -1635.3186    
 121124000   259.47106     -410.50524     -323.605       -410.38191      0              2146.2375      31.164         21.490526      33.514588      22445.75       1175.2648      2694.877       2568.5707     -279.16336      1019.263      -246.18419    
 121126000   264.18383     -410.71207     -322.23346     -410.58138      0              1590.2309      31.164         21.490526      33.345884      22332.764      803.2281       2351.8566      1615.6081      196.03568      565.13147     -297.18312    
 121128000   255.73426     -411.18137     -325.53264     -411.01307      0              2543.345       31.164         21.490526      33.400102      22369.076      950.93877      3784.4511      2894.6451      1771.6635      180.90582     -1190.8903    
 121130000   264.86339     -410.675       -321.9688      -410.5577       0              3049.3358      31.164         21.490526      33.324654      22318.546      3404.9208      3334.4432      2408.6436      1152.3875      1150.5026      415.05951    
 121132000   262.6096      -412.15016     -324.19878     -412.00019      0              3537.9876      31.164         21.490526      33.066944      22145.949      4670.6596      2109.2172      3834.0859     -1414.2537     -206.25114     -350.47274    
 121134000   258.13255     -407.95402     -321.50206     -407.829        0              3882.7017      31.164         21.490526      33.180293      22221.863      4376.3233      4749.1168      2522.6649     -771.75426      518.63426      442.50372    
 121136000   254.91382     -409.95561     -324.58165     -409.79593      0              3863.4645      31.164         21.490526      33.041296      22128.772      4534.6164      990.66229      6065.1148      718.03035     -821.46122     -1261.3377    
 121138000   251.33204     -410.86055     -326.68618     -410.72941      0              5578.6292      31.164         21.490526      33.081404      22155.634      4896.5052      7145.0165      4694.366      -2106.3206     -2159.6848     -958.12883    
 121140000   264.43958     -409.5717      -321.00743     -409.45996      0              2301.1895      31.164         21.490526      33.327193      22320.246      1357.091       2697.6995      2848.778      -87.491972      452.92741     -1234.8987    
 121142000   254.60283     -409.38957     -324.11976     -409.27905      0              4319.2865      31.164         21.490526      33.398777      22368.188      2821.8694      7075.3418      3060.6484      125.43871     -272.85317      158.08054    
 121144000   267.04095     -409.5093      -320.0738      -409.39948      0              2302.9916      31.164         21.490526      33.353271      22337.712      2404.5331      2881.2728      1623.1689     -1618.7338      1253.7819     -301.17774    
 121146000   256.56414     -408.78434     -322.85766     -408.69454      0              3783.8146      31.164         21.490526      33.166246      22212.455      4513.7679      3781.537       3056.1388      686.20505     -259.33613      329.39703    
 121148000   257.1546      -409.46733     -323.3429      -409.36241      0              3885.0314      31.164         21.490526      33.338988      22328.146      3402.1844      3311.4741      4941.4356     -147.47651      538.20946      491.82745    
 121150000   263.76282     -409.99973     -321.66212     -409.90455      0              3578.372       31.164         21.490526      33.321265      22316.276      3912.5584      2467.3765      4355.1811     -872.90011     -994.36539      1137.0494    
 121152000   259.41368     -411.02841     -324.14739     -410.93127      0              3026.2563      31.164         21.490526      33.223637      22250.891      4291.0676      1530.4295      3257.2717     -253.67289      728.3758       1496.7288    
 121154000   263.91257     -409.57644     -321.18868     -409.51395      0              5427.3398      31.164         21.490526      32.989083      22093.803      5420.0926      4251.7596      6610.1674      1709.3023     -859.32487      197.34615    
 121156000   260.31313     -410.25608     -323.07382     -410.199        0              2586.6212      31.164         21.490526      33.209112      22241.164      2421.3899      3075.1951      2263.2787     -98.527527      31.78894      -2372.0068    
 121158000   262.14784     -407.79149     -319.99476     -407.72809      0              4901.3136      31.164         21.490526      33.365625      22345.985      5068.079       4530.1291      5105.7329      612.92631      351.032        2487.9739    
 121160000   258.22554     -410.63083     -324.14773     -410.58218      0              3586.1557      31.164         21.490526      33.316567      22313.129      1479.0235      2692.9941      6586.4496      1182.6864      728.41931     -224.21871    
 121162000   265.28548     -411.77823     -322.93067     -411.71122      0              4604.1618      31.164         21.490526      33.363552      22344.597      6241.85        4019.5797      3551.0557     -191.1239      -1211.1407      801.84617    
 121164000   253.35406     -408.90257     -324.05099     -408.8692       0              2912.8752      31.164         21.490526      33.315326      22312.298      3358.5122      2570.1899      2809.9234     -500.42168     -784.85484     -1353.6909    
 121166000   269.01391     -410.7654      -320.66913     -410.6914       0              1975.7097      31.164         21.490526      33.285074      22292.038      2078.1315      307.82869      3541.1689     -2113.8533      485.48906     -680.25363    
 121168000   255.88558     -412.10285     -326.40343     -412.02167      0              2389.3687      31.164         21.490526      33.30522       22305.53       3180.9963      2829.4977      1157.6122      1187.9448     -641.0899       1469.0592    
 121170000   258.96004     -409.75208     -323.02299     -409.65556      0              4467.0382      31.164         21.490526      33.490306      22429.488      3095.7247      6569.5863      3735.8035      1894.8754      122.95107      1443.463     
 121172000   262.70994     -408.30013     -320.31515     -408.22891      0              2366.7567      31.164         21.490526      33.470222      22416.037      3572.0341      3083.6158      444.62014      539.09436      513.64074      130.79187    
 121174000   257.51687     -410.42637     -324.18061     -410.36529      0              2678.4056      31.164         21.490526      33.408204      22374.502      2869.5729      4078.9396      1086.7042      433.61993     -1973.8821     -23.145278    
 121176000   251.54513     -412.28631     -328.04057     -412.21104      0              3515.6542      31.164         21.490526      33.380209      22355.752      2060.9023      5500.1465      2985.9136      822.45946      86.217858      1172.6218    
 121178000   260.51948     -409.15187     -321.9005      -409.07988      0              4452.7365      31.164         21.490526      33.199284      22234.581      4300.9227      3568.3399      5488.9468      814.29363     -1179.5942     -835.10988    
 121180000   262.14127     -409.64109     -321.84656     -409.58956      0              2518.9053      31.164         21.490526      33.465137      22412.632      3733.9081      2188.4478      1634.36        182.70759      2685.4771     -18.765255    
 121182000   255.26952     -411.16114     -325.66805     -411.1033       0              2036.2968      31.164         21.490526      33.502343      22437.549      852.61666      2915.7404      2340.5333      1109.0626      409.51474      421.87507    
 121184000   260.15038     -412.07118     -324.94342     -412.00122      0              3584.6584      31.164         21.490526      33.483609      22425.003      3856.0419      2821.0929      4076.8405     -22.365038     -1378.0766     -444.09299    
 121186000   264.55815     -411.59508     -322.99111     -411.51499      0              1922.4432      31.164         21.490526      33.564711      22479.319      2369.0937      2186.8321      1211.4037     -284.01594     -323.46228      1518.7716    
 121188000   259.76161     -408.00234     -321.00479     -407.92668      0              3750.0119      31.164         21.490526      33.454759      22405.681      4152.3836      4933.4266      2164.2254      58.843356     -1776.0241      1043.5666    
 121190000   264.12879     -408.23015     -319.76998     -408.17336      0              3353.6767      31.164         21.490526      33.345024      22332.188      2699.8333      4570.8749      2790.3219      58.762119      24.403944      445.34313    
 121192000   265.45796     -410.52542     -321.62009     -410.42888      0              2870.963       31.164         21.490526      33.560591      22476.56       2007.2054      1437.0636      5168.62        1337.0804      62.047008      589.33601    
 121194000   257.0453      -409.0337      -322.94587     -408.96552      0              4257.5272      31.164         21.490526      33.620908      22516.956      3341.2953      5047.6011      4383.6852     -1375.4532     -487.63998      171.46743    
 121196000   267.04356     -409.02849     -319.59212     -408.96943      0              2239.1805      31.164         21.490526      33.640814      22530.288      3125.1533      1866.6246      1725.7637      868.67677     -257.31692     -744.73373    
 121198000   261.15341     -409.03092     -321.56724     -408.92512      0             -144.24586      31.164         21.490526      33.446348      22400.048      170.12343     -166.59113     -436.26988      534.85648      489.31876      312.14218    
 121200000   263.0126      -408.32115     -320.23481     -408.24805      0              3207.4351      31.164         21.490526      33.470048      22415.92       3428.7175      2747.3321      3446.2557      599.23001     -1162.0912      944.24114    
 121202000   260.33966     -413.62065     -326.42951     -413.50614      0              2997.1717      31.164         21.490526      33.373381      22351.18       4976.3445      4010.89        4.2806494     -699.2438      -91.619021     -324.86648    
 121204000   261.5813      -415.21038     -327.60339     -415.10565      0              1590.7674      31.164         21.490526      33.2667        22279.732      1491.5186      1853.183       1427.6008     -1012.1362     -371.74762      145.76614    
 121206000   263.74671     -410.4563      -322.12409     -410.33395      0              2382.0556      31.164         21.490526      33.279483      22288.293      2788.8695      2945.2428      1412.0545     -678.87075     -966.72503      874.23252    
 121208000   268.15241     -412.6518      -322.84406     -412.51762      0              3844.7713      31.164         21.490526      33.263922      22277.871      4833.1359      2434.0186      4267.1593     -554.68792      459.23804     -314.41616    
 121210000   260.17017     -410.63849     -323.5041      -410.52625      0              3350.8056      31.164         21.490526      33.24336       22264.1        2994.9586      3283.6781      3773.7803     -657.48368      606.43326     -397.00207    
 121212000   258.89614     -409.01521     -322.30752     -408.90633      0              4560.9085      31.164         21.490526      33.276536      22286.32       5747.3522      4429.0894      3506.2839     -1397.3422      495.32819      801.91537    
 121214000   256.61685     -410.7258      -324.78147     -410.62946      0              2168.2023      31.164         21.490526      33.400096      22369.071      2933.7134      2468.6893      1102.2041      1335.4769      203.90073      492.30121    
 121216000   265.60225     -410.52924     -321.57558     -410.43829      0              2676.4509      31.164         21.490526      33.485417      22426.213      2378.4969      3035.7525      2615.1032      596.57086      229.24736     -557.42976    
 121218000   259.74778     -410.13582     -323.1429      -410.0418       0              3701.1539      31.164         21.490526      33.469166      22415.33       5461.8843      4432.0688      1209.5087      708.65399     -381.08566      1239.1718    
 121220000   254.51868     -410.05995     -324.81833     -409.96359      0              5021.2357      31.164         21.490526      33.437651      22394.223      3593.9273      5377.8199      6091.9598     -1041.8898     -762.63714      875.87879    
 121222000   257.75833     -408.17423     -321.8476      -408.10911      0              2125.4947      31.164         21.490526      33.45973       22409.01       662.86121      3023.754       2689.8689      499.46899      1062.1027      448.87274    
 121224000   254.28832     -408.94434     -323.77987     -408.87649      0              1692.2163      31.164         21.490526      33.612806      22511.53       1481.5072      2415.454       1179.6876      189.31033     -1294.8339     -393.98994    
 121226000   265.96207     -410.19112     -321.11696     -410.12033      0              1570.7343      31.164         21.490526      33.704207      22572.744      3620.1868      989.73663      102.27964      785.41994     -646.97184     -22.772788    
 121228000   264.86506     -411.70298     -322.99622     -411.58771      0              3813.3854      31.164         21.490526      33.428024      22387.776      3443.2967      6892.8649      1103.9947      499.37656     -1262.8192     -48.064427    
 121230000   265.34348     -408.78245     -319.91546     -408.68989      0              910.15407      31.164         21.490526      33.713636      22579.059      1459.3266      1355.1533     -84.017713      665.82549     -596.14575      767.85072    
 121232000   265.00765     -409.66868     -320.91417     -409.56676      0              5030.7004      31.164         21.490526      33.836222      22661.158      5080.7342      5925.6998      4085.6672      1381.0245      441.26271      263.99718    
 121234000   257.66719     -409.40856     -323.11246     -409.27857      0              4237.4835      31.164         21.490526      33.434587      22392.171      5045.2033      5422.3724      2244.8749      776.88943     -34.161268     -209.39705    
 121236000   260.64231     -409.37222     -322.07971     -409.23438      0              4992.6503      31.164         21.490526      33.358519      22341.226      6732.4623      3555.1955      4690.293      -6.6554236     -75.106144      49.498641    
 121238000   259.02483     -410.49008     -323.73929     -410.39178      0              719.52609      31.164         21.490526      33.415495      22379.385     -671.74902      637.30214      2193.0252     -483.39152     -892.95379      523.15713    
 121240000   257.35432     -411.5325      -325.34118     -411.41157      0              2693.5083      31.164         21.490526      33.343714      22331.311      4102.1713      1675.4705      2302.883       325.81244      180.81843      2041.8634    
 121242000   257.67677     -410.05377     -323.75447     -409.94272      0              3386.7077      31.164         21.490526      33.201987      22236.392      3926.4224      3529.5783      2704.1224     -26.602246     -119.36198     -1341.9793    
 121244000   260.09926     -412.19135     -325.08071     -412.1066       0              3502.18        31.164         21.490526      33.2293        22254.684      3851.6457      3893.1222      2761.7722      653.30088      1020.7939      615.14346    
 121246000   260.42873     -409.11843     -321.89745     -409.04348      0              3166.1589      31.164         21.490526      33.386359      22359.871      2009.1253      4373.0995      3116.2519      1473.2073      1552.2613     -1145.1179    
 121248000   265.10978     -410.31559     -321.52687     -410.2134       0              3673.7473      31.164         21.490526      33.298287      22300.887      2840.8135      4755.9127      3424.5157     -671.04523     -2007.2979      572.02765    
 121250000   266.97947     -411.06754     -321.65264     -410.96168      0              2892.4057      31.164         21.490526      33.453295      22404.7        5033.9928      2843.5272      799.69695     -555.03643      1339.9216      47.177132    
 121252000   262.29447     -409.35223     -321.50639     -409.28848      0              13.153482      31.164         21.490526      33.651442      22537.406     -1767.4313      1711.0364      95.855333     -239.91428     -808.98098      1910.8102    
 121254000   258.18437     -413.11075     -326.64144     -413.00692      0              3631.7516      31.164         21.490526      33.445788      22399.673      4269.1226      3826.6399      2799.4923     -1026.7863      132.61894      662.78286    
 121256000   263.083       -409.65193     -321.54201     -409.57921      0              3119.8859      31.164         21.490526      33.604794      22506.164      4513.8094      2974.8024      1871.0461      1253.4074     -1245.4571      612.24021    
 121258000   264.97827     -413.61682     -324.87214     -413.50098      0              3241.3089      31.164         21.490526      33.34627       22333.023      2583.1304      3218.7123      3922.084      -729.71452      1067.2342     -388.25738    
 121260000   256.6503      -412.96885     -327.01332     -412.87313      0              1763.9207      31.164         21.490526      33.373121      22351.005      287.79422      2442.559       2561.409       3812.0808      158.53541     -521.20646    
 121262000   259.92241     -413.25068     -326.19927     -413.1348       0              1884.5496      31.164         21.490526      33.28594       22292.618      2602.3905      1164.3857      1886.8725     -1595.8841      1461.0473      1914.1889    
 121264000   257.58735     -413.85307     -327.58371     -413.74082      0              4514.5358      31.164         21.490526      33.358402      22341.148      2438.0333      5116.3769      5989.1973      2341.1713      1028.4348      1318.8128    
 121266000   261.69717     -412.38224     -324.73645     -412.24075      0              1135.3582      31.164         21.490526      33.524249      22452.22       561.99756      2156.3404      687.7366      -1371.9091      1283.3456      850.85619    
 121268000   263.34295     -410.41004     -322.21305     -410.2822       0              3427.0532      31.164         21.490526      33.25112       22269.298      4986.5634      2970.123       2324.4731      2308.6408      100.17444      519.70999    
 121270000   264.15325     -410.7212      -322.25284     -410.57322      0              2644.862       31.164         21.490526      33.224594      22251.532      4315.8705      1890.3535      1728.362      -786.02218     -286.62505     -588.27849    
 121272000   260.80106     -409.5212      -322.17552     -409.41511      0              5234.6064      31.164         21.490526      33.295007      22298.69       2813.4603      6324.1223      6566.2365      130.47243     -837.83677      303.59183    
 121274000   264.19757     -413.02531     -324.5421      -412.88591      0              4770.7975      31.164         21.490526      33.348308      22334.387      4556.5137      6485.7813      3270.0974     -159.0101       997.0927       949.74003    
 121276000   264.22251     -410.78664     -322.29508     -410.65165      0              4042.0465      31.164         21.490526      33.483806      22425.135      3579.3099      2656.7896      5890.0399     -748.52168      1575.738       2228.8259    
 121278000   254.97496     -409.71917     -324.32474     -409.59714      0              3193.1159      31.164         21.490526      33.401983      22370.335      2813.0691      3241.5955      3524.6831     -530.74068     -301.99272      1632.5578    
 121280000   265.68879     -409.92405     -320.94141     -409.81305      0              2931.5354      31.164         21.490526      33.333248      22324.301      2656.4131      1745.5182      4392.675      -355.43614     -980.38201     -571.95026    
 121282000   266.79114     -409.33611     -319.98428     -409.22912      0              3328.1402      31.164         21.490526      33.420246      22382.566      4398.3852      1969.3602      3616.6753      229.01592     -1001.4749      904.59646    
 121284000   259.88817     -409.79155     -322.75161     -409.68614      0              2884.3224      31.164         21.490526      33.264703      22278.394      3231.0636      2349.3861      3072.5176      606.26977      86.238497      909.06205    
 121286000   267.25625     -410.08235     -320.57475     -409.97295      0              3831.0939      31.164         21.490526      33.36671       22346.712      4143.0981      3962.3127      3387.8708      646.95931      1820.8672      503.01142    
 121288000   260.7673      -408.90455     -321.57018     -408.79731      0              4263.5074      31.164         21.490526      33.19361       22230.782      3836.096       4350.5156      4603.9105      1371.6956      2025.1665     -329.99426    
 121290000   259.9604      -407.43399     -320.36986     -407.33018      0              2334.6664      31.164         21.490526      33.389556      22362.012      2326.4197      3081.2694      1596.31       -1023.5931      177.13188      649.59559    
 121292000   263.78723     -408.52657     -320.18079     -408.40291      0              6261.0668      31.164         21.490526      33.220228      22248.608      6638.9945      6740.8922      5403.3138     -283.03852     -1060.4321      211.83887    
 121294000   258.79269     -409.17906     -322.50601     -409.10987      0              5697.7162      31.164         21.490526      33.441462      22396.776      6155.6695      5526.6669      5410.8121     -1271.071       311.66636     -1092.2803    
 121296000   248.89191     -410.57715     -327.22001     -410.49013      0              3078.6716      31.164         21.490526      33.364805      22345.436      4440.0839      2832.4979      1963.433      -394.9373       34.578887      1155.705     
 121298000   268.59421     -412.62553     -322.66983     -412.53377      0              4171.6817      31.164         21.490526      33.53509       22459.481      5555.6809      3674.8545      3284.5096     -1151.0034     -100.4628      -132.02196    
 121300000   257.36292     -411.4068      -325.2126      -411.28015      0              2094.8337      31.164         21.490526      33.596483      22500.598      174.72008      2802.5644      3307.2167      1918.5275     -628.08924      1125.1437    
 121302000   261.41546     -411.66429     -324.11284     -411.58865      0              1195.4584      31.164         21.490526      33.55732       22474.369      158.06799      2203.9898      1224.3174     -304.12567     -676.66714     -399.15185    
 121304000   259.6984      -415.18762     -328.21124     -415.0561       0              3298.9482      31.164         21.490526      33.3828        22357.487      3253.3051      2304.8042      4338.7354      290.8498       368.70122     -570.7036     
 121306000   251.52616     -413.43496     -329.19557     -413.28845      0              6667.5324      31.164         21.490526      33.215044      22245.137      6704.1327      6997.4441      6301.0205      20.506006      340.28632     -378.28308    
 121308000   259.50525     -413.3368      -326.42511     -413.22556      0              2194.6444      31.164         21.490526      33.360361      22342.46       1547.2635      2460.4936      2576.1761     -409.29675      39.598462      298.64059    
 121310000   256.52241     -411.25574     -325.34304     -411.15575      0              2895.3529      31.164         21.490526      33.236773      22259.689      2505.8063      2778.1754      3402.0769      359.74408     -799.07629     -1553.4964    
 121312000   255.08494     -412.67957     -327.2483      -412.55766      0              2524.6075      31.164         21.490526      33.188681      22227.48       2515.943       3216.8412      1841.0384      739.89596     -996.47631     -608.88958    
 121314000   259.96444     -411.02419     -323.95871     -410.90195      0              3467.2614      31.164         21.490526      33.201181      22235.852      4873.6657      1565.4362      3962.6824     -1774.6932     -0.72065825    -980.53768    
 121316000   259.85009     -414.29636     -327.26918     -414.17045      0              2570.104       31.164         21.490526      33.261689      22276.376      3108.9694      2047.682       2553.6606      1033.7377     -1289.9072      1468.5092    
 121318000   259.66812     -411.67083     -324.70459     -411.56499      0              3286.3754      31.164         21.490526      33.454054      22405.209      2326.5712      3130.155       4402.4         682.357        1636.6012      298.73606    
 121320000   256.00036     -413.29796     -327.5601      -413.1472       0              4821.346       31.164         21.490526      33.289326      22294.885      2812.521       7412.9748      4238.5421     -1766.5371      124.362       -962.72282    
 121322000   262.84269     -411.04854     -323.01909     -410.90809      0              2984.2946      31.164         21.490526      33.373819      22351.473      2397.1839      2938.7693      3616.9307      2228.2652      841.4113      -449.90864    
 121324000   265.63358     -410.00805     -321.0439      -409.89872      0              3846.3329      31.164         21.490526      33.346947      22333.476      5710.7853      4450.8913      1377.3222      2493.3477     -518.99924     -814.42672    
 121326000   260.1505      -410.98264     -323.85485     -410.87974      0              4376.1059      31.164         21.490526      33.344714      22331.981      5535.3785      4707.555       2885.3842     -1194.7897      499.79791     -1645.719     
 121328000   262.1817      -411.35649     -323.54842     -411.24463      0              2333.8214      31.164         21.490526      33.354666      22338.646      3482.2984      1770.1981      1748.9679     -66.313902      1378.2845      1602.7747    
 121330000   259.25115     -412.78046     -325.95387     -412.68176      0              3360.2462      31.164         21.490526      33.390507      22362.649      2738.622       1841.128       5500.9886     -1607.0983      286.04006     -781.90878    
 121332000   262.10451     -411.76198     -323.97976     -411.67637      0              2096.1065      31.164         21.490526      33.360456      22342.523      2959.5163      2808.8079      519.99531      201.88397     -312.82995      775.52077    
 121334000   260.65442     -411.51947     -324.22291     -411.43238      0              1519.2074      31.164         21.490526      33.336651      22326.581      244.03385      2305.304       2008.2843      729.70637      1755.5498      1146.7464    
 121336000   261.82442     -411.85145     -324.16304     -411.73204      0              4720.4776      31.164         21.490526      33.391562      22363.356      5035.9392      3865.6141      5259.8796      764.70292     -765.00485      2090.4982    
 121338000   262.9361      -409.53049     -321.46976     -409.42199      0              835.83962      31.164         21.490526      33.424688      22385.541      893.46297      1459.9098      154.14612     -354.87779      1067.731      -328.81633    
 121340000   259.5576      -413.88136     -326.95214     -413.73749      0              1759.3694      31.164         21.490526      33.29522       22298.832      3056.2986      364.80405      1857.0054     -116.16105      134.87607     -664.07799    
 121342000   260.91803     -411.4074      -324.02255     -411.26941      0              3265.9183      31.164         21.490526      33.353784      22338.055      4694.0667      1241.1322      3862.5559      1220.6886      418.31181      1085.4941    
 121344000   261.22402     -411.90272     -324.41539     -411.76939      0              3246.3968      31.164         21.490526      33.184919      22224.961      2972.0424      4150.5091      2616.6389     -346.65474     -498.46003     -540.23344    
 121346000   259.2764      -412.32534     -325.49029     -412.18152      0              3887.1441      31.164         21.490526      33.348834      22334.74       4593.3134      2385.5758      4682.5432      593.09775      410.16673     -1439.0897    
 121348000   261.96597     -409.3328      -321.59698     -409.228        0              4156.9661      31.164         21.490526      33.228527      22254.166      505.64918      5581.9129      6383.3364      426.24725      1084.4395      1393.9157    
 121350000   265.7259      -411.87906     -322.884       -411.73801      0              651.56496      31.164         21.490526      33.289005      22294.671      1637.0916     -942.91446      1260.5178     -244.33158     -1403.4348      1824.5973    
 121352000   255.86449     -412.05791     -326.36556     -411.89851      0              4285.6486      31.164         21.490526      33.179333      22221.219      5021.3961      2195.9997      5639.5499     -253.0364       1153.6956     -1157.603     
 121354000   257.46806     -411.45701     -325.2276      -411.35068      0              1963.543       31.164         21.490526      33.197965      22233.698      1182.5858      1781.642       2926.4013      1847.4575     -280.50005      755.79131    
 121356000   261.98268     -413.37537     -325.63396     -413.27962      0              2834.986       31.164         21.490526      33.137291      22193.063      4464.7602      2085.6535      1954.5443      1044.2242     -1148.6058      496.68724    
 121358000   257.7648      -411.58866     -325.25987     -411.46874      0              3050.2249      31.164         21.490526      33.173527      22217.331      3333.6225      5690.7268      126.32537      42.506358     -886.59162     -1365.3588    
 121360000   260.46911     -412.08085     -324.84635     -411.95429      0              5173.4089      31.164         21.490526      33.232538      22256.853      5966.2006      6366.661       3187.3652      2188.5975      808.93768      334.37397    
 121362000   251.86746     -408.28246     -323.92877     -408.14545      0              2221.2414      31.164         21.490526      33.084957      22158.013      2957.4006      1735.1558      1971.1679      378.95179     -1075.6625     -2123.0207    
 121364000   250.45531     -409.09571     -325.21496     -408.96745      0              1768.1225      31.164         21.490526      33.365774      22346.085      940.74494      2821.8418      1541.7807     -118.42752     -386.10038      510.3574     
 121366000   260.45693     -411.05078     -323.82036     -410.91257      0              2628.2236      31.164         21.490526      33.447464      22400.795      4653.5204      1009.3946      2221.7558      1791.7061     -1738.9572      479.22511    
 121368000   260.13768     -410.71577     -323.59227     -410.58045      0              4843.4283      31.164         21.490526      33.359693      22342.013      4572.1671      5824.2187      4133.8989      572.42895     -1253.961      -399.19613    
 121370000   266.11023     -410.41181     -321.28803     -410.27638      0              2933.9713      31.164         21.490526      33.246735      22266.361      3029.8911      2508.2428      3263.7802      1020.7702     -846.08799      201.43974    
 121372000   262.63469     -410.92344     -322.96366     -410.78869      0              4996.2095      31.164         21.490526      33.315949      22312.715      3349.5551      5484.6566      6154.4167     -722.74839      66.785178      317.28603    
 121374000   253.45684     -410.71715     -325.83115     -410.5692       0              2286.8263      31.164         21.490526      33.217632      22246.869      3071.8869      884.84114      2903.7509     -288.08756      48.360944      1982.8177    
 121376000   260.21025     -410.12211     -322.97431     -409.9756       0              3760.8628      31.164         21.490526      33.22843       22254.101      3430.1439      3517.733       4334.7114      460.50374      344.05259      505.39316    
 121378000   263.92549     -410.76269     -322.3706      -410.61645      0              3117.2861      31.164         21.490526      33.41571       22379.529      4206.0569      2528.4129      2617.3884      1261.8005     -531.10168     -1196.5128    
 121380000   261.42768     -409.22616     -321.67062     -409.11764      0              3956.1985      31.164         21.490526      33.23397       22257.812      2123.9567      3931.6797      5812.9589      811.57823     -401.94851      2300.9259    
 121382000   253.51249     -409.86175     -324.95711     -409.71746      0              5309.6844      31.164         21.490526      33.046659      22132.364      4459.628       3996.6462      7472.7789     -1387.9416      104.0021      -1293.3981    
 121384000   262.05019     -411.42971     -323.66569     -411.28255      0              2699.5187      31.164         21.490526      33.14194       22196.176      377.34456      3708.9239      4012.2876      2715.2294     -263.24186      240.89963    
 121386000   259.72588     -410.93822     -323.95264     -410.79285      0              4039.1325      31.164         21.490526      33.111194      22175.585      4901.7829      2781.8271      4433.7873     -1241.4364      1158.1887     -944.80855    
 121388000   259.10327     -408.91517     -322.1381      -408.78652      0              4653.9082      31.164         21.490526      33.199618      22234.805      3652.498       5500.1808      4809.046      -75.000045     -972.06837     -89.744581    
 121390000   264.22398     -414.57605     -326.08399     -414.41643      0              3348.1788      31.164         21.490526      33.378561      22354.649      3393.6026      4964.5833      1686.3503      445.69673     -415.42816     -524.12546    
 121392000   262.57962     -411.07409     -323.13275     -410.94298      0              3884.3833      31.164         21.490526      33.455135      22405.933      2551.6456      4573.1802      4528.3242      581.37936      2119.9828      175.81473    
 121394000   262.69996     -411.52701     -323.54537     -411.38764      0              3775.979       31.164         21.490526      33.408567      22374.745      3184.1716      4853.5712      3290.1942     -1706.7319      417.42916     -1317.152     
 121396000   260.70533     -411.17894     -323.86533     -411.03682      0              2447.3775      31.164         21.490526      33.449641      22402.253      3515.6705      1156.6434      2669.8185     -490.48015      1668.9752      707.87226    
 121398000   259.3647      -414.16738     -327.30276     -414.02884      0              2730.5216      31.164         21.490526      33.466804      22413.748      2296.4265      2245.1257      3650.0126      478.19861      346.53226      1022.026     
 121400000   260.41949     -410.54655     -323.32867     -410.46931      0              3761.8425      31.164         21.490526      33.421302      22383.274      4370.7668      5005.7376      1909.0231     -985.36597      189.95407     -789.62675    
 121402000   254.40592     -411.43009     -326.22623     -411.25865      0              2579.5582      31.164         21.490526      33.490652      22429.719      2806.0914      2649.0361      2283.5471      90.936418     -436.81762     -766.66432    
 121404000   262.04804     -410.44941     -322.6861      -410.27941      0              2608.1339      31.164         21.490526      33.429018      22388.441      2456.8373      2562.0709      2805.4936     -1025.1423      321.88611      35.182007    
 121406000   265.57771     -410.09981     -321.15437     -409.96038      0              1085.8162      31.164         21.490526      33.477987      22421.237      1050.6384     -983.36687      3190.1771     -734.82934      673.09225     -2315.6004    
 121408000   259.14745     -410.5895      -323.79764     -410.44489      0              3593.2827      31.164         21.490526      33.409426      22375.32       3270.2083      3674.916       3834.7239     -580.84471     -327.901        605.09548    
 121410000   261.77161     -410.25929     -322.58857     -410.12244      0              2179.2802      31.164         21.490526      33.734721      22593.18       2532.4891      1547.2081      2458.1435      504.77491      2124.4953     -339.98288    
 121412000   256.21997     -410.26603     -324.45462     -410.14597      0              1509.2076      31.164         21.490526      33.627544      22521.4        1579.5367      724.05893      2224.027      -1074.2923      273.69991      506.95428    
 121414000   256.66788     -412.5457      -326.58428     -412.39115      0              4316.4959      31.164         21.490526      33.679106      22555.933      5495.4429      4053.8675      3400.1774      730.81136     -322.85586     -2472.9373    
 121416000   264.89649     -412.805       -324.08772     -412.64626      0              3015.7114      31.164         21.490526      33.575904      22486.816      3110.189       1587.3214      4349.6237      645.93494     -320.4486      -1747.817     
 121418000   259.15291     -412.38933     -325.59564     -412.24487      0              2185.5152      31.164         21.490526      33.640436      22530.034      2283.6273      1911.395       2361.5234      719.72865      26.542067     -396.98847    
 121420000   255.20234     -412.85584     -327.38525     -412.69409      0              2244.869       31.164         21.490526      33.620952      22516.986      1876.6513      1262.2428      3595.7129      255.09524      1807.2454     -849.92475    
 121422000   252.10268     -407.98779     -323.55531     -407.87445      0              3639.8798      31.164         21.490526      33.405957      22372.997      5258.0789      1838.8068      3822.7537      1518.7755     -156.05965      869.74658    
 121424000   265.61482     -409.43594     -320.47807     -409.28002      0              3648.2043      31.164         21.490526      33.479763      22422.427      3240.7563      3754.6492      3949.2075     -673.7677       15.381397      485.77733    
 121426000   255.36815     -409.47939     -323.95327     -409.30726      0              2026.3713      31.164         21.490526      33.267075      22279.983      2374.8121      695.4702       3008.8316      1211.7173     -507.93773     -1296.9281    
 121428000   262.53683     -410.54131     -322.6143      -410.38995      0              4365.185       31.164         21.490526      33.474581      22418.956      6590.8768      3591.8762      2912.8021      2096.7372     -856.27675     -1090.7099    
 121430000   264.47808     -408.04033     -319.46317     -407.86848      0              4808.7973      31.164         21.490526      33.719345      22582.882      5917.8016      3516.3194      4992.2709     -428.98841     -2257.793      -725.40932    
 121432000   253.36673     -409.1629      -324.30708     -409.03799      0              2787.7637      31.164         21.490526      33.580579      22489.947      3479.4214      2127.9718      2755.8979      372.19893      466.40659     -9.4048858    
 121434000   258.14991     -413.40648     -326.94871     -413.24379      0              3769.7524      31.164         21.490526      33.498414      22434.918      4231.3222      4986.6607      2091.2743     -405.85612      955.30158     -1200.1294    
 121436000   259.86539     -410.5092      -323.47689     -410.36163      0              4043.0318      31.164         21.490526      33.606533      22507.329      5634.2846      4216.366       2278.4448      804.69186      538.63522     -1418.829     
 121438000   257.8293      -412.99805     -326.64766     -412.84144      0              2580.4024      31.164         21.490526      33.532588      22457.805      3608.8604      2206.432       1925.9149     -205.32129     -1267.4486      282.71702    
 121440000   264.04288     -412.79838     -324.36697     -412.64337      0              3412.4773      31.164         21.490526      33.579148      22488.988      3759.9302      3525.3011      2952.2006      1458.8321      116.84694     -748.08086    
 121442000   262.26869     -414.55691     -326.71971     -414.39161      0              2349.4052      31.164         21.490526      33.655949      22540.424      761.12286      3529.3537      2757.7389     -869.24526     -357.53131     -2304.1092    
 121444000   263.52843     -412.17136     -323.91226     -412.01272      0              1497.3375      31.164         21.490526      33.523728      22451.872      1565.4456      1462.1459      1464.4209      427.85115     -474.34334     -66.979224    
 121446000   259.60607     -410.33554     -323.39009     -410.1872       0              1270.0389      31.164         21.490526      33.576818      22487.427      1921.2931      2334.5823     -445.75886      1459.2411     -493.07062     -875.11614    
 121448000   269.6511      -410.29741     -319.98774     -410.12265      0              3747.1774      31.164         21.490526      33.553592      22471.872      3815.2677      4130.9747      3295.2899      229.3316      -2783.6585     -686.17385    
 121450000   265.14115     -410.49512     -321.6959      -410.32452      0              2081.2374      31.164         21.490526      33.646426      22534.046      1087.3448      2660.0119      2496.3555      1161.5651     -635.37554     -925.35465    
 121452000   251.85102     -410.90577     -326.55758     -410.73173      0              3466.2267      31.164         21.490526      33.341206      22329.631      2875.9102      2595.9967      4926.7732      2567.094       149.96373      1343.3545    
 121454000   260.64636     -409.1865      -321.89263     -409.0222       0              5768.8233      31.164         21.490526      33.509629      22442.429      4354.6004      7550.6286      5401.2409      1193.3099      892.16766      1140.8731    
 121456000   255.69617     -410.63297     -324.99699     -410.48765      0              1122.6041      31.164         21.490526      33.666096      22547.22       1412.9634      829.04351      1125.8052      782.06885      689.62541      717.38505    
 121458000   258.02225     -412.70906     -326.29404     -412.53935      0              2145.8536      31.164         21.490526      33.710893      22577.222      3086.4788      785.92737      2565.1547      400.20121     -2158.8003      653.68236    
 121460000   257.37056     -410.91284     -324.71608     -410.74741      0              2441.2622      31.164         21.490526      33.608699      22508.779      1854.8752      3026.2129      2442.6984      312.77329     -362.51814      695.96945    
 121462000   262.91356     -411.12124     -323.06806     -410.96913      0              2111.7751      31.164         21.490526      33.438176      22394.575      409.53512      1388.5683      4537.222      -54.457718     -294.17323     -2458.1755    
 121464000   256.93468     -409.2386      -323.18782     -409.10926      0              3373.6692      31.164         21.490526      33.318478      22314.409      2012.3098      2267.5154      5841.1823      1401.7104     -256.24584      178.9386     
 121466000   257.77394     -410.76097     -324.42912     -410.61204      0              344.76367      31.164         21.490526      33.503836      22438.549      1039.8522     -660.1887       654.62752      134.13833     -1791.696       297.01634    
 121468000   255.79858     -410.62875     -324.95847     -410.47613      0              2701.6825      31.164         21.490526      33.497271      22434.153      3694.7219      2122.443       2287.8827     -1283.8824     -234.91748      669.50718    
 121470000   257.02586     -407.72292     -321.64161     -407.61828      0              1758.9892      31.164         21.490526      33.660143      22543.233      1669.7264      2195.9798      1411.2615     -575.46435      306.75847     -1137.41      
 121472000   249.98838     -409.97812     -326.25376     -409.8684       0              1969.4081      31.164         21.490526      33.820381      22650.549      2077.7457      3534.1733      296.30512     -494.09171     -973.1685       5.7814335    
 121474000   256.3005      -411.65325     -325.81487     -411.51819      0              2932.7546      31.164         21.490526      33.77578       22620.679      2901.8739      2932.389       2964.001       70.658941     -573.79977     -686.65508    
 121476000   265.56074     -411.16631     -322.22655     -411.0296       0              3919.3693      31.164         21.490526      33.534316      22458.963      4417.8168      5078.4045      2261.8867     -238.73092     -499.20448     -1386.4511    
 121478000   261.34083     -411.20513     -323.67868     -411.03989      0              2439.7711      31.164         21.490526      33.441532      22396.822      1711.3241      3297.6582      2310.3311      1076.8825      722.51114      1055.8674    
 121480000   257.64594     -412.48397     -326.19498     -412.326        0              4489.4596      31.164         21.490526      33.489863      22429.191      3804.7049      6332.5306      3331.1432      830.78825     -382.33096      274.51657    
 121482000   258.6974      -409.42394     -322.78281     -409.27423      0              4573.5239      31.164         21.490526      33.588426      22495.202      3641.5945      6497.5611      3581.4162     -213.31352      694.54114     -981.42399    
 121484000   262.69566     -411.91607     -323.93587     -411.74563      0              2909.2637      31.164         21.490526      33.508385      22441.596      3995.9313      4368.4784      363.38141     -16.362785      1081.6553     -117.21673    
[...]
 128184000   253.09956     -409.80127     -325.03493     -409.6399       0              1601.155       31.164         21.490526      33.308019      22307.405      1482.9947      1310.6149      2009.8553     -1600.0992      633.73017      281.15746    
 128186000   263.23792     -412.34252     -324.18071     -412.19872      0              4490.7035      31.164         21.490526      33.438578      22394.844      3304.0075      4173.5628      5994.5402      656.47556      1060.7576     -423.14003    
 128188000   266.48935     -415.58842     -326.33766     -415.42035      0              4071.2436      31.164         21.490526      33.544152      22465.55       5370.158       3000.7112      3842.8615     -727.87725      101.80192      302.24741    
 128190000   265.10409     -414.57791     -325.7911      -414.43927      0              2332.0269      31.164         21.490526      33.507221      22440.816      1818.5129      2638.4438      2539.124       694.39587      276.85368     -541.37422    
 128192000   261.57448     -413.26989     -325.66519     -413.157        0              3969.6481      31.164         21.490526      33.560971      22476.814      3959.5817      5998.6982      1950.6643      269.86744     -77.699374     -727.51389    
 128194000   268.55329     -411.67932     -321.73733     -411.52384      0              3260.3525      31.164         21.490526      33.466933      22413.834      4414.5594      1521.8195      3844.6786      184.30195      738.73896     -1091.759     
 128196000   268.52085     -414.8051      -324.87397     -414.6575       0              3247.345       31.164         21.490526      33.475658      22419.678      2045.1538      4022.0245      3674.8568      650.12256      430.55092      653.49381    
 128198000   259.27965     -414.95606     -328.11992     -414.8004       0              3200.9594      31.164         21.490526      33.329999      22322.125      3283.2799      3096.1339      3223.4646     -767.99833      39.445372      332.06597    
 128200000   273.25287     -413.35599     -321.84004     -413.21033      0              1407.3179      31.164         21.490526      33.293029      22297.366      287.23812      2675.2091      1259.5064      621.82695      1641.86        866.68764    
 128202000   269.22165     -415.06199     -324.89615     -414.90854      0              2746.3219      31.164         21.490526      33.518151      22448.136      2286.3994      3871.9097      2080.6566     -1033.8454     -1121.5609      868.89281    
 128204000   261.46351     -411.8105      -324.24296     -411.66282      0              5376.0331      31.164         21.490526      33.517031      22447.387      5440.5079      7160.684       3526.9075      1023.3226      1330.9112      1669.0362    
 128206000   262.00281     -412.65726     -324.9091      -412.52392      0              3801.3859      31.164         21.490526      33.568953      22482.16       4316.1541      4433.0874      2654.9162     -1251.6854      1215.3709     -910.69253    
 128208000   264.48561     -412.49736     -323.91768     -412.36177      0              2043.754       31.164         21.490526      33.360183      22342.34       2615.559       779.16943      2736.5337      536.34503      673.97356      1070.4629    
 128210000   261.87078     -412.63431     -324.93037     -412.47082      0              1347.7524      31.164         21.490526      33.439057      22395.165      14.987643      1293.3547      2734.915       582.20468      1615.1759     -356.74475    
 128212000   258.64754     -411.79354     -325.16911     -411.66666      0              3342.048       31.164         21.490526      33.656996      22541.125      2312.5713      4847.6248      2865.9478      1488.2711     -41.618142     -132.65832    
 128214000   265.74844     -411.95322     -322.9506      -411.82784      0              1593.4821      31.164         21.490526      33.57377       22485.386      878.23791      1291.1553      2611.0532      437.80896     -30.594224      1152.6991    
 128216000   271.62315     -412.72426     -321.75412     -412.58221      0              3826.4473      31.164         21.490526      33.503951      22438.626      2794.6987      3378.3801      5306.2632      565.17367     -649.77492     -58.27024     
 128218000   256.68447     -411.1697      -325.20272     -411.02711      0              3081.819       31.164         21.490526      33.471861      22417.134      2034.5713      3313.1229      3897.7628      1305.1021      2342.7175      1188.5274    
 128220000   258.01721     -415.18437     -328.77104     -415.02474      0              3956.4265      31.164         21.490526      33.651471      22537.425      5318.5003      3137.2537      3413.5254      306.17729     -1390.9124     -948.82044    
 128222000   261.26523     -410.52435     -323.02322     -410.35584      0              5047.8105      31.164         21.490526      33.384127      22358.376      5722.8715      4620.7642      4799.7958      1627.5741     -1042.4287      727.37885    
 128224000   267.47918     -413.9083      -324.32603     -413.74077      0              3262.7271      31.164         21.490526      33.391507      22363.319      3533.786       2532.914       3721.4814      958.49515     -211.4238      -95.885008    
 128226000   262.21544     -410.50453     -322.68517     -410.36785      0              3944.0167      31.164         21.490526      33.46027       22409.372      4598.5873      3657.1531      3576.3097      1269.4259     -163.59889     -334.73       
 128228000   258.57707     -413.91564     -327.31481     -413.74934      0              1730.6815      31.164         21.490526      33.382947      22357.586      2582.0041      869.17353      1740.8669      626.14936      533.31798     -1602.3407    
 128230000   265.00049     -413.32395     -324.57184     -413.16456      0              2465.3249      31.164         21.490526      33.397084      22367.054      2429.2975      2508.9632      2457.7139      1247.3227      287.76786      1037.2321    
 128232000   263.27471     -412.39358     -324.21945     -412.22744      0              2708.2046      31.164         21.490526      33.350078      22335.573      4720.3324      2039.6666      1364.6149      662.19907     -324.5124       467.1892     
 128234000   256.70659     -413.01505     -327.04067     -412.8576       0              2653.6827      31.164         21.490526      33.521865      22450.624      2454.9508      2627.3473      2878.75       -412.03881     -602.10526      1070.8211    
 128236000   256.75854     -413.12316     -327.13138     -412.95554      0              2795.3689      31.164         21.490526      33.417863      22380.97       1856.8785      4264.0703      2265.1579     -103.47564      1460.094       2065.2089    
 128238000   259.74044     -410.4698      -323.47934     -410.34438      0              1730.306       31.164         21.490526      33.552665      22471.252      1919.6281      670.43175      2600.8581     -186.11665     -773.5697       946.91998    
 128240000   256.82081     -412.23824     -326.22561     -412.09549      0              5182.0803      31.164         21.490526      33.439535      22395.485      5287.8644      5068.8931      5189.4835     -115.35333     -583.46712     -240.9192     
 128242000   258.40546     -410.54625     -324.0029      -410.4046       0              3769.025       31.164         21.490526      33.43361       22391.517      3975.2853      5538.164       1793.6258     -2284.4193      1600.5606     -824.84957    
 128244000   258.25485     -412.33751     -325.8446      -412.17888      0              1555.5267      31.164         21.490526      33.508148      22441.437      1806.3403      1768.7199      1091.5198      1057.7381     -243.72709     -228.37367    
 128246000   264.45434     -413.80978     -325.24058     -413.65029      0              4099.5204      31.164         21.490526      33.506425      22440.283      5690.6529      3723.4814      2884.427      -451.12015      111.05106     -1872.9189    
 128248000   266.90812     -409.78159     -320.39058     -409.62049      0              2232.6417      31.164         21.490526      33.382465      22357.264      2673.5609      1625.4435      2398.9208     -115.28925     -670.86848      1252.257     
 128250000   262.21679     -412.04092     -324.2211      -411.87695      0              3801.7274      31.164         21.490526      33.270236      22282.1        3421.1101      3663.1087      4320.9635      1431.4067     -254.71801     -502.70458    
 128252000   257.52263     -411.52116     -325.27348     -411.3727       0              2495.1633      31.164         21.490526      33.224245      22251.299      4009.0809      721.36669      2755.0422     -1061.7528     -1241.2257      512.62685    
 128254000   264.57944     -410.86289     -322.25179     -410.71905      0              3607.5122      31.164         21.490526      33.213731      22244.257      3202.0452      4316.1752      3304.3163      162.79059     -97.666894      339.70991    
 128256000   255.93064     -409.59152     -323.87701     -409.44029      0              3016.7143      31.164         21.490526      33.4028        22370.883      2356.6618      2804.8934      3888.5877     -1361.1554     -711.36323      1066.4499    
 128258000   255.21634     -412.32359     -326.84831     -412.16591      0              2422.5615      31.164         21.490526      33.31446       22311.719      2258.9954      1743.4411      3265.2481      336.25301      883.64769      1924.1275    
 128260000   265.48516     -409.49754     -320.5831      -409.35412      0              1418.9236      31.164         21.490526      33.406188      22373.151      1163.5166      1429.2753      1663.9791      1322.9998      274.0445       682.5171     
 128262000   262.69458     -410.4775      -322.49765     -410.32372      0              1664.5131      31.164         21.490526      33.307142      22306.817      2503.2682      586.0257       1904.2455      1959.8151     -862.13819      85.201947    
 128264000   258.34038     -413.21491     -326.69335     -413.08522      0              2785.831       31.164         21.490526      33.41308       22377.767      3594.5795      1585.6643      3177.2493      855.96058     -448.42972      401.18764    
 128266000   258.89032     -411.3236      -324.61785     -411.17654      0              4641.3604      31.164         21.490526      33.427566      22387.469      5458.7793      5776.41        2688.8918      1084.7696     -1125.1353      1369.7821    
 128268000   261.41001     -411.60914     -324.05952     -411.45568      0              1514.7935      31.164         21.490526      33.539809      22462.641      1778.7444      2804.1121     -38.476139     -992.56034      1136.5087     -643.80142    
 128270000   255.55248     -411.14291     -325.55506     -410.99892      0              2351.5407      31.164         21.490526      33.369776      22348.765      2376.1954      1970.6475      2707.7793     -678.42173      426.26736     -720.95342    
 128272000   266.59077     -411.07835     -321.79362     -410.91001      0              2495.9961      31.164         21.490526      33.299788      22301.892      4589.7084      3438.2017     -539.92165      648.50763     -557.32506      848.79404    
 128274000   256.75419     -412.67129     -326.68096     -412.49934      0              4650.4895      31.164         21.490526      33.337272      22326.996      4058.2762      4921.5533      4971.6392      1237.4954      16.714495     -25.242344    
 128276000   256.71193     -413.87836     -327.90219     -413.71905      0              3743.4658      31.164         21.490526      33.186722      22226.169      4539.1527      2983.9074      3707.3375     -687.92945     -718.95085     -1345.8344    
 128278000   258.88935     -411.21674     -324.51132     -411.07284      0              2609.5277      31.164         21.490526      33.351588      22336.584      2584.4667      4019.7508      1224.3658      1554.2558      1120.4603      673.274      
 128280000   264.93542     -411.87464     -323.14432     -411.76679      0              2955.2         31.164         21.490526      33.30355       22304.412      1785.2727      2784.4661      4295.8611     -198.86221      1782.1033      638.09925    
 128282000   260.63602     -409.6326      -322.34221     -409.46452      0              2941.615       31.164         21.490526      33.333107      22324.207      2054.779       3182.6431      3587.4227      507.36931     -602.73028     -94.021092    
 128284000   255.2685      -411.07791     -325.58516     -410.91097      0              3148.3447      31.164         21.490526      33.207727      22240.236      3087.3012      2243.4266      4114.3064     -386.16915     -341.10444     -1642.2571    
 128286000   256.94552     -411.73798     -325.68358     -411.57742      0              1795.6522      31.164         21.490526      33.403304      22371.22       3803.8075      1936.9343     -353.7851       1239.0324     -825.45614     -615.75003    
 128288000   255.46975     -414.81069     -329.25054     -414.63889      0              1526.5064      31.164         21.490526      33.49808       22434.694      2708.4167      1597.5721      273.53046     -667.06047     -1285.2813      1088.9705    
 128290000   258.71201     -413.39052     -326.74449     -413.22462      0              3078.3861      31.164         21.490526      33.421004      22383.074      2990.6006      4212.465       2032.0926      410.71064     -656.55439     -1215.7596    
 128292000   262.37892     -411.85067     -323.97655     -411.68686      0              4227.2268      31.164         21.490526      33.292417      22296.955      2351.227       5350.9675      4979.4859      1733.163      -2367.1989     -686.33675    
 128294000   254.95206     -411.6846      -326.29783     -411.52112      0              2240.7628      31.164         21.490526      33.34321       22330.973      990.91426      2848.1204      2883.2536      742.7712      -303.7708      -128.90457    
 128296000   258.14825     -411.5721      -325.11489     -411.40903      0              2858.8656      31.164         21.490526      33.099913      22168.03       2977.432       3092.3452      2506.8195      1761.5922      207.95089      714.21329    
 128298000   249.57076     -412.00398     -328.41948     -411.83433      0              5041.5947      31.164         21.490526      33.150965      22202.221      4531.815       6058.0864      4534.8827     -297.36942     -469.95279      431.58931    
 128300000   260.08925     -411.54258     -324.4353      -411.37367      0              3184.9588      31.164         21.490526      33.062983      22143.296      2384.7606      3951.4366      3218.6792     -670.6796      -178.88498      963.56957    
 128302000   260.11662     -408.90041     -321.78397     -408.72908      0              2861.8961      31.164         21.490526      33.072611      22149.744      2818.2193      3301.0152      2466.4538      1008.2224      1374.7992      296.8395     
 128304000   266.14021     -412.06717     -322.93334     -411.89498      0              5579.5937      31.164         21.490526      32.981357      22088.629      3031.3106      7898.8121      5808.6584      1398.2048      455.14055     -144.78885    
 128306000   260.42724     -408.65016     -321.42968     -408.48356      0              1217.9399      31.164         21.490526      33.151336      22202.469     -388.79968      1356.8039      2685.8154      675.60358     -380.34342      677.05154    
 128308000   258.37428     -412.52963     -325.99671     -412.36836      0              3518.7334      31.164         21.490526      33.365011      22345.574      4641.1291      2842.5302      3072.541      -131.25536     -576.39054      278.2931     
 128310000   259.86221     -412.6934      -325.66215     -412.52118      0              3164.6393      31.164         21.490526      33.166253      22212.459      2720.0154      4296.8451      2477.0574      95.639643     -501.30185     -1159.3864    
 128312000   256.50802     -410.23428     -324.3264      -410.0619       0              2758.08        31.164         21.490526      33.188109      22227.097      826.15503      4581.2275      2866.8576      785.07328      463.08832      1534.7911    
 128314000   258.97176     -412.35606     -325.62305     -412.19577      0              988.77958      31.164         21.490526      33.438065      22394.5        771.42383      2126.5205      68.394373     -6.0852339     -302.68652      616.35895    
 128316000   264.15629     -412.58317     -324.11379     -412.41891      0              2294.5157      31.164         21.490526      33.259641      22275.004      2708.4107      2480.6743      1694.462      -1174.8871     -454.78805     -141.37152    
 128318000   258.4734      -411.10644     -324.54033     -410.95815      0              2244.1513      31.164         21.490526      33.320977      22316.083      4379.5154      1956.4978      396.44082      258.29734     -2267.4687      1224.2898    
 128320000   266.4358      -412.42197     -323.18914     -412.25646      0              3377.0753      31.164         21.490526      33.326004      22319.45       1727.9972      5808.8655      2594.3633     -350.25375      75.182852      854.75338    
 128322000   269.87943     -412.2269      -321.84076     -412.06052      0              3796.5803      31.164         21.490526      33.146569      22199.277      5323.9988      2490.002       3575.7402      851.50504      585.79786     -839.62448    
 128324000   258.41263     -410.97146     -324.42571     -410.82297      0              2277.523       31.164         21.490526      33.166868      22212.872      3817.7797      1475.3292      1539.4601      951.54815      246.00609      1369.1046    
 128326000   262.29822     -411.36612     -323.51903     -411.20947      0              3875.0721      31.164         21.490526      33.162938      22210.239      2619.0442      5454.5386      3551.6335     -166.76726      33.97552      -1441.9057    
WARNING: Wall time limit reached (../timer.cpp:193)
Loop time of 85793.8 on 4 procs for 7411000 steps with 2592 atoms

Performance: 3.732 ns/day, 6.431 hours/ns, 86.382 timesteps/s
1412.5% CPU use with 4 MPI tasks x no OpenMP threads

MPI task timing breakdown:
Section |  min time  |  avg time  |  max time  |%varavg| %total
---------------------------------------------------------------
Pair    | 20545      | 20768      | 20920      |  95.4 | 24.21
Bond    | 0.70665    | 0.73207    | 0.77186    |   3.0 |  0.00
Neigh   | 620.81     | 627.06     | 634.11     |  23.3 |  0.73
Comm    | 2345.7     | 2499.7     | 2725.2     | 278.2 |  2.91
Output  | 8077.8     | 8078       | 8078.6     |   0.4 |  9.42
Modify  | 53794      | 53799      | 53804      |   1.8 | 62.71
Other   |            | 20.83      |            |       |  0.02

Nlocal:            648 ave         663 max         627 min
Histogram: 1 0 0 0 1 0 0 0 0 2
Nghost:         4178.5 ave        4198 max        4157 min
Histogram: 1 0 1 0 0 0 0 0 1 1
Neighs:              0 ave           0 max           0 min
Histogram: 4 0 0 0 0 0 0 0 0 0
FullNghs:       160755 ave      167687 max      152595 min
Histogram: 1 0 0 1 0 0 0 0 1 1

Total # of neighbors = 643020
Ave neighs/atom = 248.0787
Ave special neighs/atom = 0
Neighbor list builds = 148220
Dangerous builds not checked
unfix 3
unfix 1
unfix 2


# Finalize simulation
write_restart	restart.lmp.${pid}
write_restart	restart.lmp.0
System init for write_restart ...
Generated 0 of 1 mixed pair_coeff terms from geometric mixing rule
write_data	data.final.${pid} nocoeff
write_data	data.final.0 nocoeff
System init for write_data ...
Generated 0 of 1 mixed pair_coeff terms from geometric mixing rule
Total wall time: 23:50:18
