LAMMPS data file via MDAnalysis

        2592  atoms
           0  bonds
           0  angles
           0  dihedrals
           0  impropers

           2  atom types
           0  bond types
           0  angle types
           0  dihedral types
           0  improper types

0.000000 31.164000 xlo xhi
0.000000 21.490526 ylo yhi
0.000000 31.684504 zlo zhi
-9.197534 0.775938 -10.632735 xy xz yz


Masses

1 1.008000
2 15.999000

Atoms

1 0 1 0.000000 12.698000 0.668000 6.521000
2 0 2 0.000000 13.554000 1.079000 6.352000
3 0 2 0.000000 12.845000 -0.203000 6.829000
4 0 1 0.000000 7.733000 -1.787000 14.433000
5 0 2 0.000000 7.546000 -0.984000 13.867000
6 0 2 0.000000 7.031000 -2.453000 14.173000
7 0 1 0.000000 13.579000 15.174000 1.002000
8 0 2 0.000000 14.068000 14.343000 1.060000
9 0 2 0.000000 13.217000 15.163000 0.122000
10 0 1 0.000000 7.851000 1.780000 8.524000
11 0 2 0.000000 7.628000 1.920000 7.593000
12 0 2 0.000000 8.067000 2.688000 8.755000
13 0 1 0.000000 -1.999000 6.327000 4.070000
14 0 2 0.000000 -2.731000 6.838000 4.439000
15 0 2 0.000000 -2.240000 5.380000 4.005000
16 0 1 0.000000 -0.259000 2.323000 15.647000
17 0 2 0.000000 0.694000 2.068000 15.573000
18 0 2 0.000000 -0.460000 2.909000 14.901000
19 0 1 0.000000 11.757000 8.314000 7.495000
20 0 2 0.000000 10.782000 8.490000 7.338000
21 0 2 0.000000 11.857000 7.399000 7.659000
22 0 1 0.000000 12.665000 5.835000 8.662000
23 0 2 0.000000 12.053000 5.852000 9.444000
24 0 2 0.000000 12.632000 4.929000 8.321000
25 0 1 0.000000 -1.529000 1.255000 8.999000
26 0 2 0.000000 -0.851000 1.006000 8.369000
27 0 2 0.000000 -1.205000 1.908000 9.654000
28 0 1 0.000000 7.899000 -3.457000 16.438999
29 0 2 0.000000 7.843000 -2.521000 16.235001
30 0 2 0.000000 8.571000 -3.880000 15.906000
31 0 1 0.000000 18.042000 14.337000 10.221000
32 0 2 0.000000 17.447001 13.667000 10.498000
33 0 2 0.000000 17.971001 14.435000 9.255000
34 0 1 0.000000 -2.184000 17.915001 7.985000
35 0 2 0.000000 -2.273000 17.018999 8.398000
36 0 2 0.000000 -1.712000 18.393999 8.643000
37 0 1 0.000000 14.462000 8.496000 11.249000
38 0 2 0.000000 14.938000 9.154000 10.775000
39 0 2 0.000000 13.507000 8.747000 11.234000
40 0 1 0.000000 1.578000 14.407000 13.806000
41 0 2 0.000000 0.992000 13.723000 14.103000
42 0 2 0.000000 1.316000 14.899000 13.046000
43 0 1 0.000000 20.582001 5.684000 11.415000
44 0 2 0.000000 20.851999 6.625000 11.372000
45 0 2 0.000000 21.188000 5.176000 10.875000
46 0 1 0.000000 11.168000 4.940000 5.322000
47 0 2 0.000000 10.985000 4.131000 4.807000
48 0 2 0.000000 10.392000 5.161000 5.870000
49 0 1 0.000000 0.572000 -0.202000 0.973000
50 0 2 0.000000 1.468000 -0.058000 1.315000
51 0 2 0.000000 -8.502000 20.669001 0.252000
52 0 1 0.000000 6.523000 10.358000 2.014000
53 0 2 0.000000 6.046000 9.952000 1.277000
54 0 2 0.000000 5.986000 11.090000 2.364000
55 0 1 0.000000 3.430000 18.999001 6.523000
56 0 2 0.000000 2.482000 18.695000 6.347000
57 0 2 0.000000 3.921000 18.408001 5.969000
58 0 1 0.000000 -0.785000 20.927999 1.558000
59 0 2 0.000000 0.080000 21.030001 1.131000
60 0 2 0.000000 -1.180000 20.094000 1.263000
61 0 1 0.000000 -1.481000 11.246000 2.493000
62 0 2 0.000000 -0.700000 11.726000 2.197000
63 0 2 0.000000 -2.110000 11.960000 2.759000
64 0 1 0.000000 -1.976000 7.482000 9.583000
65 0 2 0.000000 -2.333000 7.379000 8.722000
66 0 2 0.000000 -1.120000 8.017000 9.563000
67 0 1 0.000000 3.614000 17.584999 2.917000
68 0 2 0.000000 3.128000 18.458000 2.927000
69 0 2 0.000000 4.379000 17.778999 3.484000
70 0 1 0.000000 12.057000 6.728000 3.125000
71 0 2 0.000000 11.343000 6.237000 3.578000
72 0 2 0.000000 11.553000 7.507000 2.768000
73 0 1 0.000000 -5.376000 19.753000 1.789000
74 0 2 0.000000 -5.621000 20.649000 1.450000
75 0 2 0.000000 -4.415000 19.740000 1.727000
76 0 1 0.000000 20.888000 14.146000 7.348000
77 0 2 0.000000 21.556999 14.777000 7.720000
78 0 2 0.000000 20.100000 14.679000 7.437000
79 0 1 0.000000 23.493000 6.267000 6.725000
80 0 2 0.000000 22.923000 5.570000 6.390000
81 0 2 0.000000 24.465000 6.160000 6.438000
82 0 1 0.000000 21.103001 8.815000 1.108000
83 0 2 0.000000 21.655001 8.261000 0.521000
84 0 2 0.000000 21.749001 9.227000 1.728000
85 0 1 0.000000 10.696000 20.104000 2.308000
86 0 2 0.000000 11.402000 20.124001 1.685000
87 0 2 0.000000 19.417000 -0.581000 1.955000
88 0 1 0.000000 12.360000 19.808001 4.978000
89 0 2 0.000000 22.385000 -1.409000 5.337000
90 0 2 0.000000 11.994000 18.990000 5.418000
91 0 1 0.000000 11.784000 -2.326000 10.017000
92 0 2 0.000000 12.408000 -2.906000 9.570000
93 0 2 0.000000 11.147000 -2.004000 9.357000
94 0 1 0.000000 8.373000 -3.137000 10.545000
95 0 2 0.000000 7.451000 -3.111000 10.872000
96 0 2 0.000000 8.786000 -2.518000 11.145000
97 0 1 0.000000 12.142000 14.545000 14.311000
98 0 2 0.000000 12.343000 15.432000 14.618000
99 0 2 0.000000 11.300000 14.235000 14.668000
100 0 1 0.000000 22.448999 -2.734000 12.337000
101 0 2 0.000000 22.787001 -1.974000 12.814000
102 0 2 0.000000 22.760000 -2.802000 11.436000
103 0 1 0.000000 13.900000 4.870000 5.857000
104 0 2 0.000000 14.164000 5.545000 5.211000
105 0 2 0.000000 12.938000 4.915000 5.857000
106 0 1 0.000000 5.808000 6.190000 10.750000
107 0 2 0.000000 6.286000 6.595000 10.017000
108 0 2 0.000000 5.544000 6.960000 11.252000
109 0 1 0.000000 -0.003000 1.559000 13.067000
110 0 2 0.000000 -0.266000 0.747000 13.550000
111 0 2 0.000000 0.754000 1.881000 13.587000
112 0 1 0.000000 6.024000 5.859000 3.427000
113 0 2 0.000000 5.372000 5.196000 3.152000
114 0 2 0.000000 6.796000 5.901000 2.861000
115 0 1 0.000000 21.653000 1.306000 7.239000
116 0 2 0.000000 22.082001 2.004000 6.671000
117 0 2 0.000000 20.739000 1.399000 7.029000
118 0 1 0.000000 17.940001 12.790000 4.013000
119 0 2 0.000000 18.364000 11.919000 3.936000
120 0 2 0.000000 17.341000 12.609000 4.777000
121 0 1 0.000000 3.038000 3.045000 4.965000
122 0 2 0.000000 3.357000 3.663000 5.640000
123 0 2 0.000000 3.138000 3.576000 4.124000
124 0 1 0.000000 18.341999 5.257000 5.591000
125 0 2 0.000000 17.589001 5.833000 5.336000
126 0 2 0.000000 19.094999 5.641000 5.029000
127 0 1 0.000000 14.979000 14.986000 8.925000
128 0 2 0.000000 15.451000 15.305000 8.140000
129 0 2 0.000000 14.796000 14.052000 8.780000
130 0 1 0.000000 16.889000 5.370000 13.411000
131 0 2 0.000000 17.462000 4.666000 12.995000
132 0 2 0.000000 16.132999 5.580000 12.821000
133 0 1 0.000000 24.264000 12.843000 2.770000
134 0 2 0.000000 23.535999 13.292000 3.177000
135 0 2 0.000000 24.996000 12.967000 3.379000
136 0 1 0.000000 21.250999 4.976000 7.011000
137 0 2 0.000000 20.670000 5.720000 7.219000
138 0 2 0.000000 20.679001 4.267000 6.668000
139 0 1 0.000000 18.743999 1.367000 9.897000
140 0 2 0.000000 18.353001 2.193000 10.235000
141 0 2 0.000000 18.587999 1.351000 8.959000
142 0 1 0.000000 18.382000 4.096000 15.043000
143 0 2 0.000000 18.476000 5.047000 15.017000
144 0 2 0.000000 19.238001 3.734000 14.943000
145 0 1 0.000000 13.234000 2.900000 12.839000
146 0 2 0.000000 14.108000 2.494000 12.935000
147 0 2 0.000000 13.372000 3.816000 13.085000
148 0 1 0.000000 20.771999 11.837000 2.278000
149 0 2 0.000000 19.948000 11.459000 1.873000
150 0 2 0.000000 20.784000 12.788000 2.062000
151 0 1 0.000000 20.683001 5.204000 14.137000
152 0 2 0.000000 20.513000 5.144000 13.223000
153 0 2 0.000000 21.662001 5.382000 14.133000
154 0 1 0.000000 15.244000 16.167000 12.978000
155 0 2 0.000000 14.747000 15.882000 12.203000
156 0 2 0.000000 14.592000 16.051001 13.627000
157 0 1 0.000000 12.441000 5.831000 12.445000
158 0 2 0.000000 13.361000 5.821000 12.113000
159 0 2 0.000000 12.474000 6.501000 13.155000
160 0 1 0.000000 17.912001 8.098000 12.932000
161 0 2 0.000000 18.392000 8.193000 13.788000
162 0 2 0.000000 17.761000 7.126000 12.840000
163 0 1 0.000000 6.647000 15.566000 5.791000
164 0 2 0.000000 5.944000 15.440000 6.417000
165 0 2 0.000000 6.743000 14.755000 5.239000
166 0 1 0.000000 7.581000 2.342000 5.670000
167 0 2 0.000000 8.472000 2.207000 5.447000
168 0 2 0.000000 7.459000 3.334000 5.559000
169 0 1 0.000000 -0.043000 5.647000 7.033000
170 0 2 0.000000 -0.976000 5.296000 6.994000
171 0 2 0.000000 0.226000 5.335000 7.921000
172 0 1 0.000000 -3.938000 14.233000 4.893000
173 0 2 0.000000 -4.309000 13.334000 4.879000
174 0 2 0.000000 -2.972000 14.124000 4.802000
175 0 1 0.000000 -2.669000 15.770000 9.797000
176 0 2 0.000000 -3.067000 15.028000 9.265000
177 0 2 0.000000 -3.392000 16.245001 10.225000
178 0 1 0.000000 9.543000 15.684000 0.362000
179 0 2 0.000000 10.420000 15.520000 0.054000
180 0 2 0.000000 9.020000 14.872000 0.200000
181 0 1 0.000000 15.571000 1.802000 12.363000
182 0 2 0.000000 15.453000 1.488000 11.421000
183 0 2 0.000000 15.841000 1.034000 12.923000
184 0 1 0.000000 0.125000 9.042000 10.041000
185 0 2 0.000000 0.374000 9.855000 9.604000
186 0 2 0.000000 0.532000 9.112000 10.925000
187 0 1 0.000000 9.573000 12.505000 2.615000
188 0 2 0.000000 9.736000 11.680000 3.152000
189 0 2 0.000000 9.974000 13.299000 3.051000
190 0 1 0.000000 11.136000 5.362000 15.136000
191 0 2 0.000000 11.788000 4.908000 15.657000
192 0 2 0.000000 11.350000 6.293000 15.110000
193 0 1 0.000000 11.938000 4.839000 1.598000
194 0 2 0.000000 11.703000 5.564000 2.214000
195 0 2 0.000000 11.844000 5.305000 0.774000
196 0 1 0.000000 4.535000 8.804000 15.030000
197 0 2 0.000000 4.556000 8.760000 14.092000
198 0 2 0.000000 4.810000 7.947000 15.311000
199 0 1 0.000000 21.648001 18.812000 1.861000
200 0 2 0.000000 22.268000 19.511000 1.715000
201 0 2 0.000000 20.841999 19.346001 1.972000
202 0 1 0.000000 6.052000 -3.649000 13.653000
203 0 2 0.000000 6.372000 -4.568000 13.729000
204 0 2 0.000000 5.594000 -3.667000 12.805000
205 0 1 0.000000 26.242001 8.374000 1.056000
206 0 2 0.000000 26.832001 7.686000 1.400000
207 0 2 0.000000 25.556999 7.849000 0.693000
208 0 1 0.000000 4.369000 15.690000 7.352000
209 0 2 0.000000 3.831000 15.320000 8.055000
210 0 2 0.000000 3.764000 15.583000 6.600000
211 0 1 0.000000 2.207000 13.029000 6.075000
212 0 2 0.000000 1.490000 13.257000 6.658000
213 0 2 0.000000 1.987000 12.268000 5.465000
214 0 1 0.000000 3.090000 11.868000 12.411000
215 0 2 0.000000 3.176000 12.029000 13.365000
216 0 2 0.000000 3.958000 12.197000 12.132000
217 0 1 0.000000 6.016000 3.667000 0.829000
218 0 2 0.000000 6.694000 4.184000 1.295000
219 0 2 0.000000 6.357000 2.753000 0.718000
220 0 1 0.000000 4.299000 10.094000 5.804000
221 0 2 0.000000 4.135000 10.618000 6.623000
222 0 2 0.000000 3.558000 9.992000 5.244000
223 0 1 0.000000 10.642000 8.736000 1.626000
224 0 2 0.000000 10.814000 8.099000 0.880000
225 0 2 0.000000 9.694000 8.531000 1.919000
226 0 1 0.000000 -4.521000 10.924000 13.764000
227 0 2 0.000000 -5.324000 10.815000 14.325000
228 0 2 0.000000 -3.858000 10.413000 14.255000
229 0 1 0.000000 4.076000 11.456000 15.171000
230 0 2 0.000000 4.213000 12.391000 15.103000
231 0 2 0.000000 4.623000 11.048000 14.539000
232 0 1 0.000000 -3.296000 8.901000 15.423000
233 0 2 0.000000 -2.517000 8.639000 14.925000
234 0 2 0.000000 -3.801000 8.064000 15.447000
235 0 1 0.000000 13.339000 -0.377000 11.011000
236 0 2 0.000000 12.792000 -0.982000 10.416000
237 0 2 0.000000 13.625000 0.380000 10.489000
238 0 1 0.000000 9.007000 8.995000 7.294000
239 0 2 0.000000 8.210000 8.971000 7.861000
240 0 2 0.000000 8.829000 9.381000 6.427000
241 0 1 0.000000 9.864000 0.277000 14.934000
242 0 2 0.000000 9.083000 0.836000 14.818000
243 0 2 0.000000 9.945000 0.304000 15.895000
244 0 1 0.000000 26.653000 -0.201000 14.217000
245 0 2 0.000000 26.812000 -0.414000 13.279000
246 0 2 0.000000 27.487000 0.007000 14.698000
247 0 1 0.000000 9.250000 4.176000 13.363000
248 0 2 0.000000 9.873000 3.857000 12.721000
249 0 2 0.000000 9.767000 4.729000 14.015000
250 0 1 0.000000 -0.244000 9.110000 4.402000
251 0 2 0.000000 -0.472000 8.633000 5.211000
252 0 2 0.000000 -0.579000 8.606000 3.650000
253 0 1 0.000000 18.237000 -4.260000 15.132000
254 0 2 0.000000 18.261999 -3.368000 14.718000
255 0 2 0.000000 18.629999 -4.855000 14.525000
256 0 1 0.000000 7.375000 0.323000 12.988000
257 0 2 0.000000 7.991000 -0.138000 12.408000
258 0 2 0.000000 6.742000 0.779000 12.386000
259 0 1 0.000000 16.094999 14.575000 15.422000
260 0 2 0.000000 15.358000 14.449000 16.080000
261 0 2 0.000000 15.663000 14.213000 14.636000
262 0 1 0.000000 6.312000 11.056000 4.390000
263 0 2 0.000000 6.847000 11.525000 5.117000
264 0 2 0.000000 5.534000 10.699000 4.787000
265 0 1 0.000000 8.637000 4.686000 9.621000
266 0 2 0.000000 7.966000 4.431000 10.300000
267 0 2 0.000000 9.319000 5.190000 10.097000
268 0 1 0.000000 -1.295000 11.122000 13.063000
269 0 2 0.000000 -1.586000 10.216000 12.958000
270 0 2 0.000000 -1.717000 11.633000 12.415000
271 0 1 0.000000 2.459000 4.008000 13.568000
272 0 2 0.000000 3.275000 4.448000 13.804000
273 0 2 0.000000 1.977000 4.698000 13.080000
274 0 1 0.000000 0.418000 3.720000 2.744000
275 0 2 0.000000 0.620000 4.201000 3.569000
276 0 2 0.000000 0.243000 2.839000 3.034000
277 0 1 0.000000 20.492001 15.850000 13.414000
278 0 2 0.000000 20.871000 15.500000 12.605000
279 0 2 0.000000 20.101000 16.760000 13.238000
280 0 1 0.000000 13.166000 12.462000 11.232000
281 0 2 0.000000 12.585000 12.141000 10.543000
282 0 2 0.000000 14.023000 12.467000 10.836000
283 0 1 0.000000 26.771999 -4.614000 15.273000
284 0 2 0.000000 27.598000 -4.481000 14.836000
285 0 2 0.000000 17.250000 15.992000 14.991000
286 0 1 0.000000 20.400000 10.989000 14.425000
287 0 2 0.000000 20.099001 10.069000 14.546000
288 0 2 0.000000 19.570999 11.415000 14.233000
289 0 1 0.000000 22.042999 4.088000 9.616000
290 0 2 0.000000 21.959999 3.134000 9.737000
291 0 2 0.000000 21.545000 4.412000 8.879000
292 0 1 0.000000 -7.290000 16.875000 11.059000
293 0 2 0.000000 -6.720000 16.920000 10.270000
294 0 2 0.000000 -7.491000 15.965000 11.209000
295 0 1 0.000000 18.915001 10.250000 8.288000
296 0 2 0.000000 19.874001 10.305000 8.068000
297 0 2 0.000000 18.764000 9.939000 9.150000
298 0 1 0.000000 26.011999 -3.135000 12.993000
299 0 2 0.000000 25.618000 -2.355000 12.685000
300 0 2 0.000000 25.299999 -3.800000 13.117000
301 0 1 0.000000 -4.406000 9.552000 11.453000
302 0 2 0.000000 -5.119000 9.491000 10.731000
303 0 2 0.000000 -4.734000 10.145000 12.207000
304 0 1 0.000000 -0.508000 15.260000 11.498000
305 0 2 0.000000 0.288000 15.794000 11.390000
306 0 2 0.000000 -1.112000 15.733000 10.878000
307 0 1 0.000000 10.232000 1.337000 5.352000
308 0 2 0.000000 9.804000 0.586000 5.788000
309 0 2 0.000000 11.215000 1.201000 5.466000
310 0 1 0.000000 22.191999 18.360001 4.303000
311 0 2 0.000000 21.218000 18.365000 4.313000
312 0 2 0.000000 22.561001 18.489000 3.376000
313 0 1 0.000000 17.283001 9.349000 6.013000
314 0 2 0.000000 16.598000 9.977000 5.676000
315 0 2 0.000000 17.565001 9.752000 6.841000
316 0 1 0.000000 21.065001 11.186000 11.691000
317 0 2 0.000000 20.813000 11.143000 12.637000
318 0 2 0.000000 20.721001 11.966000 11.258000
319 0 1 0.000000 11.350000 11.441000 9.391000
320 0 2 0.000000 10.416000 11.652000 9.581000
321 0 2 0.000000 11.349000 11.460000 8.402000
322 0 1 0.000000 2.950000 6.486000 6.170000
323 0 2 0.000000 2.265000 6.291000 5.532000
324 0 2 0.000000 2.731000 7.280000 6.615000
325 0 1 0.000000 6.583000 20.559999 2.035000
326 0 2 0.000000 7.346000 20.290001 2.612000
327 0 2 0.000000 5.975000 20.014000 2.529000
328 0 1 0.000000 15.926000 12.597000 17.903000
329 0 2 0.000000 16.893000 12.639000 17.851000
330 0 2 0.000000 15.621000 12.576000 16.974001
331 0 1 0.000000 9.053000 6.014000 6.989000
332 0 2 0.000000 8.673000 5.429000 7.650000
333 0 2 0.000000 9.068000 6.923000 7.351000
334 0 1 0.000000 0.897000 16.556000 8.573000
335 0 2 0.000000 1.489000 16.129999 9.218000
336 0 2 0.000000 0.476000 17.290001 9.032000
337 0 1 0.000000 17.437000 12.439000 7.126000
338 0 2 0.000000 17.920000 11.841000 7.707000
339 0 2 0.000000 16.521000 12.254000 7.370000
340 0 1 0.000000 -4.628000 11.477000 4.724000
341 0 2 0.000000 -4.286000 11.005000 5.476000
342 0 2 0.000000 25.614000 11.383000 4.861000
343 0 1 0.000000 18.804001 -0.610000 4.734000
344 0 2 0.000000 19.420000 -1.289000 5.065000
345 0 2 0.000000 18.455000 -1.068000 3.958000
346 0 1 0.000000 4.966000 4.593000 14.784000
347 0 2 0.000000 5.580000 5.146000 14.229000
348 0 2 0.000000 4.561000 5.263000 15.313000
349 0 1 0.000000 24.291000 2.391000 6.010000
350 0 2 0.000000 23.719999 2.981000 5.496000
351 0 2 0.000000 24.277000 2.697000 6.991000
352 0 1 0.000000 16.194000 16.403999 6.341000
353 0 2 0.000000 15.985000 15.710000 5.703000
354 0 2 0.000000 16.391001 17.209000 5.852000
355 0 1 0.000000 21.316999 4.166000 1.470000
356 0 2 0.000000 21.528000 3.209000 1.512000
357 0 2 0.000000 22.254999 4.363000 1.700000
358 0 1 0.000000 16.226000 -1.299000 5.707000
359 0 2 0.000000 16.179001 -1.252000 6.670000
360 0 2 0.000000 17.073000 -0.858000 5.484000
361 0 1 0.000000 5.344000 8.933000 11.834000
362 0 2 0.000000 4.592000 8.445000 12.146000
363 0 2 0.000000 5.067000 9.399000 11.008000
364 0 1 0.000000 25.836000 4.042000 2.943000
365 0 2 0.000000 25.996000 4.960000 2.648000
366 0 2 0.000000 26.702000 3.630000 2.808000
367 0 1 0.000000 15.004000 7.246000 7.809000
368 0 2 0.000000 15.065000 7.164000 6.799000
369 0 2 0.000000 14.285000 6.646000 8.131000
370 0 1 0.000000 20.278000 -0.978000 11.921000
371 0 2 0.000000 20.059999 -1.128000 10.950000
372 0 2 0.000000 20.945000 -1.642000 12.194000
373 0 1 0.000000 15.474000 -1.278000 12.795000
374 0 2 0.000000 14.649000 -1.252000 12.273000
375 0 2 0.000000 15.296000 -1.096000 13.684000
376 0 1 0.000000 26.868000 -1.321000 6.941000
377 0 2 0.000000 26.805000 -0.383000 7.265000
378 0 2 0.000000 27.652000 -1.839000 7.187000
379 0 1 0.000000 -1.410000 17.606001 4.935000
380 0 2 0.000000 -1.944000 17.597000 5.759000
381 0 2 0.000000 -0.472000 17.537001 5.297000
382 0 1 0.000000 10.644000 -1.232000 7.873000
383 0 2 0.000000 10.473000 -0.406000 8.333000
384 0 2 0.000000 9.778000 -1.347000 7.463000
385 0 1 0.000000 6.978000 4.332000 12.099000
386 0 2 0.000000 7.760000 4.767000 12.550000
387 0 2 0.000000 6.517000 5.131000 11.720000
388 0 1 0.000000 15.012000 5.809000 11.420000
389 0 2 0.000000 14.827000 6.780000 11.366000
390 0 2 0.000000 15.260000 5.523000 10.554000
391 0 1 0.000000 4.349000 12.096000 7.974000
392 0 2 0.000000 4.987000 12.735000 8.328000
393 0 2 0.000000 3.588000 12.576000 7.594000
394 0 1 0.000000 -2.042000 8.675000 2.217000
395 0 2 0.000000 -1.818000 8.180000 1.422000
396 0 2 0.000000 -1.684000 9.544000 2.053000
397 0 1 0.000000 4.170000 13.928000 14.441000
398 0 2 0.000000 3.337000 14.258000 13.997000
399 0 2 0.000000 4.745000 13.662000 13.751000
400 0 1 0.000000 26.033001 5.284000 5.543000
401 0 2 0.000000 25.933001 5.997000 4.876000
402 0 2 0.000000 25.908001 4.565000 4.900000
403 0 1 0.000000 1.281000 -2.710000 12.898000
404 0 2 0.000000 1.405000 -3.056000 13.809000
405 0 2 0.000000 1.480000 -3.384000 12.250000
406 0 1 0.000000 25.384001 8.330000 9.371000
407 0 2 0.000000 24.426001 8.304000 9.500000
408 0 2 0.000000 25.489000 8.701000 8.453000
409 0 1 0.000000 0.945000 1.222000 7.237000
410 0 2 0.000000 1.865000 1.496000 7.462000
411 0 2 0.000000 0.588000 1.852000 6.586000
412 0 1 0.000000 19.530001 15.029000 4.038000
413 0 2 0.000000 19.611000 15.509000 3.205000
414 0 2 0.000000 18.850000 14.299000 3.947000
415 0 1 0.000000 16.003000 -4.093000 12.659000
416 0 2 0.000000 6.993000 16.749001 13.392000
417 0 2 0.000000 16.002001 -3.229000 13.061000
418 0 1 0.000000 20.035000 18.743000 7.388000
419 0 2 0.000000 30.037001 -2.169000 7.272000
420 0 2 0.000000 20.028000 18.412001 8.295000
421 0 1 0.000000 3.141000 2.721000 8.416000
422 0 2 0.000000 3.222000 2.481000 9.363000
423 0 2 0.000000 3.863000 3.325000 8.244000
424 0 1 0.000000 17.728001 14.779000 13.520000
425 0 2 0.000000 18.688000 15.042000 13.381000
426 0 2 0.000000 17.245001 15.315000 12.905000
427 0 1 0.000000 5.497000 17.964001 4.714000
428 0 2 0.000000 5.825000 17.061001 4.953000
429 0 2 0.000000 6.070000 18.677000 4.966000
430 0 1 0.000000 22.603001 3.776000 4.165000
431 0 2 0.000000 22.903999 4.659000 3.931000
432 0 2 0.000000 21.712000 3.921000 4.488000
433 0 1 0.000000 11.766000 17.334999 5.873000
434 0 2 0.000000 10.878000 17.261000 6.296000
435 0 2 0.000000 12.439000 17.228001 6.583000
436 0 1 0.000000 6.004000 -2.615000 30.573000
437 0 2 0.000000 6.791000 -2.072000 30.518000
438 0 2 0.000000 6.145000 -3.397000 31.059999
439 0 1 0.000000 4.411000 0.821000 5.806000
440 0 2 0.000000 5.147000 0.476000 5.327000
441 0 2 0.000000 4.212000 1.771000 5.589000
442 0 1 0.000000 3.757000 0.152000 14.796000
443 0 2 0.000000 3.093000 -0.397000 15.225000
444 0 2 0.000000 3.665000 -0.111000 13.844000
445 0 1 0.000000 -2.207000 5.508000 11.358000
446 0 2 0.000000 -3.125000 5.195000 11.443000
447 0 2 0.000000 -2.133000 6.237000 10.693000
448 0 1 0.000000 21.497999 10.575000 7.560000
449 0 2 0.000000 21.889999 9.743000 7.294000
450 0 2 0.000000 21.431999 11.186000 6.743000
451 0 1 0.000000 18.171000 16.945999 11.137000
452 0 2 0.000000 17.415001 17.417000 11.524000
453 0 2 0.000000 17.886000 16.093000 10.780000
454 0 1 0.000000 3.547000 16.308001 15.213000
455 0 2 0.000000 4.186000 15.767000 14.729000
456 0 2 0.000000 3.257000 15.736000 15.996000
457 0 1 0.000000 0.426000 3.355000 5.498000
458 0 2 0.000000 0.285000 4.219000 5.938000
459 0 2 0.000000 1.337000 3.435000 5.147000
460 0 1 0.000000 20.252001 8.436000 15.111000
461 0 2 0.000000 20.150999 7.525000 14.884000
462 0 2 0.000000 20.601999 8.285000 15.990000
463 0 1 0.000000 -2.012000 15.247000 13.634000
464 0 2 0.000000 -1.644000 15.289000 14.513000
465 0 2 0.000000 -1.292000 15.250000 13.035000
466 0 1 0.000000 -7.135000 17.799999 0.903000
467 0 2 0.000000 23.570999 17.096001 1.355000
468 0 2 0.000000 -6.921000 18.410000 1.623000
469 0 1 0.000000 -1.585000 8.363000 12.634000
470 0 2 0.000000 -0.761000 7.894000 12.840000
471 0 2 0.000000 -2.034000 7.683000 12.191000
472 0 1 0.000000 -2.798000 19.003000 2.250000
473 0 2 0.000000 -2.681000 18.056000 2.295000
474 0 2 0.000000 -3.579000 19.069000 2.813000
475 0 1 0.000000 24.802999 3.568000 8.433000
476 0 2 0.000000 25.312000 4.410000 8.281000
477 0 2 0.000000 23.976999 3.827000 8.832000
478 0 1 0.000000 -0.571000 6.143000 14.827000
479 0 2 0.000000 0.356000 6.326000 14.674000
480 0 2 0.000000 -0.645000 6.435000 15.718000
481 0 1 0.000000 8.051000 2.472000 15.322000
482 0 2 0.000000 8.427000 2.895000 14.537000
483 0 2 0.000000 7.087000 2.418000 15.229000
484 0 1 0.000000 10.043000 15.055000 8.738000
485 0 2 0.000000 10.665000 15.796000 8.826000
486 0 2 0.000000 10.233000 14.420000 9.437000
487 0 1 0.000000 24.858999 1.802000 15.065000
488 0 2 0.000000 25.101000 2.049000 15.979000
489 0 2 0.000000 25.593000 1.218000 14.864000
490 0 1 0.000000 13.304000 19.679001 2.370000
491 0 2 0.000000 14.143000 19.159000 2.314000
492 0 2 0.000000 12.932000 19.681999 3.244000
493 0 1 0.000000 3.692000 -0.128000 8.397000
494 0 2 0.000000 4.507000 -0.064000 8.862000
495 0 2 0.000000 3.787000 0.337000 7.535000
496 0 1 0.000000 9.835000 13.706000 6.446000
497 0 2 0.000000 9.848000 14.174000 5.630000
498 0 2 0.000000 9.777000 14.297000 7.153000
499 0 1 0.000000 27.799999 2.044000 2.667000
500 0 2 0.000000 28.121000 1.690000 1.805000
501 0 2 0.000000 27.200001 1.442000 3.026000
502 0 1 0.000000 7.493000 16.309000 2.992000
503 0 2 0.000000 6.759000 16.916000 2.784000
504 0 2 0.000000 7.276000 15.452000 2.591000
505 0 1 0.000000 22.573000 9.828000 3.513000
506 0 2 0.000000 23.237000 9.941000 2.830000
507 0 2 0.000000 21.996000 10.605000 3.498000
508 0 1 0.000000 -7.051000 13.726000 14.189000
509 0 2 0.000000 -6.111000 13.907000 14.385000
510 0 2 0.000000 -7.124000 12.796000 14.328000
511 0 1 0.000000 4.020000 4.230000 2.606000
512 0 2 0.000000 4.211000 3.277000 2.533000
513 0 2 0.000000 3.238000 4.461000 2.095000
514 0 1 0.000000 -0.834000 3.205000 10.905000
515 0 2 0.000000 -0.739000 2.677000 11.714000
516 0 2 0.000000 -1.339000 3.987000 11.076000
517 0 1 0.000000 15.789000 -0.609000 8.408000
518 0 2 0.000000 15.324000 -1.483000 8.559000
519 0 2 0.000000 16.370001 -0.620000 9.195000
520 0 1 0.000000 22.455000 14.501000 3.844000
521 0 2 0.000000 21.542999 14.369000 4.118000
522 0 2 0.000000 22.896999 15.126000 4.458000
523 0 1 0.000000 10.438000 6.437000 10.624000
524 0 2 0.000000 9.805000 6.915000 11.170000
525 0 2 0.000000 11.141000 6.245000 11.284000
526 0 1 0.000000 1.936000 10.677000 4.205000
527 0 2 0.000000 1.264000 10.026000 4.308000
528 0 2 0.000000 2.424000 10.457000 3.374000
529 0 1 0.000000 -5.269000 16.379999 3.763000
530 0 2 0.000000 -4.565000 15.737000 3.965000
531 0 2 0.000000 -5.299000 16.593000 2.864000
532 0 1 0.000000 16.427999 14.294000 2.034000
533 0 2 0.000000 16.542999 13.487000 2.458000
534 0 2 0.000000 16.108999 14.144000 1.146000
535 0 1 0.000000 1.290000 9.486000 12.906000
536 0 2 0.000000 1.724000 10.361000 12.728000
537 0 2 0.000000 0.922000 9.460000 13.783000
538 0 1 0.000000 12.143000 16.921000 9.048000
539 0 2 0.000000 13.022000 16.990000 8.632000
540 0 2 0.000000 12.302000 16.594999 10.000000
541 0 1 0.000000 21.576000 1.386000 9.922000
542 0 2 0.000000 20.612000 1.239000 10.028000
543 0 2 0.000000 21.676001 1.286000 8.954000
544 0 1 0.000000 15.870000 8.120000 2.702000
545 0 2 0.000000 15.579000 9.036000 2.605000
546 0 2 0.000000 16.711000 8.136000 2.234000
547 0 1 0.000000 20.424000 7.432000 7.770000
548 0 2 0.000000 20.313000 7.742000 6.847000
549 0 2 0.000000 19.482000 7.516000 8.100000
550 0 1 0.000000 19.608000 18.007999 4.884000
551 0 2 0.000000 19.885000 18.046000 5.855000
552 0 2 0.000000 19.657000 17.084999 4.631000
553 0 1 0.000000 16.384001 16.774000 0.818000
554 0 2 0.000000 15.991000 15.999000 1.159000
555 0 2 0.000000 17.482000 5.778000 31.618999
556 0 1 0.000000 9.806000 -3.559000 14.659000
557 0 2 0.000000 9.117000 -2.930000 14.469000
558 0 2 0.000000 10.557000 -2.995000 14.571000
559 0 1 0.000000 17.201000 9.750000 10.880000
560 0 2 0.000000 17.110001 9.019000 10.296000
561 0 2 0.000000 17.525999 9.352000 11.696000
562 0 1 0.000000 9.535000 9.533000 15.913000
563 0 2 0.000000 9.486000 8.564000 15.896000
564 0 2 0.000000 9.713000 9.725000 14.970000
565 0 1 0.000000 12.342000 11.469000 14.709000
566 0 2 0.000000 12.751000 11.205000 13.848000
567 0 2 0.000000 11.714000 12.190000 14.556000
568 0 1 0.000000 13.386000 15.831000 3.641000
569 0 2 0.000000 13.700000 16.179001 2.831000
570 0 2 0.000000 12.836000 16.546000 4.014000
571 0 1 0.000000 16.296000 12.248000 11.521000
572 0 2 0.000000 16.584000 11.425000 11.150000
573 0 2 0.000000 16.521000 12.186000 12.459000
574 0 1 0.000000 25.451000 9.507000 6.975000
575 0 2 0.000000 25.225000 10.388000 7.220000
576 0 2 0.000000 24.643999 9.114000 6.551000
577 0 1 0.000000 18.811001 1.071000 7.180000
578 0 2 0.000000 18.455000 1.814000 6.658000
579 0 2 0.000000 18.552999 0.197000 6.781000
580 0 1 0.000000 -0.952000 13.044000 9.713000
581 0 2 0.000000 -1.524000 12.195000 9.925000
582 0 2 0.000000 -1.085000 13.689000 10.401000
583 0 1 0.000000 19.445999 19.840000 2.127000
584 0 2 0.000000 19.650000 20.129999 3.069000
585 0 2 0.000000 19.083000 18.919001 2.214000
586 0 1 0.000000 19.936001 5.513000 3.176000
587 0 2 0.000000 20.502001 5.138000 2.431000
588 0 2 0.000000 19.382000 6.180000 2.766000
589 0 1 0.000000 26.889000 1.765000 5.215000
590 0 2 0.000000 25.959999 1.903000 5.355000
591 0 2 0.000000 27.290001 2.603000 4.884000
592 0 1 0.000000 -4.360000 9.642000 2.810000
593 0 2 0.000000 -4.237000 10.421000 3.370000
594 0 2 0.000000 -3.478000 9.420000 2.502000
595 0 1 0.000000 1.280000 19.176001 2.313000
596 0 2 0.000000 0.543000 19.760000 2.507000
597 0 2 0.000000 1.920000 19.716000 1.825000
598 0 1 0.000000 -5.666000 13.114000 11.282000
599 0 2 0.000000 -5.287000 13.279000 12.204000
600 0 2 0.000000 -6.012000 12.246000 11.389000
601 0 1 0.000000 -0.837000 -1.157000 13.254000
602 0 2 0.000000 29.966999 -1.009000 12.387000
603 0 2 0.000000 -0.022000 -1.608000 13.191000
604 0 1 0.000000 8.263000 5.235000 2.156000
605 0 2 0.000000 8.619000 4.393000 2.524000
606 0 2 0.000000 8.347000 5.442000 1.226000
607 0 1 0.000000 28.898001 3.728000 4.208000
608 0 2 0.000000 28.959999 3.248000 3.362000
609 0 2 0.000000 -1.576000 3.233000 4.676000
610 0 1 0.000000 17.771999 7.236000 9.066000
611 0 2 0.000000 17.881001 6.387000 9.524000
612 0 2 0.000000 16.902000 7.149000 8.653000
613 0 1 0.000000 4.011000 9.440000 0.709000
614 0 2 0.000000 5.060000 -1.791000 31.656000
615 0 2 0.000000 3.161000 9.021000 0.870000
616 0 1 0.000000 0.050000 1.119000 3.663000
617 0 2 0.000000 0.872000 0.544000 3.845000
618 0 2 0.000000 30.436001 0.519000 3.824000
619 0 1 0.000000 15.025000 10.929000 5.339000
620 0 2 0.000000 14.438000 10.456000 5.916000
621 0 2 0.000000 14.522000 11.239000 4.571000
622 0 1 0.000000 17.770000 12.073000 13.931000
623 0 2 0.000000 17.862000 13.033000 14.020000
624 0 2 0.000000 17.676001 11.729000 14.821000
625 0 1 0.000000 19.216000 2.691000 2.540000
626 0 2 0.000000 18.462000 2.207000 2.785000
627 0 2 0.000000 19.076000 3.518000 3.026000
628 0 1 0.000000 5.641000 1.952000 14.477000
629 0 2 0.000000 6.302000 1.443000 13.992000
630 0 2 0.000000 5.117000 1.282000 14.914000
631 0 1 0.000000 2.891000 14.970000 9.494000
632 0 2 0.000000 3.534000 15.195000 10.174000
633 0 2 0.000000 2.517000 14.072000 9.647000
634 0 1 0.000000 10.073000 10.398000 4.535000
635 0 2 0.000000 10.924000 10.066000 4.163000
636 0 2 0.000000 9.386000 9.697000 4.544000
637 0 1 0.000000 22.646000 15.705000 14.896000
638 0 2 0.000000 21.809999 15.606000 14.482000
639 0 2 0.000000 22.792999 14.815000 15.191000
640 0 1 0.000000 2.951000 5.833000 9.875000
641 0 2 0.000000 2.405000 5.150000 9.460000
642 0 2 0.000000 3.884000 5.585000 9.664000
643 0 1 0.000000 25.162001 4.372000 13.812000
644 0 2 0.000000 25.167000 3.604000 14.421000
645 0 2 0.000000 26.007000 4.756000 14.045000
646 0 1 0.000000 3.220000 7.389000 12.525000
647 0 2 0.000000 2.471000 7.979000 12.754000
648 0 2 0.000000 3.040000 6.911000 11.690000
649 0 1 0.000000 12.764000 2.942000 8.266000
650 0 2 0.000000 12.399000 2.453000 7.556000