LAMMPS data file via write_data, version 29 Sep 2021, timestep = 400000

1920 atoms
2 atom types

-0.04198285617410136 24.766387856174642 xlo xhi
-0.054382216366766656 24.778787216364492 ylo yhi
-0.049667455997958854 22.84203945599616 zlo zhi

Masses

1 1.008
2 15.999

Atoms # full

4 0 1 0 2.822064361711435 1.2373650416914737 2.1066666582263336 0 0 0
5 0 2 0 3.0148169150074704 1.5194404394605812 3.0156347689518648 0 0 0
6 0 2 0 3.4131964226636806 1.859552423018366 1.6348607968287774 0 0 0
17 0 2 0 1.2247270206831304 1.4631628184208307 2.071439996539151 0 0 0
99 0 2 0 0.03207925968794435 3.9919029790121963 3.785660182440138 1 0 0
16 0 1 0 0.19371817942699793 1.540009341952165 2.0148038043834 0 0 0
1455 0 2 0 1.4112434840490902 3.268923283779478 0.22966240325829568 0 0 1
21 0 2 0 3.838863685710606 3.825381919609108 0.8452173192674023 0 0 0
19 0 1 0 4.44160793869001 3.0747978363762645 0.9401244013785678 0 0 0
2 0 2 0 5.018413357434577 1.5283328061233057 3.779748514429807 0 0 0
46 0 1 0 6.374289802879399 1.6467628539699262 2.458909557027561 0 0 0
47 0 2 0 7.28495785312198 1.5921011692887894 2.243145426457817 0 0 0
48 0 2 0 6.088881713153307 2.484063464074661 2.130285128886074 0 0 0
1 0 1 0 4.21835003794839 1.5898947625611266 4.292543483673331 0 0 0
386 0 2 0 5.107431545185454 0.10714284520332734 1.2142109580278726 0 1 0
54 0 2 0 7.50960584788295 3.8384724584845746 0.7051558090529716 0 0 0
20 0 2 0 4.629748065910052 2.7242523307310185 0.06028399468406312 0 0 0
45 0 2 0 7.14795659545003 3.141138275527972 4.156917609669744 0 0 0
32 0 2 0 11.692117262046754 1.5491345942661974 3.5689836176989327 0 0 0
34 0 1 0 9.148034008692118 1.5642038019685862 2.0857432339080035 0 0 0
35 0 2 0 9.604720206919788 1.519060584767789 2.928947487198435 0 0 0
36 0 2 0 9.507006643959645 2.325080092681741 1.5901643061372488 0 0 0
49 0 1 0 10.647989050715472 3.1734597626240197 0.5159945744062928 0 0 0
51 0 2 0 11.383549820393444 2.961861346769468 1.1154193047276966 0 0 0
31 0 1 0 10.894451395917553 1.3460035621086988 4.085108609952081 0 0 0
416 0 2 0 10.07537424423307 0.13807818251219797 1.3489750745686317 0 1 0
42 0 2 0 9.035906164123606 3.73338073048368 4.23933478781172 0 0 0
78 0 2 0 12.072607544734561 0.7505575618660746 1.5676898396141514 0 0 0
38 0 2 0 12.487801135866976 3.5272152236747796 3.8259843222053305 0 0 0
76 0 1 0 12.404889524043362 1.6323790460157503 1.9415593050593811 0 0 0
64 0 1 0 15.155133033390229 1.4100156894216176 1.887571631386496 0 0 0
65 0 2 0 15.524726463459467 1.3469268175189324 2.796807259129714 0 0 0
66 0 2 0 15.627356055370223 0.6992489243105903 1.3376790059500105 0 0 0
77 0 2 0 13.345856603633209 1.4814091313077329 1.7433958265003069 0 0 0
80 0 2 0 16.085660155462065 2.8702725194220937 0.8853501240792744 0 0 0
75 0 2 0 14.425562591240245 2.8619273612877936 4.4227895036761184 0 0 0
79 0 1 0 16.861138605627776 3.3345750113518617 0.6005625262760798 0 0 0
106 0 1 0 18.32136911744118 1.5631534716517375 2.154947093325509 0 0 0
107 0 2 0 19.30462526028463 1.665086063165734 2.22076181240656 0 0 0
108 0 2 0 18.037756901464306 2.262084743482537 1.5099455459451683 0 0 0
62 0 2 0 17.375350807499835 1.627787710603037 3.681723728644245 0 0 0
61 0 1 0 16.586399020168265 1.6221108245053453 4.223139541798669 0 0 0
105 0 2 0 20.450247999894504 3.3590661878800314 4.27561557272339 0 0 0
446 0 2 0 17.640091065879343 0.2074762586098865 1.0363005000685783 0 1 0
1545 0 2 0 19.636036349656898 3.739200748490672 0.09810544165533205 0 0 1
18 0 2 0 24.723807923286163 0.8666793445761165 1.4304346474221414 -1 0 0
92 0 2 0 23.734286221215612 1.5530172217684661 3.4635202737548756 0 0 0
94 0 1 0 21.244676882175746 1.5260343928936062 1.9749491218420903 0 0 0
95 0 2 0 21.712283747365845 1.581353278513657 2.7951588699243493 0 0 0
96 0 2 0 21.616929681471323 2.2544352325602794 1.4430954926068076 0 0 0
109 0 1 0 22.934829216801507 3.215097934320105 0.6282957235804134 0 0 0
110 0 2 0 23.56898513464298 2.756965827377607 1.1891584422653187 0 0 0
91 0 1 0 23.000471802716312 1.6273665356587526 4.070253064964995 0 0 0
476 0 2 0 22.663589493453863 0.16552573065811446 1.1119374838378406 0 1 0
93 0 2 0 22.94047899546876 0.7212554976858021 4.472237257402977 0 0 0
11 0 2 0 2.980824064035753 4.09896058422539 4.1964510357601235 0 0 0
24 0 2 0 2.2776675754287914 4.7529272449923905 2.1124258201450883 0 0 0
10 0 1 0 3.1980786701859913 4.760406061536124 3.543027786927012 0 0 0
22 0 1 0 1.691559841359525 4.516647688921251 1.3821619443533513 0 0 0
23 0 2 0 1.5956362062413645 5.321698185480184 0.8386433696407622 0 0 0
126 0 2 0 1.9480317174636872 7.79404988672547 2.252836472827405 0 0 0
124 0 1 0 2.8992431755781705 7.8593862922037285 2.1930513305369126 0 0 0
149 0 2 0 1.9641222634552729 5.969453836296064 4.488475298371826 0 0 0
27 0 2 0 3.560314697422006 6.304451661741245 1.132482168938325 0 0 0
122 0 2 0 3.980259891029669 7.764952230024075 3.422454190306442 0 0 0
136 0 1 0 0.2048324004176462 7.737497300699321 2.2264155495678777 0 0 0
150 0 2 0 0.4736110381322285 6.19489111934844 4.455027650589728 0 0 0
12 0 2 0 4.1720824894274475 4.739458267141734 3.3873988993821205 0 0 0
25 0 1 0 4.2434729518585526 5.925041739476242 0.5545429498566701 0 0 0
7 0 1 0 5.916556938690805 4.608706464300745 3.4897431413724433 0 0 0
8 0 2 0 6.331391314026892 4.639033936532067 2.6160519644459654 0 0 0
52 0 1 0 7.431908282474345 4.698370054127993 1.2163557113460068 0 0 0
168 0 2 0 5.86760823497269 6.938786445209041 1.6100983858966014 0 0 0
9 0 2 0 6.427608371487076 5.300282558148663 4.013318315408038 0 0 0
166 0 1 0 6.284818081991557 7.692913795156257 2.032964092051979 0 0 0
167 0 2 0 6.038466592756164 7.86150210020881 2.969571123643523 0 0 0
121 0 1 0 4.608426680548791 7.653522051000761 4.15274712014692 0 0 0
156 0 2 0 8.12243341460685 7.7916852168151305 1.9498031740179524 0 0 0
1619 0 2 0 7.789198268687924 5.912320732093321 -0.04941515632030402 0 0 1
53 0 2 0 8.183337299766468 4.665498259222224 1.8302677563848981 0 0 0
50 0 2 0 10.532876559432372 4.124319218051011 0.49201724061440777 0 0 0
41 0 2 0 10.173355475086575 4.446336935991282 3.4208728106666055 0 0 0
40 0 1 0 9.244630647018809 4.458587492760051 3.582315655478579 0 0 0
55 0 1 0 10.551421977088479 6.046113423769963 0.40711604194907547 0 0 0
56 0 2 0 9.907719105888278 6.515166565596873 1.0054509207211801 0 0 0
57 0 2 0 11.359870736378806 6.373096019272715 0.8157743946593392 0 0 0
152 0 2 0 10.261414075587831 7.681316105510448 3.444669102949609 0 0 0
154 0 1 0 9.042427468040662 7.751147454134431 2.225280804227755 0 0 0
153 0 2 0 11.809832125745551 7.444488858285983 3.4591375341452033 0 0 0
180 0 2 0 8.554891710076479 5.774346357381125 4.336632189054828 0 0 0
151 0 1 0 11.046724348446789 7.656115322777349 4.0361886108843015 0 0 0
37 0 1 0 12.202458905850586 4.2557117321500195 3.3183422441942896 0 0 0
39 0 2 0 12.488160162758797 5.009409648996957 3.8221300802000644 0 0 0
196 0 1 0 12.689212159938453 7.3106545911657195 1.920535526811644 0 0 0
72 0 2 0 15.035238886018025 4.197843100684003 2.7603992994347544 0 0 0
83 0 2 0 13.105278013887052 4.838416333663833 1.831914345318063 0 0 0
82 0 1 0 13.830469859171235 4.594652960191069 1.2790583622933274 0 0 0
70 0 1 0 15.294548960624391 4.370557004328172 3.6794982194078067 0 0 0
84 0 2 0 13.97626851280318 5.29840233046524 0.6545958130654913 0 0 0
186 0 2 0 15.903655345621019 7.583151501363414 3.2061514135738793 0 0 0
198 0 2 0 13.600854211204586 7.329473350658645 2.137053769947378 0 0 0
184 0 1 0 15.272847531477492 7.7123804069325335 2.509501784425473 0 0 0
71 0 2 0 14.701572185810523 5.022593425623471 4.045391513152899 0 0 0
86 0 2 0 16.185935153044298 6.3246512305315985 1.3889448014182286 0 0 0
68 0 2 0 18.145872446273334 4.202558759487663 4.050427875391479 0 0 0
87 0 2 0 16.78157203259767 5.1206907012908935 0.6630180125164225 0 0 0
69 0 2 0 16.87060198865898 4.9030457251769874 3.8218369429426398 0 0 0
113 0 2 0 18.66689489400931 4.820601116276384 2.0622882696249945 0 0 0
112 0 1 0 19.424844163878696 4.93094556999121 1.5026358246473794 0 0 0
67 0 1 0 17.81524439748817 5.0451929609576895 3.694325960581394 0 0 0
85 0 1 0 16.916800757968925 6.0490443378312495 0.8277656321693122 0 0 0
228 0 2 0 18.42780385058651 7.0846098723787305 1.7508369271766444 0 0 0
226 0 1 0 18.82068711843521 7.912203035171458 2.108702655437745 0 0 0
183 0 2 0 17.884298782139325 7.799193656506597 3.559858659959777 0 0 0
181 0 1 0 17.189106974601287 7.811868174753771 4.238242750384012 0 0 0
240 0 2 0 19.39553120791419 6.026030890849753 4.493722421890529 0 0 0
1679 0 2 0 19.842770230441545 6.164839183604451 0.1293185398530335 0 0 1
114 0 2 0 20.136745688363142 4.690885536240011 2.152865234084118 0 0 0
111 0 2 0 23.11687657062732 4.14189602510227 0.648667276261001 0 0 0
98 0 2 0 24.64239880582222 4.873234573592654 2.63704265295235 0 0 0
137 0 2 0 24.600137338480128 7.782486770602904 3.115908786656696 -1 0 0
216 0 2 0 20.632670898114597 7.856327720142624 2.115737179337495 0 0 0
102 0 2 0 22.48663782594979 4.39280872413432 3.338314931854077 0 0 0
138 0 2 0 24.57704982758023 7.0849572623993575 1.6344219610934732 -1 0 0
97 0 1 0 24.336358319486855 4.770295909964137 3.539082215376162 0 0 0
100 0 1 0 21.518814720889015 4.457202148884673 3.308552415171291 0 0 0
115 0 1 0 23.425464222102324 6.114357465098361 0.6413941322314503 0 0 0
116 0 2 0 22.712492277534523 6.586064833898713 1.1345870316716733 0 0 0
214 0 1 0 21.562593558841396 7.832585333274224 1.9902016500159543 0 0 0
101 0 2 0 21.251415460499995 5.205201908908868 3.876670133954364 0 0 0
213 0 2 0 22.51828268547464 8.03907350174726 3.4605109606188322 0 0 0
211 0 1 0 23.110972733572723 7.730425305594368 4.194716319579255 0 0 0
125 0 2 0 3.155031496769851 8.638252807476148 1.7136403630054422 0 0 0
130 0 1 0 3.28772035159277 10.987445150190855 3.591896576524098 0 0 0
142 0 1 0 1.4398159009271236 11.012692466962221 1.6062206705568873 0 0 0
143 0 2 0 2.270560236827363 11.089328664028693 2.0949254892441207 0 0 0
144 0 2 0 1.5717689961175327 10.368896069807546 0.8820813141322327 0 0 0
219 0 2 0 0.30542102032053775 10.776566425683924 2.9223646651275046 1 0 0
218 0 2 0 0.07944466875845001 10.066465761481444 4.269023246454155 1 0 0
132 0 2 0 2.859208885523053 11.598616909825969 4.220290514953084 0 0 0
131 0 2 0 4.2330732800010145 10.959904551179353 3.75465668830476 0 0 0
141 0 2 0 4.908564562126571 10.594737626233828 0.6401540561083328 0 0 0
139 0 1 0 4.639527591133032 9.666774410455265 0.5932135434384332 0 0 0
127 0 1 0 5.893560608151996 10.638576916132186 3.4491162355491967 0 0 0
129 0 2 0 6.590735183103729 10.725502184689887 2.714657716439198 0 0 0
140 0 2 0 5.378189516963345 9.212759304857816 1.047581039703889 0 0 0
172 0 1 0 7.840854848113792 10.92335244154583 1.3253555416749112 0 0 0
173 0 2 0 8.061567873135626 10.192993070097518 0.6564925557702846 0 0 0
128 0 2 0 6.208826052628208 9.856642721416998 4.03778819235788 0 0 0
300 0 2 0 6.78907953431463 11.78158361860792 4.452707459433342 0 0 0
145 0 1 0 4.744624998024192 12.329340065462054 0.7450082146947963 0 0 0
1740 0 2 0 7.555889971001445 12.006658118433963 0.05306632453455956 0 0 1
174 0 2 0 8.647277888461062 11.082170207556704 1.824592800911486 0 0 0
155 0 2 0 9.494507655904677 8.534281349434403 1.8855212815716158 0 0 0
160 0 1 0 9.57161604160985 10.846202574478584 3.4450783376722525 0 0 0
161 0 2 0 10.53090929832107 11.064687484984947 3.631258314714815 0 0 0
169 0 1 0 11.00117970820264 9.474932413754177 0.9515173631812373 0 0 0
171 0 2 0 11.097645107457346 10.417270675232192 1.0052895619509512 0 0 0
157 0 1 0 12.116563087268577 11.215753378685777 3.8594246145825655 0 0 0
162 0 2 0 9.05239934004724 11.601297111486485 3.712309007901898 0 0 0
175 0 1 0 10.69049953323964 12.197573980102907 0.8429610245127545 0 0 0
170 0 2 0 10.872868107418691 9.13342544184024 0.044299578126245354 0 0 0
165 0 2 0 8.53957750730526 9.384604436768146 4.4541234246310575 0 0 0
197 0 2 0 12.477786090850802 8.251432199309031 1.8060772706300592 0 0 0
158 0 2 0 12.494421068665536 10.395151344295074 4.201341792958095 0 0 0
159 0 2 0 12.608714790015455 11.242734302450971 3.019252716753658 0 0 0
185 0 2 0 15.46996198363384 8.593698859326498 2.112685624453347 0 0 0
190 0 1 0 15.65242366535385 10.76990878957919 3.6656935823930357 0 0 0
192 0 2 0 15.261784916022247 10.868649478180068 2.793803301345305 0 0 0
202 0 1 0 13.926088744117118 10.675255741419775 1.6356720413679633 0 0 0
203 0 2 0 13.795914964126572 11.452557350417578 1.0486769270220642 0 0 0
204 0 2 0 13.805756663458475 9.972729461675684 0.9457953336002967 0 0 0
194 0 2 0 14.551375320803992 9.110532819766446 4.4075408056719585 0 0 0
191 0 2 0 16.626983140541444 10.9395559109369 3.435234986443683 0 0 0
227 0 2 0 18.32955718539549 8.54741103117743 1.5377751491939566 0 0 0
200 0 2 0 17.060537599779575 10.562724220892179 0.7554015697407113 0 0 0
187 0 1 0 18.431393386838835 10.89621828916899 3.188076386329289 0 0 0
189 0 2 0 18.953676230970512 11.571967222053953 3.6768012458269546 0 0 0
199 0 1 0 17.18683075901927 9.627233124852447 0.7740547924773311 0 0 0
234 0 2 0 20.419171847812486 10.13280755188154 0.728983331585827 0 0 0
188 0 2 0 18.601407127521806 10.094487626223318 3.6908493338341346 0 0 0
233 0 2 0 19.63546758663094 10.767982347409161 2.0259868942209014 0 0 0
205 0 1 0 16.945040340893453 12.164129865659199 0.6738799660089788 0 0 0
232 0 1 0 20.374103918494757 10.890176011742863 1.389587895427543 0 0 0
207 0 2 0 17.80218184281896 12.343153485797673 0.975729014972641 0 0 0
215 0 2 0 21.73081964019267 8.557039973809871 1.4326612103544665 0 0 0
217 0 1 0 24.471900818722663 10.755086685426487 3.7019746253037136 0 0 0
220 0 1 0 21.860124453174926 10.754137900908807 3.5968675140588817 0 0 0
221 0 2 0 22.83084998703065 10.910683046489648 3.55062243223626 0 0 0
230 0 2 0 23.723678283005235 9.32136945963304 1.368365021021129 0 0 0
229 0 1 0 23.38771674987936 9.741215106244226 0.5795080301857934 0 0 0
231 0 2 0 23.467798097854118 10.66322260286413 0.8863485289178317 0 0 0
222 0 2 0 21.58441488327709 10.742446582552503 2.6854959377292458 0 0 0
235 0 1 0 23.353562996465353 12.25665006970082 0.8857612871950228 0 0 0
360 0 2 0 20.92259561586997 12.343225652961927 4.346075693297301 0 0 0
225 0 2 0 20.672086511329425 9.545286125205845 4.484001819784819 0 0 0
1709 0 2 0 1.7315244720512197 12.519993584802794 0.40488797612758726 0 0 1
244 0 1 0 2.9904252925532524 14.070057057228887 2.301049068999012 0 0 0
245 0 2 0 1.9936189777216469 14.078828628801036 2.2911461628194987 0 0 0
246 0 2 0 3.298702794527199 13.300890604004627 1.7165302910544544 0 0 0
256 0 1 0 0.42083560424555966 13.623855727815045 2.2741660786779816 0 0 0
251 0 2 0 2.9108282131677505 16.17769115809412 4.366401911799587 0 0 0
242 0 2 0 3.9111889890553226 14.282778478742554 3.751892837607777 0 0 0
260 0 2 0 4.070484255369871 15.245516125202384 1.3904381479802104 0 0 0
1694 0 2 0 1.6928889445366377 15.825622737648494 0.46957183319833196 0 0 1
258 0 2 0 0.02031697266170268 12.957686697599188 1.6364823782577826 0 0 0
147 0 2 0 5.514603791069461 12.675830862949098 1.2138333862957391 0 0 0
259 0 1 0 4.739630624292528 15.633244420137679 0.7942061135178418 0 0 0
286 0 1 0 6.382995477588078 13.768290988971785 2.1316709075530063 0 0 0
287 0 2 0 5.963596766352142 13.768235636264986 2.969920103652703 0 0 0
288 0 2 0 6.045759767840883 14.609329966362308 1.6641073525708547 0 0 0
248 0 2 0 6.215227164037346 16.094941491925283 4.420482107071191 0 0 0
276 0 2 0 7.992399555167324 13.988807551295812 2.2825601573280916 0 0 0
1725 0 2 0 7.923013192607315 15.416718970203943 0.43457382251870114 0 0 1
176 0 2 0 9.927786322215903 12.669551422539785 1.2379759572034508 0 0 0
272 0 2 0 11.542010107863607 13.97773204959811 3.781039245802848 0 0 0
274 0 1 0 8.970594084443949 14.116367183892551 2.1608057835522336 0 0 0
275 0 2 0 9.398275762652263 14.089597267535837 3.055253565276454 0 0 0
289 0 1 0 11.085637731446663 15.470539446321753 0.8182658056571375 0 0 0
291 0 2 0 10.137123167608092 15.243758531113262 1.1580564297585434 0 0 0
271 0 1 0 10.750795679467638 14.021904643609856 4.374191543998014 0 0 0
318 0 2 0 12.201815398233823 13.118105197240912 1.8080964458453173 0 0 0
281 0 2 0 8.989544649445964 15.869026517864103 4.030809826178097 0 0 0
317 0 2 0 12.19525612484061 14.543113832122376 1.6638526415096877 0 0 0
290 0 2 0 11.100859921541279 16.46141744238362 0.731422561613704 0 0 0
177 0 2 0 10.838494507506178 12.64905804848763 -0.04656965232504626 0 0 0
316 0 1 0 12.555871746741975 13.861182485340011 2.286953024888343 0 0 0
304 0 1 0 15.46724441936648 13.885831382045922 2.218751554351541 0 0 0
305 0 2 0 14.493474440146743 13.885917761306077 2.266322390924625 0 0 0
306 0 2 0 15.742601073313006 13.116251514226608 1.7159204658761729 0 0 0
311 0 2 0 15.373017741710791 16.3824014277356 3.741216982423885 0 0 0
320 0 2 0 16.08412551990718 15.341874135805146 1.2511888547911656 0 0 0
302 0 2 0 16.380401097426674 13.916236021397737 3.55078539397089 0 0 0
315 0 2 0 13.492139594955606 15.441597164265293 4.264101115069651 0 0 0
319 0 1 0 16.650088830865087 15.817604866857454 0.5968834697615378 0 0 0
346 0 1 0 18.6919129608208 14.124130466546347 1.8187680155651411 0 0 0
347 0 2 0 18.072196593948686 14.835815110032886 1.5081810229716948 0 0 0
348 0 2 0 18.333787334010037 14.004796250149528 2.7332452773413762 0 0 0
301 0 1 0 17.12228013472793 14.212813323164681 4.16711407545561 0 0 0
335 0 2 0 20.478623940234 14.256607521607844 1.7031299708692822 0 0 0
309 0 2 0 18.680613354834254 16.42509622492409 3.8343383082870703 0 0 0
1784 0 2 0 20.017291341386905 15.85185647853324 0.14873786638449268 0 0 1
1800 0 2 0 20.568594699962343 12.396411577673401 0.20084574487778756 0 0 1
237 0 2 0 22.546668948722097 12.766769148539034 1.147830318205308 0 0 0
236 0 2 0 23.493911088753116 12.572797143976842 -0.011520219221359818 0 0 0
257 0 2 0 24.654677917614478 13.61192291924732 3.06402475827104 -1 0 0
332 0 2 0 22.46406379143477 13.812299026637175 3.4908373885185164 0 0 0
334 0 1 0 21.40356385546237 14.070933283693343 1.8674706643119503 0 0 0
336 0 2 0 21.857352806960893 14.680395708706307 1.2448259410663844 0 0 0
349 0 1 0 23.309963486872416 15.679318531936994 0.6778720319839219 0 0 0
350 0 2 0 23.929975903636652 15.304875271522857 1.3307501352570035 0 0 0
331 0 1 0 23.184588817329267 13.633269587256605 4.109218117440982 0 0 0
263 0 2 0 2.3163570307495225 16.94684950649586 2.4919346460659586 0 0 0
264 0 2 0 0.793565119329473 16.951778340120356 2.2239396634963904 0 0 0
262 0 1 0 1.6833020742165683 16.994987747665952 1.7711796727543365 0 0 0
250 0 1 0 3.193424236675552 17.02020498305629 4.020623018687089 0 0 0
364 0 1 0 2.903454628622143 19.79589754298422 2.268089795865542 0 0 0
366 0 2 0 1.9824713536998093 19.78337116354077 2.6187854822076697 0 0 0
267 0 2 0 4.010566049913721 18.500719970634428 1.1652234480016046 0 0 0
338 0 2 0 0.18505956552999026 17.624755411680816 3.995800207069374 1 0 0
365 0 2 0 2.888859001072157 20.577338602595447 1.7324153551065278 0 0 0
1829 0 2 0 1.53116278642282 18.262897764453953 0.5966277168989501 0 0 1
363 0 2 0 4.166258597853467 20.14386679288009 3.723325940759384 0 0 0
252 0 2 0 4.170146616877762 17.014312098734138 4.139755080113824 0 0 0
249 0 2 0 6.520662986239903 16.916706671262375 3.1906895746774397 0 0 0
247 0 1 0 5.975901711545091 16.932760564037473 4.038801494196147 0 0 0
266 0 2 0 4.659403948910586 17.40149264015251 0.562038704566015 0 0 0
265 0 1 0 4.740705637759683 18.360292375109914 0.5998924940205203 0 0 0
408 0 2 0 6.094917899111841 19.436732615606765 1.3932699721498027 0 0 0
406 0 1 0 6.450962002610905 20.045816711319127 2.052631695611238 0 0 0
407 0 2 0 5.955377606305102 19.83076100251356 2.8775331962341446 0 0 0
292 0 1 0 7.5082540608185635 16.967086570755278 1.8482506338098539 0 0 0
361 0 1 0 4.964158810841134 20.243338522987813 4.3014271552236005 0 0 0
395 0 2 0 8.02085610765754 19.887491384610307 2.1365641693207365 0 0 0
294 0 2 0 7.575708139719312 17.69342823946257 1.2364652250267294 0 0 0
293 0 2 0 8.38790640860951 16.956373514121196 2.3245656284496086 0 0 0
278 0 2 0 11.430053497013173 16.918020982301712 3.3945945568169966 0 0 0
280 0 1 0 9.357197152600444 16.64492552593586 3.6018912779823795 0 0 0
295 0 1 0 10.996304954717813 18.22223914131284 0.7006481009070339 0 0 0
296 0 2 0 10.277983834906726 18.77638235249725 1.064642290328526 0 0 0
394 0 1 0 8.97212000472287 19.67077854692065 1.9722566749173516 0 0 0
396 0 2 0 9.381603266550748 19.607136869016898 2.8573894515259655 0 0 0
393 0 2 0 11.823666207398338 20.090003487708735 3.3973451585820054 0 0 0
282 0 2 0 8.92011650596224 17.296488851910865 4.205646368383103 0 0 0
391 0 1 0 11.190987421456098 19.85397790636302 4.092062116601758 0 0 0
437 0 2 0 12.39503346171422 19.228120317810465 1.5702605626959418 0 0 0
277 0 1 0 12.394661733578962 16.872392457354564 3.4951326644917646 0 0 0
436 0 1 0 12.853250814185328 20.04872811808501 1.8027334323471544 0 0 0
279 0 2 0 12.641812109971061 17.647480650111085 4.022060091214955 0 0 0
323 0 2 0 13.313601573756335 16.698236408873612 1.9606300296170236 0 0 0
322 0 1 0 13.953595068741398 16.86387114108397 1.2358704843847925 0 0 0
324 0 2 0 14.698543341285019 17.27708904186464 1.66445022302265 0 0 0
310 0 1 0 15.596017236928216 17.237556827443733 3.2697725687866113 0 0 0
424 0 1 0 15.580978229097221 20.127311681492678 2.1459997838623415 0 0 0
312 0 2 0 15.080014658223028 17.905414630437882 3.7348632390277174 0 0 0
425 0 2 0 14.653876393981127 20.230444258543862 1.8919096926421066 0 0 0
326 0 2 0 16.489767259063772 18.911608611963743 1.3477935133796928 0 0 0
423 0 2 0 16.305403376417715 20.30353627988476 3.875709501871917 0 0 0
321 0 2 0 16.8186446520077 16.764838897665392 0.7205012535923735 0 0 0
308 0 2 0 17.389321664051614 17.32240123461849 3.6098796054785844 0 0 0
352 0 1 0 20.139130014305035 17.076745627310054 1.504847301511625 0 0 0
353 0 2 0 19.3813147689447 17.299016459026774 2.0126105691044596 0 0 0
325 0 1 0 17.259979151462304 18.47468888693635 0.9164161025732547 0 0 0
307 0 1 0 18.356557344592744 17.302959434722332 3.5016416996135926 0 0 0
468 0 2 0 18.495397018486116 19.733153241461665 1.7992580506911637 0 0 0
354 0 2 0 20.235391057465666 17.800214285867618 0.7969705375323972 0 0 0
467 0 2 0 18.187344673081434 20.455659003088293 3.0475464609756737 0 0 0
466 0 1 0 18.78124124267536 20.52688508705483 2.293901038385945 0 0 0
421 0 1 0 17.066464390498503 20.339932289202196 4.4358339132403195 0 0 0
455 0 2 0 20.50928846626403 20.245710721797508 2.455794264397285 0 0 0
327 0 2 0 17.233314445018372 18.84775745874927 0.01800998847958174 0 0 0
351 0 2 0 23.469036664557496 16.58706413929493 0.7876310544278465 0 0 0
376 0 1 0 24.764648350503442 20.051640656002178 2.4248557489536475 -1 0 0
337 0 1 0 24.729627060770365 16.777358419906143 3.512580051082005 0 0 0
342 0 2 0 21.575497849535463 16.99422729191999 2.8750610028620813 0 0 0
340 0 1 0 22.00958834462358 17.069453139170434 3.770860383403776 0 0 0
339 0 2 0 23.763959531545442 16.683634083645757 3.599231903403494 0 0 0
355 0 1 0 23.278132387383426 18.257648885811676 0.7827722244949904 0 0 0
356 0 2 0 23.958480167963764 18.777926760766285 1.3158002703129112 0 0 0
456 0 2 0 21.63107280566009 19.389808506743478 1.6870695854147055 0 0 0
341 0 2 0 21.49641627085538 17.84803923835979 4.134299914543025 0 0 0
454 0 1 0 21.471779085668743 20.023561880344168 2.4151726629525156 0 0 0
453 0 2 0 22.515348026735705 19.620017007274242 4.009275252648179 0 0 0
378 0 2 0 24.35544975096217 20.070252044620467 3.3120585539410965 -1 0 0
357 0 2 0 23.138004450092282 18.859584989970124 0.07608651861128948 0 0 0
387 0 2 0 3.6216961134996053 24.6011619612692 1.1061187141662965 0 0 0
370 0 1 0 2.9979855929107404 23.063247060815648 3.665734020123653 0 0 0
371 0 2 0 2.7191495391146185 23.010877748180533 2.7300632135265728 0 0 0
382 0 1 0 1.4681351056400527 22.85158160759793 1.2132937586725496 0 0 0
383 0 2 0 1.6149317980386204 22.246888406402313 0.45919237800994483 0 0 0
384 0 2 0 1.580173140124157 23.774283951760964 0.7707807114053354 0 0 0
372 0 2 0 2.4398868442218387 23.762870607313417 4.0024562341848995 0 0 0
458 0 2 0 0.286295867975424 22.338025898580355 3.9434586131224445 1 0 0
29 0 2 0 0.6870118794601399 24.462950205045026 4.469164219203212 0 -1 0
374 0 2 0 2.369740636916876 21.729533581831532 4.526433291768851 0 0 0
459 0 2 0 0.26751134236246815 23.02667132335118 2.601582588483112 1 0 0
385 0 1 0 4.483558088999879 24.439668606926794 0.6886442101297556 0 0 0
381 0 2 0 4.376779777489398 22.66416039426828 0.6397180495529707 0 0 0
379 0 1 0 4.480200431983439 21.66852660865147 0.5479625847911264 0 0 0
367 0 1 0 5.8235572219151885 23.667381691445314 3.5974975594043204 0 0 0
368 0 2 0 4.906535890444976 23.53236695399748 3.6985616814171607 0 0 0
380 0 2 0 5.198492469640533 21.404197888275675 1.1223421463554044 0 0 0
414 0 2 0 6.8637219457512035 23.483838719807835 2.0438725939256788 0 0 0
413 0 2 0 7.711265271843983 23.957205969028834 0.8770536067172919 0 0 0
412 0 1 0 7.538340508380821 23.17156417959614 1.4152268938272037 0 0 0
369 0 2 0 6.220111369766154 22.841691722326786 4.023561942844478 0 0 0
1845 0 2 0 7.396283059868137 21.707733537131 0.1573258262893282 0 0 1
415 0 1 0 10.709371498407403 24.49822667721135 0.7860020286342226 0 0 0
400 0 1 0 9.308249703658596 23.14528612439686 3.3347447653109565 0 0 0
401 0 2 0 10.262456724957595 23.241934660861595 3.1509502501552222 0 0 0
402 0 2 0 8.931776199467114 23.049870162046894 2.4465698902653683 0 0 0
409 0 1 0 10.673952361712102 21.788247571202362 0.6975066991748122 0 0 0
410 0 2 0 9.828367616872507 21.46971431089124 1.0485131619954482 0 0 0
411 0 2 0 10.635254110033124 22.74718702226867 0.7313528165886924 0 0 0
397 0 1 0 12.00188507820871 23.047544581885823 3.4908241402633284 0 0 0
405 0 2 0 8.376028708452132 22.13668743750842 4.4515546972650135 0 0 0
399 0 2 0 12.250061771749246 23.047310703526968 2.5204624406231337 0 0 0
59 0 2 0 8.438486840344641 24.659847707622944 4.41493799922624 0 -1 0
438 0 2 0 12.403286610245894 20.75263431833411 1.3834438409107415 0 0 0
398 0 2 0 12.526448992374126 23.766335657293638 3.8879799723730284 0 0 0
426 0 2 0 15.915084884381555 20.888888100259017 1.6412048939300339 0 0 0
430 0 1 0 15.68142790698143 23.471130811431884 3.5114486111153345 0 0 0
442 0 1 0 13.91141566843025 22.82262686541401 1.2399748247113116 0 0 0
443 0 2 0 14.539226513345087 23.0353953319497 1.9266023204869778 0 0 0
444 0 2 0 13.880025217104281 23.569496412938 0.644981733490728 0 0 0
431 0 2 0 15.207951770660888 22.71696531496579 3.8698002606807633 0 0 0
90 0 2 0 14.662608915265553 24.534093711607454 4.515801925850715 0 -1 0
435 0 2 0 13.25476606610296 21.792072893181086 4.119420042854593 0 0 0
433 0 1 0 14.078511982926477 21.31237268770414 4.471337615657095 0 0 0
432 0 2 0 16.61641395209846 23.259528135712188 3.556038766579771 0 0 0
445 0 1 0 16.905086016189347 24.73247587310601 0.5112555657211657 0 0 0
439 0 1 0 17.224561372953783 21.905212187590827 0.5110232310926616 0 0 0
447 0 2 0 16.862195253446412 23.746928562154018 0.48933164603139445 0 0 0
427 0 1 0 18.51169666595875 23.089192838263735 3.361089161676771 0 0 0
428 0 2 0 18.847490038264375 22.43159896527831 3.9939478175551972 0 0 0
429 0 2 0 18.878802620778515 23.864256526762567 3.809370429577027 0 0 0
474 0 2 0 19.45523604900674 23.588798335611465 1.8727698488389217 0 0 0
440 0 2 0 17.85115660430883 21.59425258807213 1.1974933667744196 0 0 0
472 0 1 0 20.274229258566873 23.563819348402305 1.3307840064667384 0 0 0
473 0 2 0 20.296612717867983 24.36689707268865 0.7976016482178615 0 0 0
1905 0 2 0 20.144989443975977 21.870175394104635 0.044277041131360495 0 0 1
377 0 2 0 24.224119913325133 20.753700936626203 2.0567838059086876 -1 0 0
475 0 1 0 23.480275133452132 24.60961093511591 0.7466132767665827 0 0 0
457 0 1 0 24.633061475092088 23.06266247446019 3.4871390705577614 0 0 0
460 0 1 0 21.807164135670924 23.56764747920966 3.662366900934903 0 0 0
461 0 2 0 21.30804318204341 23.597352979283983 2.8148985082332603 0 0 0
462 0 2 0 22.728750837788212 23.408707106097133 3.455199338744583 0 0 0
469 0 1 0 23.275089803333177 21.783555384693194 1.0359413884489872 0 0 0
471 0 2 0 22.504736872939535 21.38686064991652 1.4665004786949964 0 0 0
477 0 2 0 23.333021502825023 23.628866399445236 0.8774242884430795 0 0 0
120 0 2 0 20.720690909821915 24.616065324696493 4.5076142742380325 0 -1 0
470 0 2 0 23.31640466241191 21.425876820634905 0.16051938541483507 0 0 0
13 0 1 0 1.298888656021045 3.0235872260280963 4.831314542140382 0 0 0
14 0 2 0 1.15917496073728 2.1560151447607754 5.163597400278293 0 0 0
28 0 1 0 1.3551256223867298 0.13005173533639183 4.96492179274114 0 0 0
15 0 2 0 1.321643127009623 3.540766317529701 5.664877289586882 0 0 0
484 0 1 0 2.8872902714689612 1.535190844257509 8.137927382457097 0 0 0
485 0 2 0 1.914075656503472 1.5993318987295861 7.983339450424253 0 0 0
486 0 2 0 3.2934587975201133 2.3262953190970586 7.7861909675841785 0 0 0
496 0 1 0 0.27436258408313785 1.3892990812556443 7.591597511960741 0 0 0
866 0 2 0 3.5822062935249472 -0.02057368488264423 7.168624865218796 0 1 0
60 0 2 0 6.870850240473819 0.09638069587093193 4.544725095030445 0 0 0
3 0 2 0 4.319104525647867 0.8154632845381686 4.89919824927764 0 0 0
58 0 1 0 7.80193665118039 0.21386867318838948 4.993865991209535 0 0 0
500 0 2 0 4.322903974195264 2.720871189805846 5.646402246415671 0 0 0
43 0 1 0 7.700534506787475 2.8837960286891637 4.924438711032848 0 0 0
499 0 1 0 4.4722226203344135 3.224852430930191 6.485205776044836 0 0 0
501 0 2 0 5.2535933012168465 2.7293461022670704 6.829877406213632 0 0 0
526 0 1 0 6.367570790588788 1.3170938403316375 7.802727507095607 0 0 0
527 0 2 0 7.3358253294369025 1.3519518825165062 7.866599114313964 0 0 0
44 0 2 0 7.684510157785769 1.954756456035018 4.96323065439513 0 0 0
528 0 2 0 5.978374974436125 1.1873853855500716 8.66614729445085 0 0 0
867 0 2 0 5.069449145228163 0.05352810537097749 7.113349875908248 0 1 0
534 0 2 0 7.448122308299432 3.9110491967035337 6.395289714414987 0 0 0
33 0 2 0 10.833254290160715 2.069184128508403 4.72474652251041 0 0 0