LAMMPS (29 Sep 2021 - Update 2)
  using 1 OpenMP thread(s) per MPI task
echo both

include		in.partitions
variable        pid world 0
include		in.temp
variable        temperature equal 280
variable        tempDamp equal 0.100 # this is 0.1 ps
include		in.pressure
variable        pressure equal 9119.25
variable        pressureDamp equal 1.0 #this is 1ps
include		in.seed
variable        seed world 745823

units           metal
atom_style	full
include		in.box
read_data       iceVI.data
Reading data file ...
  orthogonal box = (0.0000000 0.0000000 0.0000000) to (24.724405 24.724405 22.792372)
  1 by 1 by 1 MPI processor grid
  reading atoms ...
  1920 atoms
Finding 1-2 1-3 1-4 neighbors ...
  special bond factors lj:    0        0        0       
  special bond factors coul:  0        0        0       
     0 = max # of 1-2 neighbors
     0 = max # of 1-3 neighbors
     0 = max # of 1-4 neighbors
     1 = max # of special neighbors
  special bonds CPU = 0.003 seconds
  read_data CPU = 0.016 seconds
include 	in.setup
variable	out_freq equal 500
variable	out_freq2 equal 500

timestep        0.0005

neigh_modify    delay 7 every 1

include         in.deepmd
# This is deepMD model

# create groups ###
#group ox type 2
#group hy type 1

mass 2 15.999
mass 1 1.008

pair_style      deepmd ../graph.pb
pair_coeff      * *

bond_style      none
angle_style     none
dihedral_style  none
improper_style  none
neigh_modify exclude none


neighbor        2.0 bin
neigh_modify    every 10 delay 0 check no

thermo          ${out_freq}
thermo          500
thermo_style 	custom step temp pe etotal epair emol press lx ly lz xy xz yz vol pxx pyy pzz pxy pxz pyz

restart 	${out_freq} restart.lmp.${pid} restart2.lmp.${pid}
restart 	500 restart.lmp.${pid} restart2.lmp.${pid}
restart 	500 restart.lmp.0 restart2.lmp.${pid}
restart 	500 restart.lmp.0 restart2.lmp.0


include         in.dump
dump            myDump all atom ${out_freq2} dump.water.${pid}
dump            myDump all atom 500 dump.water.${pid}
dump            myDump all atom 500 dump.water.0
dump            myDump2 all dcd ${out_freq2} dump.dcd
dump            myDump2 all dcd 500 dump.dcd
dump_modify     myDump append yes
dump_modify     myDump2 append yes


timer           timeout 03:55:00 every 1000
New timer settings: style=normal  mode=nosync  timeout=03:55:00

fix             2 all nph aniso ${pressure} ${pressure} ${pressureDamp}
fix             2 all nph aniso 9119.25 ${pressure} ${pressureDamp}
fix             2 all nph aniso 9119.25 9119.25 ${pressureDamp}
fix             2 all nph aniso 9119.25 9119.25 1
fix             3 all temp/csvr ${temperature} ${temperature} ${tempDamp} ${seed}
fix             3 all temp/csvr 280 ${temperature} ${tempDamp} ${seed}
fix             3 all temp/csvr 280 280 ${tempDamp} ${seed}
fix             3 all temp/csvr 280 280 0.1 ${seed}
fix             3 all temp/csvr 280 280 0.1 745823
velocity 	all create ${temperature} ${seed} dist gaussian
velocity 	all create 280 ${seed} dist gaussian
velocity 	all create 280 745823 dist gaussian

run             400000

CITE-CITE-CITE-CITE-CITE-CITE-CITE-CITE-CITE-CITE-CITE-CITE-CITE

Your simulation uses code contributions which should be cited:

- USER-DEEPMD package:

@article{Wang_ComputPhysCommun_2018_v228_p178,
  author = {Wang, Han and Zhang, Linfeng and Han, Jiequn and E, Weinan},
  doi = {10.1016/j.cpc.2018.03.016},
  url = {https://doi.org/10.1016/j.cpc.2018.03.016},
  year = 2018,
  month = {jul},
  publisher = {Elsevier {BV}},
  volume = 228,
  journal = {Comput. Phys. Commun.},
  title = {{DeePMD-kit: A deep learning package for many-body potential energy representation and molecular dynamics}},
  pages = {178--184}
}

CITE-CITE-CITE-CITE-CITE-CITE-CITE-CITE-CITE-CITE-CITE-CITE-CITE

Neighbor list info ...
  update every 10 steps, delay 0 steps, check no
  max neighbors/atom: 2000, page size: 100000
  master list distance cutoff = 8
  ghost atom cutoff = 8
  binsize = 4, bins = 7 7 6
  1 neighbor lists, perpetual/occasional/extra = 1 0 0
  (1) pair deepmd, perpetual
      attributes: full, newton on
      pair build: full/bin
      stencil: full/bin/3d
      bin: standard
Per MPI rank memory allocation (min/avg/max) = 9.089 | 9.089 | 9.089 Mbytes
Step Temp PotEng TotEng E_pair E_mol Press Lx Ly Lz Xy Xz Yz Volume Pxx Pyy Pzz Pxy Pxz Pyz 
       0          280   -333.91511   -264.46105   -333.91511            0    45729.524    24.724405    24.724405    22.792372            0            0            0     13932.89    46392.962    47771.613    43023.996   -805.17317   -389.91078   -357.36669 
     500    255.47844   -307.86613   -244.49465   -307.86613            0    4433.7991    24.860562    24.898203    22.900897            0            0            0    14175.273    6038.8847    5854.7872    1407.7253    -1722.336   -2027.6808    1076.3971 
    1000    281.79887   -306.89906   -236.99879   -306.89906            0    8392.4333    24.879009    24.895667    22.878841            0            0            0    14170.686    7862.5898    5465.9976    11848.713    361.63119   -749.31994    -801.5596 
    1500    281.39121   -306.05019   -236.25104   -306.05019            0    14229.826    24.883016    24.771018    22.810762            0            0            0    14060.044    12817.085    16196.964    13675.429    633.48819     -1803.43    2634.0586 
    2000    275.63073   -302.78369   -234.41343   -302.78369            0    4686.7054    24.912531    24.910146    22.928493            0            0            0    14228.845    3011.3667    5053.4542    5995.2953   -132.39972   -1726.5366   -1699.6135 
    2500    290.47432   -304.51508   -232.46286   -304.51508            0    11391.549    24.783792    24.834623    22.870525            0            0            0     14076.72    8408.9949    13840.363     11925.29   -760.82985   -1270.2736    1878.1655 
    3000    280.07042   -303.47224   -234.00071   -303.47224            0    13885.365    24.856807    24.878802    22.940756            0            0            0    14186.738    14937.761    14254.759    12463.576    511.02497    1416.1327     -2064.48 
    3500    273.73794   -303.86547   -235.96472   -303.86547            0    4731.1083    24.862624    24.807869    22.901221            0            0            0    14125.214    4387.0361    6634.2042    3172.0847     983.5586   -894.78209    170.17499 
    4000    279.53386   -305.91155   -236.57311   -305.91155            0    10293.344    24.904058    24.835799    22.872111            0            0            0    14146.679    8608.3496    11632.342    10639.341    1927.6166    770.35283   -2299.6075 
    4500     279.6686   -305.80694   -236.43509   -305.80694            0    8078.6672    24.883309    24.874468    22.837664            0            0            0    14135.579    7909.9757    7650.1328    8675.8931   -1906.3366   -1825.2149    2483.7629 
    5000    279.56258   -304.08313   -234.73757   -304.08313            0    5294.2319    24.740683    24.875547     22.89901            0            0            0    14092.921    6973.4626    3705.0709    5204.1623    1127.9733   -1022.3287   -838.73549 
    5500    273.36359   -304.28259   -236.47469   -304.28259            0    9272.9059    24.820805     24.90204    23.017213            0            0            0    14226.679    5600.6432    11311.654     10906.42    2089.3638   -489.36796   -342.73448 
    6000    285.31798   -305.34296   -234.56978   -305.34296            0     11591.43     24.83028     24.72746    22.802175            0            0            0    14000.302    14019.097    9695.7877    11059.404   -1371.6774   -1815.8526    237.73657 
    6500    278.95447   -306.75185   -237.55714   -306.75185            0     6801.915    24.989991    24.969575    22.851951            0            0            0    14259.377    9935.6659    2904.0673    7566.0117   -1003.9563    865.58367   -1641.9478 
    7000    281.98495   -302.91493    -232.9685   -302.91493            0    10181.358    24.812735    24.901236    22.790417            0            0            0    14081.464    8784.5958    9443.7471     12315.73   -159.57258    1111.6296   -1482.4914 
    7500    273.80904   -302.48653   -234.56814   -302.48653            0    8656.3247    24.854446    24.852241    22.971432            0            0            0    14189.193    7068.4201    9927.4772    8973.0768    1633.5489    425.15387      -3458.9 
    8000    273.51495   -303.27406   -235.42861   -303.27406            0    7592.4488    24.841402    24.740834    23.025398            0            0            0    14151.341    5282.9217    7926.1383    9568.2863    293.23497   -921.97269    551.04255 
    8500    277.66443    -305.7666   -236.89188    -305.7666            0    9151.6811    24.811874    24.761834    22.954233            0            0            0    14102.794    8891.7801    9218.4503    9344.8129   -1834.1797    354.84185   -435.01284 
    9000    283.34295   -303.13884   -232.85556   -303.13884            0    9792.6115    24.844278    25.051938    22.835475            0            0            0    14212.738     8060.657    10465.668    10851.509   -549.76198    63.095017    1905.2235 
    9500    283.98095   -303.66884   -233.22731   -303.66884            0    8120.2546    24.848794    24.928839    22.725926            0            0            0    14077.611    8406.8361    6665.5746    9288.3532   -58.993741    395.48092   -43.938957 
   10000    278.45462   -301.35162   -232.28089   -301.35162            0    8102.5139    24.997758    24.795637    22.985085            0            0            0    14246.968    6701.5846    11008.835    6597.1226    738.27699   -219.31577     2779.322 
   10500     286.3054   -300.18986   -229.17174   -300.18986            0     10639.99    24.899017     24.73581    23.002624            0            0            0    14167.255    10082.016     12082.83    9755.1252    1006.9187    -104.9851    2223.1956 
   11000    279.96013   -302.78274   -233.33857   -302.78274            0    8561.2572    24.831728    24.973575     22.89136            0            0            0     14195.78    9493.3229    7568.9304    8621.5184   -793.61405    23.094899   -822.46797 
   11500    280.98176   -304.59705   -234.89946   -304.59705            0    10720.029    24.812143    24.920138    22.822912            0            0            0     14111.91     10896.52    8891.9211    12371.646   -395.68162   -92.168516    45.928849 
   12000    280.90967   -302.74466   -233.06495   -302.74466            0    10144.802    24.928605    24.795749    22.909124            0            0            0    14160.666    8672.9467    12308.722     9452.736     164.2655    -1641.953   -89.878965 
   12500    287.03109   -303.58488   -232.38676   -303.58488            0    8510.9681    24.909369    24.811748    22.980395            0            0            0    14202.918    7440.1477    10570.334    7522.4225    455.25247    612.14287    112.35852 
   13000    282.39623   -301.78556   -231.73711   -301.78556            0    7590.8461    24.776575    24.859815    22.899761            0            0            0    14104.903    7299.2051    6941.9105    8531.4229    867.93188    2349.2239    2044.0733 
   13500     279.1462   -304.47309   -235.23081   -304.47309            0    10376.632    24.863709    24.918351    22.919611            0            0            0    14200.135    11600.128    9583.7336    9946.0332    225.56643   -1522.3827   -3417.5758 
   14000    273.33791   -304.35363   -236.55211   -304.35363            0    10804.501    24.909412    24.834074    22.776426            0            0            0    14089.547    10995.509    12699.996    8717.9977    2182.5313   -141.22725     703.4613 
   14500     272.7487   -306.13835   -238.48298   -306.13835            0    6203.2307    24.903284     24.88547    22.830917            0            0            0    14149.002    5514.6268    6008.4697    7086.5958    1213.4388   -467.42945    -292.4858 
   15000     280.6194   -303.82635   -234.21865   -303.82635            0    9190.9317    24.745248    24.840196    22.924654            0            0            0    14091.253    10426.741    7623.4483    9522.6054    1869.5686    1891.4024    30.054682 
   15500    279.74679   -304.75104   -235.35979   -304.75104            0    7503.4753    24.828457    24.778748    23.055146            0            0            0    14183.942    8133.4714    10022.968    4353.9868    1105.5065    317.43043   -743.80342 
   16000    277.98841   -302.27508      -233.32   -302.27508            0    10349.461    24.918305    24.703759     22.94959            0            0            0    14127.213    8011.3719    12335.461     10701.55   -1036.7488   -290.52518    1533.5841 
   16500    280.45248   -303.45434   -233.88804   -303.45434            0    9554.0805    24.930477    24.893922    22.797931            0            0            0    14148.792    9507.9777    9939.8923    9214.3714   -1284.7097    856.24786   -715.12456 
   17000    282.49149    -304.4298   -234.35772    -304.4298            0     10068.35    24.895585    25.030763    22.758855            0            0            0    14182.305    10387.445    12188.617    7628.9882     -606.394   -1167.5872    1792.2094 
   17500    280.72837   -304.54763    -234.9129   -304.54763            0     8306.071    24.818426    24.853966    22.885189            0            0            0    14116.415    8307.5374     9441.639    7169.0366   -689.94033    406.65049   -618.17826 
   18000    274.74136   -305.51477   -237.36511   -305.51477            0    8713.1151    24.858396     24.74607    23.025734            0            0            0    14164.225    10691.275     8811.973    6636.0972    474.97337   -235.30157    1082.3289 
   18500    276.49178   -304.90615    -236.3223   -304.90615            0    9440.4248    24.832954     24.82883    22.932715            0            0            0    14139.697    10687.765     7986.327    9647.1827   -1019.8479    931.25833   -3276.7682 
   19000    276.43059   -303.93768   -235.36901   -303.93768            0    9363.5514    24.828268    24.969523    22.791945            0            0            0    14129.867    7378.5739    11606.775    9105.3053   -748.66393   -181.56232   -1804.8978 
   19500    279.41339   -303.98754   -234.67898   -303.98754            0    10756.943    24.864431    24.958787    22.823622            0            0            0    14164.021    8076.0148    11574.819    12619.996    1859.5265    484.18691    2674.4175 
   20000    277.67594   -305.48297   -236.60539   -305.48297            0    8219.5553    24.846268    24.742194    22.949919            0            0            0     14108.49    10176.142    7720.9222    6761.6019    24.997395     548.2203     561.1319 
   20500    275.15972   -304.89219   -236.63876   -304.89219            0    10126.132    24.892659    24.662282    23.062579            0            0            0    14158.343    8831.8992    12449.605    9096.8924   -331.30978     -2180.25    1661.3894 
   21000    271.29587   -303.09413   -235.79913   -303.09413            0    10429.519    24.773308    24.910343    22.849389            0            0            0    14100.623    12498.586    10749.891    8040.0812   -293.59285    598.77386    510.47386 
   21500    263.39166   -303.86196    -238.5276   -303.86196            0    9449.4688    24.848881    25.074576    22.719529            0            0            0    14155.974    10452.484    5029.9268    12865.996    623.61664    2261.7726    2112.1241 
   22000    283.90616   -305.15753   -234.73455   -305.15753            0    11119.211    24.959974    24.828248    22.829657            0            0            0    14147.822    10381.748    10807.668    12168.216   -883.56911    2229.6072    2094.6194 
   22500    284.46819   -304.79461   -234.23221   -304.79461            0    7455.3578     24.90318     24.68225     23.05934            0            0            0    14173.804    8348.4607     8457.476    5560.1368    246.38665    982.04007    1706.0137 
   23000    270.18061   -305.47501   -238.45665   -305.47501            0    6969.6446    24.748648    24.800984     23.03081            0            0            0    14136.101    6165.3991    6868.6766     7874.858    778.94029    972.92099    440.50126 
   23500     283.9811   -305.43068    -234.9891   -305.43068            0    9183.2402    24.802262    24.978735    22.866741            0            0            0    14166.612    11463.344    5487.1221    10599.255    64.338022   -2001.3601    1978.3198 
   24000    289.16545   -303.63234   -231.90479   -303.63234            0    9276.0718    24.921911    24.887373    22.803033            0            0            0    14143.374    10809.038    9096.3358    7922.8411    1239.3449   -110.30396    1476.4222 
   24500    283.72099    -305.0011   -234.62404    -305.0011            0    7329.1985    25.027951    24.809854    22.853618            0            0            0    14190.721    4322.0313     7168.917    10496.647    936.85964   -712.32264   -850.72105 
   25000    294.69982   -304.25655   -231.15619   -304.25655            0    11370.583    24.881859    24.772275    22.970556            0            0            0    14158.597    10715.308    13721.563    9674.8769    188.82175    357.22042   -2699.2207 
   25500    282.61658   -302.66597   -232.56286   -302.66597            0    8972.4876    24.774028    24.920704    23.044202            0            0            0    14227.173    10580.056      8148.58     8188.827    114.10254     1505.738    2260.0283 
   26000    291.46466    -301.9299   -229.63203    -301.9299            0     9336.291    24.803424    24.914389    22.862201            0            0            0    14127.975    8712.2516    9847.5558    9449.0657   -902.75999    91.585012    702.63555 
   26500    278.47038   -304.27062   -235.19598   -304.27062            0    8017.7075    25.057915    24.876387    22.807443            0            0            0    14217.028    6750.3824    8424.1409    8878.5993    604.59346    350.60627    1742.6395 
   27000    278.06011    -302.5801   -233.60723    -302.5801            0    8669.4226    24.940642    24.803549    22.825932            0            0            0    14120.497    7160.9229     9828.939    9018.4061   -840.55907   -103.82577   -1261.9176 
   27500    274.90095    -303.1986   -235.00936    -303.1986            0    10943.856    24.776412    24.889257    22.975467            0            0            0      14168.2    10006.896    12640.168    10184.504    101.45283    2757.2923    742.04225 
   28000    278.42651   -304.99802   -235.93426   -304.99802            0     8718.898    24.765964     24.89875    22.976417            0            0            0    14168.213     8599.707    7149.8726    10407.114   -1147.6807   -178.57189    1160.8167 
   28500    275.32785   -302.17552   -233.88039   -302.17552            0    8416.9883    24.885668    24.862643    22.833278            0            0            0    14127.486     6676.642    10239.697    8334.6259   -780.02888   -50.910213     2143.819 
   29000    278.88818   -304.89174   -235.71346   -304.89174            0    8340.8008    25.022497    24.870549    22.828173            0            0            0    14206.502    9214.9963    6151.8113    9655.5947    83.647939   -1702.3967   -1289.7201 
   29500    284.78569   -303.18636   -232.54521   -303.18636            0    9757.8306     24.83665    24.789593    22.890221            0            0            0     14093.29    9507.8333    10891.912    8873.7466   -811.31045   -770.81939    2013.4599 
   30000    283.83379   -300.72037   -230.31534   -300.72037            0    6480.6098     24.81068    24.925251    23.043781            0            0            0    14250.561    4070.5034    7331.0502    8040.2758    1249.9556    335.77391   -910.82285 
   30500     285.3137   -302.67691   -231.90479   -302.67691            0    7496.7661    24.811396    24.885478    22.984768            0            0            0    14191.795    6672.5655    11309.668    4508.0647   -347.84135    351.06952    1265.6805 
   31000    281.10577   -300.62487   -230.89653   -300.62487            0    9710.7544    24.909238    24.858524    22.828038            0            0            0    14135.279    10986.738    7616.5877    10528.938    2103.7581     2779.913   -1498.6743 
   31500    284.81594   -303.81215   -233.16349   -303.81215            0    8496.8547    25.040063    24.943103    22.803863            0            0            0    14242.765     8480.491    6756.1532     10253.92    1336.0595   -1003.5901   -339.39186 
   32000    278.96824    -303.4277   -234.22957    -303.4277            0    10778.117     24.87494    24.795888    22.830347            0            0            0    14081.672    11392.645    11033.693    9908.0143    2030.0562   -356.77083    738.77543 
   32500    285.01726   -304.12983   -233.43123   -304.12983            0    9651.2473    24.852875    24.827967    23.038073            0            0            0    14215.559    9778.2791    8859.4207    10316.042    2486.0882   -2137.5243     1002.364 
   33000    283.46621   -303.09211   -232.77825   -303.09211            0    8675.1913    24.767952    24.879707    23.002909            0            0            0    14174.838    7365.3927    12424.671    6235.5103    -2373.582    839.62592    91.868317 
   33500    277.23423   -305.25526   -236.48725   -305.25526            0    9956.7115    24.877102    24.899568    22.814826            0            0            0    14132.167    8731.9724    9463.3068    11674.855    193.75042    449.10447    551.00842 
   34000    275.19011   -305.67457    -237.4136   -305.67457            0    7882.7475    24.999047    24.863078    22.791113            0            0            0    14165.891    8904.2898    6274.7071    8469.2457   -1620.3664    1399.8159     1011.885 
   34500    272.61767   -306.04259   -238.41971   -306.04259            0     8776.131    24.845344     24.80675    22.858017            0            0            0    14088.133     8443.695    9161.5072    8723.1908    228.14054    1171.9681    839.46521 
   35000    272.66851   -306.12722   -238.49174   -306.12722            0    7282.0084    24.775778    24.877113    23.035068            0            0            0     14197.66    9407.2583     7008.299    5430.4678   -218.39368   -138.18859   -267.45358 
   35500    279.19928   -304.49426   -235.23882   -304.49426            0    7918.7098    24.836534    24.838026    22.943841            0            0            0    14153.837    8839.6835    5299.9757    9616.4703    201.57026    -753.1392    -1751.172 
   36000    271.02366   -303.60459   -236.37711   -303.60459            0    11295.622    24.958829    24.831882    22.830696            0            0            0    14149.887    11778.044    9197.0716    12911.751   -842.32069    1662.8322    545.67133 
   36500    273.19461   -303.66022   -235.89424   -303.66022            0    6701.9232    24.931817    24.882772    22.807331            0            0            0    14149.045    7049.9688    5039.6383    8016.1625    2927.5612   -1049.8663    1378.5546 
   37000    276.67227   -304.11596   -235.48735   -304.11596            0    9421.5269    24.862792    24.862628    22.939383            0            0            0     14180.08    10246.828    10020.529    7997.2234    1102.1583    822.52809    1120.3261 
   37500    275.46837   -304.35733   -236.02734   -304.35733            0    9699.4831    24.730216    24.853043    23.011138            0            0            0    14143.131    12892.353    8836.1634    7369.9331   -640.02009    1399.5462   -528.44321 
   38000    282.35734   -303.16115   -233.12235   -303.16115            0    7244.6173    24.864124    24.853964    22.990818            0            0            0    14207.683    7671.9231    7031.2714    7030.6574   -1713.4335    443.66827    1102.6619 
   38500    285.80296   -304.30632   -233.41284   -304.30632            0    10764.054    25.033771    24.888097    22.752769            0            0            0    14175.951    11826.662    10144.993    10320.509   -2161.4741   -1436.9229   -2149.2391 
   39000    281.18544       -305.7   -235.95189       -305.7            0     10267.62    24.865002    24.950786    22.740636            0            0            0    14108.321     12373.04    6625.3772    11804.442   -344.83138   -1522.7516    -484.1157 
   39500    284.36919   -302.88533    -232.3475   -302.88533            0    6481.5234    24.790967    24.895494    23.064592            0            0            0    14235.083    5993.3918    9323.1272    4128.0512    323.01213   -1480.4699   -1872.8696 
   40000    277.44095   -304.68203   -235.86275   -304.68203            0     9315.984    24.757595    24.682562    23.112288            0            0            0    14123.477    9519.6256    10321.327    8106.9996   -944.53833   -639.62785   -1573.3371 
   40500    280.89171   -306.81634   -237.14109   -306.81634            0    8130.3343    24.913246    24.848279    22.897627            0            0            0    14174.806    7835.1423    9778.0885    6777.7721    1589.8718   -1397.8997   -1757.5548 
   41000    276.19475   -304.57889   -236.06872   -304.57889            0    12908.943    24.953846    25.002345    22.667762            0            0            0    14142.522    12618.215    12864.165     13244.45    248.43222   -41.799853    2263.1955 
   41500    274.42357   -302.51466   -234.44383   -302.51466            0    8153.4756     24.89703    24.911594    22.761317            0            0            0    14117.132    9683.8273    6387.0835    8389.5159    1253.6126    865.14219    652.45066 
   42000    278.98391   -303.22814   -234.02612   -303.22814            0    8125.9204    24.863714    24.789695    22.989551            0            0            0    14169.929    9492.0129    7376.5268    7509.2216    137.47994   -448.52729     1196.913 
   42500     281.8499   -303.94758   -234.03465   -303.94758            0    7856.4542    24.845502    24.794658    23.015623            0            0            0    14178.446    6525.1016     9083.213     7961.048   -1011.4367    631.10432    433.40312 
   43000    278.53398    -302.1549   -233.06449    -302.1549            0    8207.4517    24.807612    24.956741    22.868124            0            0            0    14158.047    9322.2321    6154.4993    9145.6238    446.37619   -340.53404     85.38163 
   43500     285.1865   -303.83991   -233.09934   -303.83991            0    11186.086    24.869452    24.967372    22.789539            0            0            0    14150.591    13276.136    10169.166    10112.957   -842.20295   -704.91057   -604.64363 
   44000    275.56643   -304.41326   -236.05894   -304.41326            0    8647.6572    24.942054    24.809261    22.884288            0            0            0    14160.658    8790.6127    9150.6527    8001.7062    224.06792   -3488.8877    478.37471 
   44500    280.31289   -304.67149   -235.13982   -304.67149            0    10221.898    24.909478    24.733285    22.987234            0            0            0     14162.28    8363.7037    13406.944    8895.0462   -767.11278    1833.5329   -405.58555 
   45000     269.7923   -303.20718   -236.28514   -303.20718            0    8070.3708    24.818425    24.870418    22.928848            0            0            0    14152.707    7760.2704    6305.4107    10145.431   -185.82527   -2404.4139    66.013448 
   45500    275.13805   -305.28955    -237.0415   -305.28955            0     8901.512    24.787315    24.973762    22.810358            0            0            0    14120.353    11959.842     5943.599    8801.0955   -548.54276   -2410.7754    468.12011 
   46000    274.71495   -304.17652   -236.03341   -304.17652            0    9528.3811    24.942219    24.894254    22.749047            0            0            0    14125.291    8923.1129    8560.0337    11101.997   -2516.8145    364.86015    874.57027 
   46500    281.36063   -304.10097   -234.30941   -304.10097            0    10931.741    24.998846    24.796779    22.904976            0            0            0    14198.585    9892.5106    11914.123     10988.59    687.89941   -1430.3612    -832.6952 
   47000    283.05469   -304.60735   -234.39557   -304.60735            0    8746.1434    24.777221      24.7876    23.018742            0            0            0    14137.371    8428.5959    10432.066    7377.7681    763.70553   -219.82531   -3358.4914 
   47500     280.5474     -302.412   -232.82216     -302.412            0    9795.0246    24.699962    24.966402    23.027895            0            0            0    14200.593    9559.8754    9535.8744    10289.324      533.151    1825.9979     2414.952 
   48000    280.81501   -304.09667   -234.44044   -304.09667            0    8123.5999     24.84122    24.943847    22.854385            0            0            0     14161.39     8195.733    5427.8182    10747.249   -550.76943    919.46343    32.172874 
   48500    278.51965   -303.73976    -234.6529   -303.73976            0    9092.4355    25.080969     24.80783    22.746015            0            0            0    14152.671    10087.353    9321.1257    7868.8275   -154.52963     1424.765   -824.86502 
   49000    280.80486   -302.02567   -232.37196   -302.02567            0    7992.7385    25.037305    24.861463    22.832574            0            0            0    14212.456    6858.9484     7234.308    9884.9592    -2217.805   -2048.9629 -0.056931852 
   49500    295.36859   -301.66868   -228.40244   -301.66868            0    10294.349    24.734142    24.939729    22.911026            0            0            0     14132.96     10173.91    12125.101    8584.0371   -81.969666   -274.00189    329.95405 
   50000    278.89326   -301.28953      -232.11   -301.28953            0    9921.1949    24.807907    24.961642    23.030098            0            0            0    14261.298    11416.749     10723.15    7623.6864   -2072.7686    1875.9767    452.07537 
   50500      278.829   -303.03392   -233.87033   -303.03392            0    9759.6141    24.850352    24.705895    22.918693            0            0            0    14070.936    7509.2505    11029.405    10740.186    2599.9908   -1059.2124    971.60601 
   51000    283.95551   -303.19403    -232.7588   -303.19403            0    8827.8233     24.92782    24.840858    22.977743            0            0            0    14228.472    8199.5058    6705.0181    11578.946    466.87664     197.9478    779.26651 
   51500    280.56502   -303.42615   -233.83193   -303.42615            0    7394.8979    24.783982    24.921229    22.872436            0            0            0    14127.098     8468.944    5574.5563    8141.1932    475.17328   -497.43335     -1105.49 
   52000    274.49676   -304.98034   -236.89136   -304.98034            0    10003.651    24.808481     24.95032     22.84736            0            0            0    14142.048     12138.99    6849.7969    11022.166    90.801837    607.12153    3117.4715 
   52500    288.72243   -304.70829   -233.09063   -304.70829            0    7568.5788    24.949041    24.811186    22.949931            0            0            0    14206.358    7986.5278    8276.3396     6442.869    907.40101   -1879.2519   -2125.6189 
   53000    282.00858   -305.39804   -235.44575   -305.39804            0    10057.087    24.889473    24.786064    22.896699            0            0            0     14125.25    8657.6724    12171.546    9342.0421    1043.6521   -1492.7084   -386.08562 
   53500    277.13799   -303.31963    -234.5755   -303.31963            0    8205.8668    24.827131    24.995338    22.863947            0            0            0    14188.509    6501.7367    8093.9317    10021.932    681.56253   -213.65326   -1649.9564 
   54000     283.9922   -302.86461   -232.42028   -302.86461            0    8248.8358     24.77257    24.988027    22.827721            0            0            0    14130.762    10043.725    6399.6567    8303.1256    -762.6056    1735.5245    310.56248 
   54500    276.35041   -305.73126   -237.18248   -305.73126            0    11232.815    24.939935    24.745513    22.907407            0            0            0    14137.341      9765.29    11013.017    12920.137   -1210.3942    888.93733    534.45882 
   55000    282.49618   -304.89309   -234.81985   -304.89309            0     7642.486    24.933876    24.655553    22.974726            0            0            0    14123.908     8052.255     7428.201    7447.0021    564.40455    1934.9642   -3185.6857 
   55500    273.03913    -304.1949   -236.46749    -304.1949            0    7317.0188    24.784139    24.959024    22.931348            0            0            0    14185.055    7528.8683    7101.2274    7320.9608   -560.25615   -2006.1202    365.95991 
   56000     283.2466   -302.49373   -232.23435   -302.49373            0     8416.876    24.777458    25.018188    22.786094            0            0            0    14124.806    9075.0974    5660.9193    10514.611    1367.2806     788.8803    346.36443 
   56500    269.57317   -301.42169   -234.55401   -301.42169            0    8594.4914    24.987584     24.85625    22.789098            0            0            0    14154.255    7944.1948    9997.8042    7841.4751   -126.62258    718.77506    621.34578 
   57000    276.72544   -304.01507   -235.37326   -304.01507            0    8183.9195    24.972733     24.74513    22.889459            0            0            0    14144.621    6724.1064     10916.14    6911.5125    1749.3735    773.51791   -2979.3399 
   57500    282.76476    -305.0022   -234.86234    -305.0022            0    8597.2662    24.768155    24.891898    22.916119            0            0            0    14128.392    9889.4788    6105.2161    9797.1036    203.24995   -20.351122    898.56413 
   58000    277.69997   -304.45957   -235.57603   -304.45957            0    10284.428    24.782015    24.998953    22.909433            0            0            0    14192.953    11215.412    9080.3766    10557.495     252.0634   -282.99406    1298.7661 
   58500    287.36716   -304.43439   -233.15291   -304.43439            0    8612.2887    24.865256    24.837094    22.772109            0            0            0    14063.614    10081.496    6901.2137     8854.157   -945.44214   -1160.8485   -1078.6646 
   59000    278.75366   -304.06307   -234.91816   -304.06307            0    7156.5759    25.029269    24.859963    22.899214            0            0            0    14248.502    5520.6426     10318.65    5630.4355   -1390.5952   -296.09045   -25.676273 
   59500    292.01368   -305.75931   -233.32526   -305.75931            0    7406.4424    24.805835    24.812229    22.914659            0            0            0    14103.699    9011.5187    6363.1751    6844.6333   -1152.4449   -439.99806    4407.2092 
   60000    273.11457   -303.96201   -236.21588   -303.96201            0    8297.1067    24.855556    24.872472    22.935803            0            0            0    14179.352    9593.5154    7643.7108    7654.0937   -366.54092   -698.92601    52.949092 
   60500    276.37929   -303.99095   -235.43501   -303.99095            0    7360.7191    24.935841    24.888979    22.872551            0            0            0    14195.337    7631.4591    5832.6745    8618.0237    453.97853   -1032.8099   -2265.6187 
   61000    270.18088   -301.98811   -234.96969   -301.98811            0     8624.624    24.894237    24.831344    22.814372            0            0            0    14102.872    6789.1708    9015.4543    10069.247    319.58789    861.92821    189.54345 
   61500    280.86461   -302.73492   -233.06639   -302.73492            0    7950.9905    24.865611    24.892486    22.983032            0            0            0    14225.735     8002.896    9972.1514    5877.9239    1140.7201    -1641.281   -1498.7808 
   62000    287.02684   -303.87274   -232.67567   -303.87274            0    10193.905    24.763253     24.81171    22.950954            0            0            0    14101.494    9551.5405    11149.688     9880.487   -92.541723   -575.46027   -796.97351 
   62500     281.4672   -304.99846   -235.18046   -304.99846            0    10143.909    24.894476    24.878152    22.926452            0            0            0    14199.007    8307.0875    11808.878    10315.762   -971.12474   -1496.6215    1823.5831 
   63000    291.65556   -302.56482   -230.21959   -302.56482            0    9325.1006     24.91886    24.946783    22.805193            0            0            0    14176.743    8031.3873    8335.9471    11607.968    777.65667   -489.97139    755.88289 
   63500    281.91339   -305.62764   -235.69896   -305.62764            0    9927.9133    24.885513    24.893458    22.799066            0            0            0    14123.713    12341.296    7307.5438      10134.9    982.17684    163.33291   -2493.6564 
   64000    285.23879   -303.16385   -232.41031   -303.16385            0     6415.927    24.855864    24.894811     23.05297            0            0            0    14264.764    11615.674    2966.8082    4665.2989    242.03862    2007.7106    31.720688 
   64500    279.76104   -304.98631   -235.59152   -304.98631            0    9645.5928    24.730001    24.732138    23.076937            0            0            0     14114.45    8651.7425     12349.99    7935.0462    1108.8479   -864.51202     505.8751 
   65000    268.76143    -305.1722   -238.50586    -305.1722            0    5272.2523    24.878472    24.859404    22.946898            0            0            0     14191.83    8291.6546    4351.0355    3174.0669   -1274.8279    1496.9545   -292.44985 
   65500    278.10199   -304.46694   -235.48368   -304.46694            0    10042.075    24.984012     24.95456    22.670648            0            0            0    14134.356    7294.7051     8605.836    14225.685    1598.4516    -798.7117   -122.77919 
   66000    290.91158   -303.47833   -231.31765   -303.47833            0    10199.461    24.948642    24.922582    22.744628            0            0            0    14142.259    10229.039    8738.9888    11630.355   -952.72287    738.42358    1477.6647 
   66500    282.74143   -302.24218    -232.1081   -302.24218            0    8507.0036    24.789782    24.847431    23.075406            0            0            0    14213.582    10381.941    7570.2711    7568.7991    1603.2337    452.99347   -1991.8703 
   67000    274.87276   -304.11631   -235.93406   -304.11631            0    10076.435    24.699017    24.795687    23.035142            0            0            0    14107.391    8409.5021    11672.831    10146.971    404.65983   -1070.8798    1827.6541 
   67500    279.00379   -305.04516   -235.83821   -305.04516            0    9109.8572     24.92309     24.90478    22.877291            0            0            0    14200.028    11146.873    8402.0735    7780.6248    1039.4041   -114.24448   -1289.4498 
   68000    278.91924   -305.32791   -236.14193   -305.32791            0    7711.4827     24.97794    24.845489    22.762259            0            0            0    14126.011    7718.0053    4528.6256    10887.817    711.60928    101.90099    381.70939 
   68500    276.36577   -302.80171   -234.24912   -302.80171            0    9069.8665    24.888135     24.88343    22.861554            0            0            0     14158.21    12135.678    7034.5598    8039.3615   -529.76819    1549.0506   -35.571653 
   69000    271.34795   -304.91573   -237.60781   -304.91573            0    9573.3531    24.784844     24.83588    22.984118            0            0            0    14147.952    11353.268    9022.6423    8344.1493   -612.23261    940.30804    1308.6814 
   69500     277.0377   -306.11925   -237.39999   -306.11925            0    9149.5782    24.787097    24.839824    22.953626            0            0            0    14132.711    8324.7997    10019.628    9104.3064    -1720.027   -1565.5369   -54.578748 
   70000    275.05967   -304.36731    -236.1387   -304.36731            0    10309.847     24.90419    24.865072    22.858295            0            0            0    14154.873    11331.307    9639.1142    9959.1205   -370.69388   -3003.2333    672.64163 
   70500    276.92801   -304.73745    -236.0454   -304.73745            0    7917.9452    24.956466    24.932972    22.778448            0            0            0    14173.636     7763.973     7889.558    8100.3047   -352.49053    977.17335    57.522948 
   71000    273.34169    -303.8394   -236.03694    -303.8394            0     10485.21    24.804927    24.864805    22.844439            0            0            0    14089.757    10153.612    10221.058     11080.96    630.73871   -141.90506    721.71455 
   71500    274.52757   -303.71793    -235.6213   -303.71793            0    7098.2087     24.75917    24.866471    23.122225            0            0            0    14235.734    5147.3403    10517.769    5629.5173    255.13104   -1126.1072   -135.77558 
   72000    289.91854   -302.34508   -230.43072   -302.34508            0    9766.6678    24.856849    24.728447    23.018086            0            0            0    14148.557    11614.508    9540.7938    8144.7019    634.25356   -397.85122    1582.8163 
   72500    277.39913   -304.07048   -235.26156   -304.07048            0     8054.881    25.116324    24.827212    22.855686            0            0            0    14252.081    9522.4943    7530.6355    7111.5133    505.95609    423.13837   -1233.6134 
   73000    271.86067   -303.14133   -235.70623   -303.14133            0    12938.378    24.916674    24.891759    22.722368            0            0            0    14092.863    10323.838    11913.016     16578.28   -841.90845   -626.01749    1810.2721 
   73500     284.4971   -304.21556     -233.646   -304.21556            0    8038.6474    24.796836    24.951476    22.922343            0            0            0    14182.458    8690.6235    8923.4503    6501.8683   -1707.9574    2264.0852   -466.10712 
   74000    281.02946   -303.85433   -234.14491   -303.85433            0    8965.4464    24.833999    24.810564    23.005026            0            0            0    14174.444    8873.0596    6254.3515    11768.928   -2062.0955   -1092.3627   -1481.6336 
   74500    283.64466   -304.98544   -234.62732   -304.98544            0     9132.495    24.887594    24.704245    22.938133            0            0            0    14103.034    7217.2913    12778.034    7402.1595   -1555.0296    1275.2067   -1962.8205 
   75000    289.18798   -305.40684    -233.6737   -305.40684            0    8183.9732    24.913043    24.917594    22.941346            0            0            0    14241.371    8872.7445    8206.1928    7472.9822    -147.1992   -1309.4405    1039.8166 
   75500    281.55231   -304.05966   -234.22055   -304.05966            0    5492.7812    24.805326    24.954163    22.818358            0            0            0    14124.476    5946.7064    2873.2107    7658.4266    496.47397   -1067.3638   -274.79217 
   76000    282.26524   -305.87146    -235.8555   -305.87146            0    10462.977    24.917204    24.889918    22.819333            0            0            0    14152.257    9091.1422    13381.889    8915.8996     456.5923    -779.1159    337.78141 
   76500    261.99931   -305.59649    -240.6075   -305.59649            0     10755.63     24.94194    24.767582    22.901226            0            0            0    14147.268    11692.954    10205.309    10368.628     386.6155     1699.021    803.51605 
   77000    273.61083   -307.14708   -239.27785   -307.14708            0    8511.5189    24.737189     24.77327    22.942939            0            0            0    14059.916    7574.5249    11165.685    6794.3464    403.50449     540.2075    760.99617 
   77500    273.00789   -304.49274   -236.77307   -304.49274            0    10445.629    24.796133    24.959588    22.955478            0            0            0    14207.174    11551.829    9438.4852    10346.574    487.76827   -927.79914    1111.2106 
   78000    290.77892   -303.08587   -230.95809   -303.08587            0    11256.289    24.863665    24.882592    22.824737            0            0            0    14121.035    8648.3809    12568.745    12551.743    272.46295    -2572.003     -2151.61 
   78500    279.58817   -305.78471    -236.4328   -305.78471            0    7806.5192    24.998332     24.82818    22.860398            0            0            0    14188.605    6830.6482    8906.9326    7681.9769   -699.27325    -1753.557    1666.1309 
   79000    272.98584   -304.63605   -236.92186   -304.63605            0    10785.119    24.812049     24.80578    22.901557            0            0            0    14095.501     11735.41    12153.133    8466.8144   -1093.6256   -81.868643    1719.8457 
   79500    284.28084   -305.36454   -234.84862   -305.36454            0    6771.8154    24.727637    24.967589    22.958492            0            0            0    14174.331    7169.0634    7637.6214    5508.7614   -785.06572   -1294.6352    538.79713 
   80000    286.55433   -304.88145   -233.80158   -304.88145            0    8647.3359    24.901668     24.87504    22.872843            0            0            0    14168.125    8116.5028    7453.7528    10371.752   -275.32384    3256.7272     1783.945 
   80500    280.55139   -304.94118   -235.35035   -304.94118            0    9261.5888    25.046994    24.735471     22.76796            0            0            0    14105.871    6661.8346    10001.862     11121.07   -1713.0361   -1982.4786   -201.97889 
   81000    281.09893   -305.63554   -235.90889   -305.63554            0    9584.0704    24.892564    24.940051    22.910074            0            0            0    14223.074    8682.0496    8571.8895    11498.272   -60.627698   -2293.1021     1168.918 
   81500     277.1235   -305.27676   -236.53622   -305.27676            0    11245.494    24.616429    24.967293    22.936453            0            0            0    14096.872    14038.738    9448.8266    10248.918    373.53195   -311.07291   -461.00191 
   82000    274.99575   -304.39097   -236.17822   -304.39097            0    7057.1044    24.815121    24.893075     22.97881            0            0            0    14194.578     8988.537    6358.4698    5824.3062    545.81952   -294.73652    2103.2521 
   82500    283.11303   -301.95454   -231.72829   -301.95454            0    9261.8605    25.001054    24.734043    22.879222            0            0            0    14147.988    7478.7262    11098.993    9207.8625    2206.6229    974.27433   -2114.0857 
   83000     273.5218   -301.64207   -233.79492   -301.64207            0    7935.0361    24.917129    24.904655    22.871664            0            0            0    14193.068    7740.7028    7422.4457    8641.9596    274.13007   -1233.6944    882.10808 
   83500    284.46719    -305.0639   -234.50175    -305.0639            0    8619.4251     24.75409    24.937639    22.895856            0            0            0    14133.808    10249.448    8129.8941    7478.9333   -2127.3891    381.51265   -1515.3223 
   84000    283.45386   -302.39914   -232.08835   -302.39914            0    8769.6178    24.844684    24.883077    22.948272            0            0            0    14186.902    10110.407    7338.7588    8859.6878    838.19929    421.36544   -728.82011 
   84500    272.79872   -302.74883   -235.08105   -302.74883            0     9820.962    24.927625    24.797841    22.994115            0            0            0    14213.841    10717.072    10482.631    8263.1823   -212.79259    -1104.239    1596.7561 
   85000      282.689   -305.74489   -235.62382   -305.74489            0    10642.902    24.843718    24.784023    22.899347            0            0            0    14099.752    10919.425    9918.5833    11090.698   -459.59205    849.78157    1394.6862 
   85500    277.12579   -301.87337   -233.13226   -301.87337            0    6124.8973    24.758487    25.025141     22.94042            0            0            0    14213.531     6268.177    6404.8238    5701.6912    261.29787   -424.93882    353.14088 
   86000    280.42223   -303.29163   -233.73284   -303.29163            0    10914.711    24.809201    24.891992    22.853046            0            0            0    14112.908    13219.793    8904.8684    10619.473     560.7843    852.90144   -578.03242 
   86500    281.97565   -306.82596   -236.88184   -306.82596            0    8854.9031    25.044525    24.663048    22.965992            0            0            0    14185.504    8206.4831    9235.9313    9122.2948    772.37781   -1178.9082   -385.56608 
   87000    278.77975   -304.77159   -235.62021   -304.77159            0    7946.5896    24.874513    24.743494    22.939429            0            0            0    14118.814    9931.7371    7278.0092    6630.0226    1620.9069     747.2517    1130.3029 
   87500    277.46393   -303.99816   -235.17318   -303.99816            0     8480.376    24.722374    25.040979    22.924828            0            0            0    14192.129    9587.8197    8127.4525    7725.8558    -823.7685    1741.5203    1103.6653 
   88000    283.89501   -302.59729   -232.17707   -302.59729            0    10036.864    24.801974    24.958219    22.878418            0            0            0     14162.04    12372.805    9666.0089    8071.7782   -472.27778   -27.451959   -27.346998 
   88500    277.53037   -304.69797    -235.8565   -304.69797            0    10843.076    24.982724     24.76656    22.916238            0            0            0    14179.104    8305.2584    11846.711    12377.258   -962.99678   -1819.2714    908.89396 
   89000    270.42811   -306.44571   -239.36595   -306.44571            0    11290.165    24.946534    24.756489    22.931008            0            0            0    14161.929    11865.765    10798.139    11206.592   -689.30425    68.511726    736.96177 
   89500    277.25222    -307.6911   -238.91863    -307.6911            0    9505.5238    24.780877    24.905164    22.898028            0            0            0    14132.017    10284.211     9512.966    8719.3948    1027.7862   -667.32062   -2618.3496 
   90000    268.91266   -305.83371   -239.12987   -305.83371            0    8500.6871    24.815573    24.907542    22.895855            0            0            0    14151.812     9919.757    5210.6817    10371.623    825.45674   -2041.7546   -811.88083 
   90500    281.95331    -304.2241   -234.28552    -304.2241            0    10391.713    24.903063    24.803498    22.889845            0            0            0     14138.67    10257.893    9018.3037    11898.943   -471.88358    391.84961    228.73342 
   91000    275.91484    -304.7093   -236.26856    -304.7093            0    9326.3693    24.934752    24.815792    22.973573            0            0            0    14215.487    7715.1113    8951.2373    11312.759   -1589.2994    521.78531    881.02474 
   91500    276.30606   -304.99869   -236.46091   -304.99869            0    10018.706    24.765305    24.852938    22.938317            0            0            0    14118.318    14264.517    6569.9045    9221.6963   -2267.7945    -615.7097   -1412.9054 
   92000    275.33823    -304.1679   -235.87019    -304.1679            0    11858.637     24.86305    24.895844    22.892645            0            0            0    14170.241    10562.945     10633.17    14379.794    2221.6329   -2189.8729    43.360866 
   92500    277.20713   -303.49611   -234.73482   -303.49611            0    6434.2466    24.980339    24.878797    22.843998            0            0            0    14197.106     8931.054    7233.2959      3138.39   -28.416299    2161.1205   -112.88652 
   93000     279.7913   -303.74825   -234.34595   -303.74825            0    9072.1631    24.904212    24.732251    22.882466            0            0            0    14094.162    6897.4953    11717.601    8601.3931    1159.2196   -931.21569     1258.779 
   93500    270.46156    -304.0446   -236.95655    -304.0446            0    9235.8779     24.83646    24.917892    23.040054            0            0            0     14258.85     7430.034      9649.09     10628.51   -2583.8663   -1149.2131    954.08553 
   94000    280.42694   -304.80738   -235.24742   -304.80738            0    11430.829    24.734884    24.872267    22.869451            0            0            0    14069.575    12176.016    10850.642    11265.828   -1573.9673   -923.92176    49.288955 
   94500    276.77525    -305.4327   -236.77853    -305.4327            0    9220.4925    25.000371    24.873726    22.867446            0            0            0    14220.176    11371.672    8046.4335    8243.3718    -1138.736   -903.63928   -1098.2031 
   95000    277.97709   -305.69128     -236.739   -305.69128            0    9093.7325    24.934548    24.772386    22.827526            0            0            0    14100.294    6803.2745    12289.385    8188.5384   -983.55728    -1698.232   -28.507797 
   95500    274.10238   -303.04742   -235.05626   -303.04742            0      7555.31     24.77284    24.945767    23.005195            0            0            0    14216.693    10266.998    6917.5721    5481.3604    672.24064     1626.988   -1214.2352 
   96000    281.50307   -304.55415   -234.72726   -304.55415            0    11091.137    24.765026    24.907835    23.010899            0            0            0    14194.116    12318.035    9954.3259    11001.049   -1585.7219   -493.84251   -1225.7524 
   96500    278.65157    -304.4898   -235.37022    -304.4898            0    10687.509    24.940075    24.748806     22.87711            0            0            0      14120.6    9367.0461     12166.08    10529.402    1077.2187    693.11454    696.45586 
   97000    279.42744    -304.7338   -235.42176    -304.7338            0    8488.8584    25.015064    24.864758    22.832596            0            0            0    14201.727    8371.6799    8093.4065    9001.4886   -904.75842   -2335.0683   -416.54136 
   97500    289.07958   -307.10231   -235.39605   -307.10231            0     9528.096    24.838641    24.856329    22.844566            0            0            0    14104.177    9788.1923    9364.3607     9431.735    2140.0012    37.893381    1008.7965 
   98000    278.23306   -305.38643   -236.37066   -305.38643            0    9045.9259    24.785333    24.856751    22.977237            0            0            0    14155.882    10118.285    7968.3357    9051.1574   -344.56765   -525.37673    133.77489 
   98500    273.08071   -305.14761   -237.40988   -305.14761            0    8593.9498    24.831872    24.831709    22.968023            0            0            0    14162.493    5602.0059    9917.2452    10262.598    538.95069   -291.50926   -1906.6752 
   99000    279.03936   -304.38611   -235.17034   -304.38611            0    11209.103    24.874833    24.783104    22.839376            0            0            0    14079.918     9129.726    11327.375    13170.209    853.58428   -2151.2228    916.56558 
   99500    286.56985   -303.00689   -231.92317   -303.00689            0    7542.6886    24.963485    24.985379    22.868488            0            0            0    14263.582    7000.2585    7628.7612    7999.0462   -1230.1124    638.63606   -582.62878 
  100000    280.09312   -303.56509   -234.08793   -303.56509            0    11260.288    24.726999    24.902299    22.857328            0            0            0    14074.608    13339.413    9453.6902     10987.76    1400.6163   -1367.4502    2456.9787 
  100500    283.95362   -306.01959   -235.58484   -306.01959            0    9450.1787    24.834114    24.874449    22.988049            0            0            0     14200.52    9628.1985    10843.237    7879.1006   -726.38638    2232.3182    2113.6566 
  101000    283.04226    -305.5772    -235.3685    -305.5772            0     10086.01    24.904356    24.777118    22.945781            0            0            0    14158.882    9827.5472    11180.789     9249.695   -368.72781   -3478.2327   -1706.8004 
  101500    275.73672   -303.20398   -234.80742   -303.20398            0    9425.4161    24.907272    24.837419    22.774801            0            0            0    14089.229    7849.8472    8995.3154    11431.086    706.66731    1994.2015   -3171.5055 
  102000     280.9838   -303.25352   -233.55542   -303.25352            0    7874.6743    24.896518    25.064732    22.842832            0            0            0    14254.488    6011.8565    7252.3337    10359.833   -1335.9559    -1497.411    1154.8372 
  102500    284.59255   -306.50275    -235.9095   -306.50275            0    10718.578    24.758565     24.78154    22.950635            0            0            0    14081.486     15043.54    10204.681    6907.5141     180.0153    2184.2985    102.81168 
  103000    270.79979   -304.62377   -237.45182   -304.62377            0    7869.8371    24.894942    24.655199    23.112676            0            0            0    14186.323    6873.9552    10376.417    6359.1393   -1474.9494   -242.11127    507.61189 
  103500    278.74405   -305.07962    -235.9371   -305.07962            0    8776.4054    24.858503    24.774771    22.926815            0            0            0    14119.794    10329.968     7708.773    8290.4748    1521.8628   -463.51592    3.4320164 
  104000    281.91709   -304.81121   -234.88162   -304.81121            0    10001.426    24.824485     25.04222    22.753016            0            0            0    14144.644    13888.831    6394.0577    9721.3903    2523.3546   -1572.0452    -1565.366 
  104500    275.72854   -305.36374   -236.96921   -305.36374            0    5949.2874    24.859053    25.010439    22.769528            0            0            0    14156.631      5354.35    5021.4865    7472.0257    372.28927   -447.60425     2642.315 
  105000    278.63105   -302.61893   -233.50444   -302.61893            0    11082.673    24.889103    24.781443    22.934092            0            0            0     14145.47    10390.225    11458.414    11399.381   -1174.6894    2199.6973   -354.79843 
  105500    286.58808   -302.61208   -231.52384   -302.61208            0    7831.0393    24.860648    24.766177    23.007745            0            0            0    14165.942    7792.7219    8595.3006    7105.0956    235.28993    503.45696    2534.4125 
  106000    278.77952   -303.85024   -234.69892   -303.85024            0    9162.6721    24.840799      24.8773    22.920329            0            0            0    14164.122    12179.705    4627.1776    10681.133    939.02928   -315.49487    531.32238 
  106500    278.84614   -302.64434   -233.47649   -302.64434            0     8423.437    24.866397    24.918265    22.812183            0            0            0    14135.055    7206.2919    9195.2421    8868.7771      1035.46   -2857.0015    557.91354 
  107000    280.71042   -304.95871   -235.32843   -304.95871            0    7965.6233    24.896789    24.910199    22.833035            0            0            0    14160.682    9120.3081    6850.1607     7926.401    457.83385   -1645.7446   -555.71018 
  107500    288.41239   -304.35644   -232.81569   -304.35644            0    8972.6734    24.834784    24.812949    22.963463            0            0            0    14150.642    11730.033    8410.5883    6777.3991    745.23709   -730.30213   -2467.6848 
  108000    283.32272   -303.63624   -233.35798   -303.63624            0    10325.154     24.76372    24.796272    23.056027            0            0            0    14157.506    11128.033    12137.451    7709.9793   -829.21346    166.15138    -1435.719 
  108500    280.12686   -303.49809   -234.01257   -303.49809            0    8139.4155    24.921761     24.83487    22.934972            0            0            0    14195.112    5884.2682    9096.9997    9436.9787    -1152.761   -245.79979    709.36603 
  109000     281.8994   -305.35239   -235.42718   -305.35239            0    9671.0044    24.941112    24.876499    22.721767            0            0            0    14097.665    8985.3634    9324.1117    10703.538    976.79563    418.08323   -2687.1863 
  109500    274.46455    -303.4035    -235.3225    -303.4035            0    9065.3056    24.889307     25.02086    22.822415            0            0            0    14212.701    9753.7921     7281.726    10160.399   -2599.3609    1028.8571   -1469.6539 
  110000    285.13296   -305.28952   -234.56223   -305.28952            0    7569.6713    24.723173    24.852544    22.992623            0            0            0    14127.443    8951.4811    4079.2024    9678.3306   -229.86016    461.34252    931.21194 
  110500    278.14133   -306.60003   -237.60702   -306.60003            0    9611.1177    24.787848    24.661297    23.129884            0            0            0    14139.309    8434.7088    12547.596    7851.0482    1391.9747   -470.85122   -611.66912 
  111000    275.26956   -303.92284   -235.64217   -303.92284            0    9214.0703    24.936428    24.744112    22.970202            0            0            0    14173.299    6821.1908    11113.325    9707.6955   -32.477474   -541.94968   -662.70645 
  111500     278.4224   -304.04938   -234.98665   -304.04938            0    11336.265    24.902179    24.924205    22.744255            0            0            0    14116.609    14069.777    12141.261    7797.7557   -1314.6118    364.90998   -375.96042 
  112000    275.90835   -304.91382    -236.4747   -304.91382            0    5326.0703    24.893448    24.985669    22.766182            0            0            0    14160.097    8382.5978     2463.875    5131.7382   -443.98505    3394.0503    798.29094 
  112500    274.10396   -304.82888   -236.83733   -304.82888            0    5942.3441    24.832674    24.825701     22.86869            0            0            0    14098.285    5625.8963    5682.9678    6518.1683   -1048.2321    962.13231    -398.7999 
  113000    277.33749   -305.06969   -236.27607   -305.06969            0    7340.0508    24.881016    24.798883    22.983302            0            0            0    14181.189     7912.836     5464.112    8643.2044    174.46166    2091.9381   -344.26347 
  113500    283.69687   -304.56762   -234.19655   -304.56762            0    10109.425    24.877589    24.832827    22.935152            0            0            0    14168.898    10180.044    11161.834    8986.3972    -1302.183    69.270064    1820.9169 
  114000    277.20556   -304.31061   -235.54971   -304.31061            0    9251.3806    24.831443    24.881392    22.818085            0            0            0    14097.945    9191.1602    9858.6122    8704.3693    62.007212    1533.1058   -855.03606 
  114500    284.92113    -304.2153   -233.54055    -304.2153            0    11513.617    24.881283    25.001976      22.8748            0            0            0    14229.984    10661.472    12134.868    11744.511   -688.64448     635.6092    1179.2632 
  115000    284.62471   -302.91246   -232.31124   -302.91246            0    10204.687    24.799691    24.808261    22.875881            0            0            0    14074.093    14147.169    7075.4612    9391.4315   -369.69732    687.29857    1419.5002 
  115500    275.99711   -303.76573   -235.30459   -303.76573            0    7057.8763    24.927891    24.833948    23.014477            0            0            0    14247.294    6588.8076    4336.4719    10248.349    116.41883    135.76999   -849.31894 
  116000     272.8523   -305.88338   -238.20231   -305.88338            0    8367.2357    24.806059    24.837989    22.914863            0            0            0    14118.595    9414.5113     8613.187    7074.0089     1725.628    -293.8602    -1001.818 
  116500    287.57869   -305.84279   -234.50883   -305.84279            0    10059.905    24.804154    24.901507    22.882403            0            0            0    14133.563    10188.475    7960.9273    12030.313   -490.99202   -112.06005   -581.58824 
  117000    275.69616   -305.94417   -237.55767   -305.94417            0    7574.1502     24.85754    24.962035    22.912733            0            0            0    14217.232     5064.421    10469.611    7188.4187   -1990.9565     1714.779    1175.7121 
  117500    272.73762   -305.25342   -237.60079   -305.25342            0    11405.962    24.812517    24.767514    22.850595            0            0            0    14042.705    11611.848    10136.967    12469.071    1207.6772   -3201.7405   -305.45931 
  118000     276.9592   -307.20748   -238.50769   -307.20748            0    8144.6144    24.907422    24.868626    22.991599            0            0            0    14241.304     7432.577    8665.9436    8335.3225   -1277.6252    1023.7049   -964.40703 
  118500    287.29096   -306.34954   -235.08695   -306.34954            0    10359.462    24.765465    24.778939    22.945468            0            0            0    14080.761    11316.502    9348.7825    10413.103     1431.021   -1626.8346    55.972173 
  119000    278.25102   -305.03051   -236.01028   -305.03051            0    8489.3085    24.817074    24.960588    22.900001            0            0            0    14185.378    8976.8491     6450.943    10040.133    1139.6568   -1627.1365    -1175.764 
  119500    281.58142   -304.10774   -234.26141   -304.10774            0    6736.2212    24.958575      24.9347    22.803282            0            0            0    14191.271    6319.7163    6532.4181    7356.5292    1359.7719   -445.55156    1104.7257 
  120000    283.92229   -304.73671   -234.30973   -304.73671            0    7845.8657    24.935475    24.833063     22.83764            0            0            0     14141.62    6978.3848    8162.0326    8397.1798   -1318.3936    1633.1932    445.84614 
  120500    283.38981   -305.84684   -235.55193   -305.84684            0    9270.4347    24.856649    24.847713    22.963176            0            0            0    14182.767    8057.1401    10007.283    9746.8811   -264.77197    316.13758    202.49883 
  121000    277.50827   -304.40574   -235.56975   -304.40574            0    7526.4165    24.777946    24.891722    22.943262            0            0            0    14150.618    8027.9063    7719.1988    6832.1445   -1475.2809    -138.1808    376.17345 
  121500    281.19082   -306.12555   -236.37611   -306.12555            0    9068.0709    24.868124    24.875866    22.881851            0            0            0    14155.082    5800.6076    10829.629    10573.976    615.48897   -157.34194   -1485.9939 
  122000    277.73554   -303.28442   -234.39206   -303.28442            0    11168.954    24.921189    24.845976    22.886657            0            0            0    14171.218    11390.946    10286.214    11829.701   -667.68816   -2637.0394    3144.8713 
  122500    272.18107   -300.88596   -233.37139   -300.88596            0    8610.2999    24.864102    24.816636    22.949478            0            0            0    14160.823    8253.7212    7644.3087    9932.8697     348.8194    179.05343    134.85599 
  123000    285.59076   -306.58981   -235.74896   -306.58981            0    8963.7354    24.836563    24.877697    22.998135            0            0            0    14210.007    9316.2271    10395.929      7179.05   -2015.7793    756.25755    1344.7258 
  123500    277.68884    -303.9719   -235.09112    -303.9719            0    10356.337    24.773617    24.838603    22.878771            0            0            0     14078.27    8277.6202    11231.574    11559.816   -129.05712   -473.90557   -411.85982 
  124000     280.3769   -304.54059   -234.99304   -304.54059            0      6688.84    24.944648    24.933631     22.86245            0            0            0    14219.544    5630.8634    6966.0567       7469.6     353.4642   -354.97003   -1987.2027 
  124500    285.87583   -303.75111   -232.83954   -303.75111            0    10832.321    24.917464    24.818643    22.820146            0            0            0    14112.381    9607.5795    11256.117    11633.266   -566.02392   -856.80766   -721.54321 
  125000    284.46204   -301.91777    -231.3569   -301.91777            0    12129.404    24.867284     24.81331     22.92687            0            0            0    14146.787    12075.514    10245.017    14067.679    1193.5082    712.88603   -157.33515 
  125500    279.63286   -304.19219    -234.8292   -304.19219            0    7173.2729    24.797879    24.897998    23.062263            0            0            0    14239.046    8358.3366    7168.7886    5992.6934     672.0367    3158.3334    -202.4233 
  126000    288.38388   -304.03826   -232.50458   -304.03826            0    9703.5582    24.694963     24.84492    22.937333            0            0            0    14073.071     11856.69    8730.0927    8523.8921    49.411252    1068.0535   -1562.8256 
  126500    278.22242   -306.31671   -237.30358   -306.31671            0    5162.7795    24.969611    24.981537    22.900342            0            0            0    14284.758    4902.5884    3827.5919    6758.1581   -83.870702   -1112.8785    1302.6507 
  127000    278.44135   -302.78469   -233.71725   -302.78469            0     11652.34    24.912385    24.796662    22.756465            0            0            0     14057.67     13447.33    9654.9191    11854.771    1274.1988   -2022.7813    3661.5212 
  127500    281.34194   -304.87554   -235.08861   -304.87554            0     9236.349    24.979321    24.905291    22.919101            0            0            0    14258.368    8711.5242    9007.3484    9990.1744   -2591.5179   -299.25541   -947.38267 
  128000    278.58583    -303.6302   -234.52693    -303.6302            0    9856.6862    24.748595    24.893512     22.88124            0            0            0    14096.662    8985.7026    10290.861    10293.495    70.403182   -468.48472   -2034.9955 
  128500    285.62082   -306.11751    -235.2692   -306.11751            0    6759.0563    24.804989    24.955088    22.962063            0            0            0    14213.763     7084.825    6270.4433    6921.9007   -1101.4598    883.40845    1409.4594 
  129000    284.16215   -304.46749   -233.98101   -304.46749            0    8873.0466    24.898715    24.839678    22.879982            0            0            0    14150.721    7323.7365    9397.4117    9897.9917   -767.40502   -1499.6845   -298.27698 
  129500    286.03708   -304.90651   -233.95495   -304.90651            0    7316.8219    24.958099    24.894286    22.834856            0            0            0    14187.617    8182.1402    7337.4553    6430.8701   -627.55588   -750.62779    663.52837 
  130000    277.60964   -303.78879   -234.92766   -303.78879            0     10828.77    24.831774    24.956378    22.884032            0            0            0     14181.49    11567.834    10331.504    10586.973    561.98742    597.51075    771.30246 
  130500    284.00091   -304.27193   -233.82544   -304.27193            0    11317.849    24.707915    24.881724    22.920864            0            0            0    14091.186    12196.559    12756.364    9000.6237    322.26238    1963.2557    -1524.294 
  131000     267.8334   -304.77371   -238.33758   -304.77371            0    5195.4833    24.919583    24.871735     23.04899            0            0            0    14285.609       3935.9    7265.2874    4385.2624    51.624625    652.50084    982.94455 
  131500    274.80372   -305.54717   -237.38205   -305.54717            0     14971.33    24.832948    24.728556    22.784674            0            0            0     13991.68    15014.236    15038.382    14861.372    535.17869    -116.6294    1159.8275 
  132000    282.98459   -307.28795   -237.09356   -307.28795            0    7073.1306    24.899063    25.018162    22.858352            0            0            0    14239.126    6269.0965    9920.3012    5029.9942   -1689.6967   -455.58884   -1327.8484 
  132500     282.0037   -302.70448    -232.7534   -302.70448            0    9438.7067    24.774634    24.936643    22.867808            0            0            0    14127.646    9080.8302     8569.855    10665.435   -1711.6587   -354.56089    1115.0463 
  133000    288.64456   -304.84824    -233.2499   -304.84824            0    8221.8806    24.909804    24.816766    23.004146            0            0            0    14220.721    8987.1358    9196.3221    6482.1838   -101.54673   -1508.3441    2220.1842 
  133500    278.86272   -304.71751   -235.54555   -304.71751            0    9617.3137    24.890911    24.805947    22.929576            0            0            0    14157.697    10212.387    9482.8436    9156.7105   -140.38551    16.034709     948.4463 
  134000    281.50158   -307.03241   -237.20589   -307.03241            0    7407.8192     24.78977    24.927175    22.834587            0            0            0    14110.381    9487.4446    6187.3622    6548.6508   -568.03521    806.35865    1541.3946 
  134500     288.9328   -304.77941   -233.10956   -304.77941            0    8372.4773    24.838368    24.950911    22.848797            0            0            0    14160.312    8381.4189     5190.508    11545.505   -1255.2177   -700.50847    1210.3882 
  135000    272.58163   -305.66982   -238.05589   -305.66982            0    9085.2016    24.925735    24.800837    22.888891            0            0            0    14149.434    8687.9098    8973.5715    9594.1236   -36.838267   -5.2546271    940.01081 
  135500    273.74556   -303.48041   -235.57776   -303.48041            0    6624.9296    24.864327    24.787118    22.948888            0            0            0    14143.744    5427.4059     7604.277    6843.1061    1145.7925   -2207.3812     1763.631 
  136000    280.81142   -304.48536   -234.83003   -304.48536            0    9788.0649    24.817374    24.964549    22.909244            0            0            0    14193.527    7660.8658    10729.946    10973.383   -685.18244   -555.38445    168.40626 
  136500    284.24112   -304.71919   -234.21312   -304.71919            0    11463.365    24.805158    24.932581    22.803363            0            0            0    14102.891    10215.287    11638.815    12535.994    1024.5024   -1508.1295    613.87981 
  137000     277.9225   -303.13181   -234.19307   -303.13181            0    6079.7413    25.010923    24.820768    22.915647            0            0            0    14225.812    6076.3472    6807.3584    5355.5182   -654.25253    924.41541    2307.9944 
  137500    288.69796   -302.93255   -231.32096   -302.93255            0    10288.925    24.924355     24.62855    22.933884            0            0            0    14077.981    10303.805     11535.21    9027.7596    1767.3908   -32.474127     729.4267 
  138000    275.39008   -302.44151   -234.13094   -302.44151            0    5186.5365    24.872248    24.941963    23.019039            0            0            0    14280.153    8242.0625    4524.4662     2793.081   -1456.6578   -918.63499    1037.6678 
  138500     278.2478   -303.88013    -234.8607   -303.88013            0    9578.6241    24.659403     24.94246     22.86065            0            0            0    14060.813    11246.681    7626.2038    9862.9879     607.3739   -2730.8118    47.713311 
  139000    269.17584   -306.48337   -239.71425   -306.48337            0    8332.0284    24.937009    24.864985    22.822611            0            0            0    14151.351     5520.114    10035.847    9440.1239   -372.32797    1377.6447    2716.7358 
  139500    280.58257   -304.52681   -234.92824   -304.52681            0    8422.9865    25.093506    24.715222    22.857425            0            0            0    14175.983    5054.6111    10642.697    9571.6515    920.40595   -461.04911   -586.89457 
  140000    286.49386   -304.65947   -233.59461   -304.65947            0    9464.6915    24.856188    24.795163    22.911643            0            0            0    14120.749    10859.119     9816.709    7718.2465   -784.87599    2409.3672    2146.1773 
  140500     278.2221   -301.56498   -232.55193   -301.56498            0    7490.6319    24.823557    24.971069    22.961426            0            0            0    14233.117    6819.5641    6781.2943    8871.0373    1284.1158    -566.2385    373.36737 
  141000    284.75028   -305.92996   -235.29759   -305.92996            0    9909.5219    24.840454    24.847815    22.878966            0            0            0    14121.607    9287.5667    11097.429    9343.5699    1201.5238    3581.5053    2170.8442 
  141500    273.96821   -303.71005   -235.75217   -303.71005            0     9050.904    24.921819    24.789337    22.904959            0            0            0    14150.578    8231.1288    7933.2214    10988.362   -548.60275   -2027.7225   -408.20188 
  142000    285.37676   -305.06489   -234.27712   -305.06489            0    7422.4077    24.868357    24.863502    22.940161            0            0            0    14184.232     7554.421    9771.7178    4941.0842    1899.3119    1172.5069    558.44243 
  142500    287.40478     -304.079   -232.78818     -304.079            0    12544.764    24.812119     24.93037    22.889703            0            0            0    14159.006     15495.89    8296.7946    13841.606    133.61887    2608.5886    261.37904 
  143000    280.84698   -304.45236   -234.78821   -304.45236            0    8413.7113    24.955697    24.920117    22.883253            0            0            0     14231.07    8995.3525    7297.4716      8948.31   -2196.9769   -2087.3573    748.25625 
  143500    290.38989   -305.75587   -233.72459   -305.75587            0    9522.2807    24.900506    24.710516    22.861253            0            0            0    14066.629    9170.7807     10465.62    8930.4419    1199.1613   -142.53555   -685.51915 
  144000    275.27631   -302.51101   -234.22867   -302.51101            0    5581.9772    24.871589    24.939473    23.061892            0            0            0     14304.93    10567.945    4017.6637    2160.3227   -1024.6338   -755.75246   -1061.7335 
  144500    285.43924   -303.51809   -232.71483   -303.51809            0    10304.563    24.672596    24.906326    22.880794            0            0            0    14060.333    9850.5971    11776.061    9287.0321    2701.1563     -661.549    855.78329 
  145000    272.59971   -302.53281    -234.9144   -302.53281            0    9535.1137    24.935067    24.949265    22.831912            0            0            0    14203.997    7969.4952     8970.574    11665.272    89.971768    -1583.756    1466.7701 
  145500    279.40773   -303.40239   -234.09524   -303.40239            0     7432.553    24.962365    24.807505    22.859039            0            0            0    14155.551    5741.8954     8933.869    7621.8947   -38.227297   -2956.0416    45.892713 
  146000    277.16191   -304.18758   -235.43751   -304.18758            0    6614.3156     24.82279    24.814507    22.941658            0            0            0    14131.265    4054.3346    9159.3733    6629.2389    1502.2937    1656.2442    1292.7653 
  146500    269.24818   -303.20187    -236.4148   -303.20187            0    10169.485    24.770845    24.870759    22.959762            0            0            0    14144.814    11302.508    8733.5705    10472.376   -2377.4833   -431.16975    2381.3632 
[...]
  365000    283.39532   -303.76124   -233.46496   -303.76124            0    9651.5367    24.936362    24.848203    22.813989            0            0            0     14136.09    8444.8899    9394.5382    11115.182    1023.8741    1302.2791    1938.6256 
  365500    277.82638   -303.03196   -234.11707   -303.03196            0    11277.621    24.727389    24.884053     22.99837            0            0            0    14151.303    9823.0686    12590.146    11419.648    74.770603   -686.38128   -922.05645 
  366000    280.63261   -302.26774   -232.65676   -302.26774            0    6763.0608    24.796058    24.897871    23.005996            0            0            0    14203.191    11285.325    4601.2275    4402.6301    1020.4362    2525.6334    1551.2547 
  366500    278.67938   -303.22407   -234.09759   -303.22407            0     8059.977    24.886279    24.855889    22.842267            0            0            0    14129.555    7771.9605    8581.3208    7826.6497   -1070.7448    -455.5073    -261.6207 
  367000    275.95484   -305.07813   -236.62747   -305.07813            0    8788.6129    24.964975    24.871633    22.826593            0            0            0    14173.481     5436.144    10271.206    10658.489    119.20141     1948.803    2264.3846 
  367500    284.48055   -305.26029   -234.69482   -305.26029            0    8225.4861    24.839804    24.888782    22.884734            0            0            0    14148.086    9077.1061    7606.3216    7993.0308    497.96337    -947.4114    1787.3051 
  368000    287.19494   -305.10151   -233.86274   -305.10151            0    7324.7809    24.734732     24.86884    23.052342            0            0            0    14180.051    9229.0285    7988.7629    4756.5512    930.75817   -537.00697    536.13987 
  368500    280.56695    -304.7591   -235.16441    -304.7591            0    11225.838    24.811424    24.836309    22.990017            0            0            0    14167.005    11986.215    10529.823    11161.477   -180.64986   -282.75359    281.28103 
  369000     288.5632   -305.24148   -233.66331   -305.24148            0    11242.197    24.914709    24.914801    22.763371            0            0            0    14130.249    12751.411    10027.818    10947.363    1611.7381    652.63629   -471.77373 
  369500    280.18443   -303.20799   -233.70818   -303.20799            0    9961.4918    25.049705    24.959996     22.76266            0            0            0    14232.138    8553.5284    8362.3346    12968.612    -159.6151   -2798.0095    1104.1157 
  370000    283.83979   -303.02815   -232.62163   -303.02815            0    9589.9827    24.784246    24.835586    22.911309            0            0            0    14102.627     8147.408    11319.734    9302.8061    700.59955    648.49366    440.53394 
  370500    266.43437   -303.19353   -237.10443   -303.19353            0    7902.0622    24.758737    24.832095    23.102806            0            0            0    14203.866    7393.8224    7464.7839    8847.5801   -101.89392   -621.34768   -404.23889 
  371000    273.64038   -304.56416    -236.6876   -304.56416            0    9497.2433    24.842811    24.770757    22.951365            0            0            0    14123.702    8018.1729    9959.9725    10513.584   -744.42099   -794.81803    -368.2603 
  371500     279.5848   -304.81574   -235.46467   -304.81574            0    9596.6025    25.023529    24.880844    22.752406            0            0            0    14165.797    9038.8936     7150.343    12600.571   -509.05269   -423.28948    385.27075 
  372000    284.06771   -304.25047   -233.78741   -304.25047            0    10696.293    24.956758    24.932893    22.786103            0            0            0     14178.52    9468.0763    10204.385    12416.418   -1929.3346    -52.93984   -642.51077 
  372500     273.2271   -303.88064    -236.1066   -303.88064            0    7623.9379    24.724362    24.923362    22.996308            0            0            0    14170.652    9487.8478     7691.234    5692.7318   -215.93218   -847.05114    1242.6751 
  373000    270.28276   -307.02446   -239.98077   -307.02446            0    10188.628    24.690936     24.75162     23.06991            0            0            0    14098.961    13430.515    8421.0871    8714.2833   -152.90791    279.70007     2039.406 
  373500    284.58726   -305.45776   -234.86583   -305.45776            0    9447.8847    24.903045    24.797088     22.98416            0            0            0    14193.247    5790.4405      11112.1    11441.114    1041.1412   -422.43069   -2976.9204 
  374000    278.20817   -302.88423   -233.87463   -302.88423            0    11827.789       24.887    24.901521    22.795055            0            0            0    14126.646    9314.8043    11422.101    14746.462   -289.89489    312.05085   -342.96505 
  374500    289.38003   -302.97529   -231.19451   -302.97529            0    10556.579    24.899971    25.010719    22.811187            0            0            0    14206.036    10219.049    10548.836    10901.852    222.07563   -616.16442   -564.22721 
  375000    288.13091   -304.78296   -233.31202   -304.78296            0    8185.2792    24.874898    24.900339    22.880427            0            0            0    14171.985    8084.1684    5484.4644    10987.205    140.26161     269.0165   -1183.7899 
  375500    279.89441   -304.54816   -235.12029   -304.54816            0    8352.0547    24.867337    24.767834    22.968031            0            0            0    14146.242     8546.416     8404.316     8105.432   -774.89803   -111.36015   -443.74149 
  376000    285.64321   -303.58656    -232.7327   -303.58656            0      9351.53    24.878841    24.826069    22.965202            0            0            0    14184.316    9012.3941    10204.917    8837.2794   -390.06108   -234.77404    170.74482 
  376500    274.91915   -302.94988   -234.75612   -302.94988            0    8130.4808    24.876525     24.93406     22.81964            0            0            0    14154.401    9901.6022    5892.5724    8597.2678     1113.799    2196.3662   -1178.9477 
  377000    273.78345   -305.47659   -237.56455   -305.47659            0    10004.836    24.926777     24.94024    22.774807            0            0            0    14158.637    10234.094     9055.637    10724.778   -217.98679   -1030.3865    123.08449 
  377500    273.52876   -305.57042   -237.72155   -305.57042            0     8617.876    24.890768    24.815955    22.889857            0            0            0    14138.794    11460.058    8388.7187    6004.8511     322.2599   -743.02204    -454.0135 
  378000     279.4512   -304.63367   -235.31574   -304.63367            0    8457.8797    24.799947    24.850577    23.041653            0            0            0     14200.41    8296.8704    6952.1744    10124.594   -1408.3421   -349.27674    965.38251 
  378500    280.85759   -304.93092   -235.26413   -304.93092            0    8275.6798    24.737393    24.877692    23.000066            0            0            0    14154.453     10482.13    6002.2516    8342.6575    1180.7866    964.47658   -2170.0083 
  379000    280.89201   -304.86952   -235.19419   -304.86952            0     8767.717    24.995994    24.858754     22.78705            0            0            0    14159.173    5924.5182    10985.161    9393.4714   -2403.5044    104.22982     3030.031 
  379500    274.96261   -305.41578   -237.21125   -305.41578            0    6567.9971    25.138002     24.88951    22.705726            0            0            0    14206.349     6300.628    5833.2214    7570.1417    2162.0618    304.94532    51.877579 
  380000    275.51921   -307.28066   -238.93806   -307.28066            0    9397.2676    24.803964    24.913644     22.79269            0            0            0    14084.905    8246.0069    10686.613    9259.1834    118.21355    858.08127    302.72869 
  380500    271.89412     -302.433    -234.9896     -302.433            0    7222.0436    24.675935    24.962738      23.0777            0            0            0    14215.376    6993.8767    8148.7961    6523.4581    1961.1623   -874.31543    4005.7993 
  381000    283.14325   -304.65628   -234.42253   -304.65628            0      9337.87    24.833158    24.764185     23.03892            0            0            0    14168.312    8577.6045     10001.97     9434.036    235.24488    1014.3037   -2073.9451 
  381500    287.47601   -302.34004   -231.03156   -302.34004            0    8806.6578    25.029341     24.80912    22.848101            0            0            0    14187.664    6644.8325     10807.04    8968.1011   -3379.7182   -1316.6986    864.80553 
  382000    286.80328   -305.51099   -234.36937   -305.51099            0    9654.1948    24.933542    24.949825    22.784624            0            0            0    14174.031    7693.3424    8807.6284    12461.613   -554.95939    156.08758    226.27662 
  382500    289.49047   -303.45286   -231.64469   -303.45286            0    10990.919    24.723628    24.971813    22.916965            0            0            0    14148.793    13579.498    10401.609    8991.6504   -303.67536   -624.81649    1843.4596 
  383000    291.54579   -303.82544   -231.50745   -303.82544            0    7464.2191    24.822643    24.869512    23.015237            0            0            0    14207.927    6413.0321    9289.3009    6690.3242   -657.05773     998.2236     1044.519 
  383500     292.2113   -304.06499   -231.58192   -304.06499            0    10071.555    24.970523    24.749286    22.987209            0            0            0    14206.156    8919.8792    10073.569    11221.218    1093.6271    980.26287    585.68934 
  384000    278.37128   -306.23296    -237.1829   -306.23296            0    10598.461     24.87973    24.836645    22.902227            0            0            0    14151.951    10663.523    10107.221    11024.638    546.17624    3034.9741    508.73502 
  384500     278.9027   -305.91836   -236.73649   -305.91836            0    6766.9847    24.769187    24.988559    22.864685            0            0            0    14152.012    6609.6574    6534.1779    7157.1188   -1361.3424    467.80185   -35.386182 
  385000    272.33586   -305.51102   -237.95805   -305.51102            0    9136.6723    24.828878    24.926188    22.889652            0            0            0     14166.16    9599.2964    9368.4036     8442.317    915.91559   -2042.6927   -1421.5701 
  385500    271.93437   -303.95368    -236.5003   -303.95368            0    10212.508    24.923094     24.63573    22.946786            0            0            0    14089.295    10575.225    10636.908    9425.3901   -1388.0178   -996.84979   -78.811549 
  386000    283.65628    -303.9115    -233.5505    -303.9115            0    8098.0078    24.959856    24.813707    23.017869            0            0            0    14256.038    10012.062    6790.1041     7491.857    345.31091   -201.33912    1215.4511 
  386500    285.69342   -304.43186   -233.56555   -304.43186            0    12233.829    24.759961    24.934517    22.888747            0            0            0    14131.001     12887.58    11978.441    11835.465   -174.47416    1242.0689    777.87564 
  387000    282.08034   -305.48335   -235.51326   -305.48335            0    10265.647    24.807858    24.980222    22.838639            0            0            0    14153.237    8889.8958    9764.6645    12142.381    269.35744   -653.86076   -159.77103 
  387500    281.58921   -306.26996   -236.42169   -306.26996            0    8935.9569    24.990383    24.841729    22.879236            0            0            0    14203.529    8917.8756    8428.2599    9461.7352     263.8837   -863.88581    244.98798 
  388000    277.30055   -306.25632   -237.47186   -306.25632            0    8958.4711    24.848139    24.733154    22.945907            0            0            0    14101.931    10067.263    8133.9146    8674.2355   -452.26679     1348.543   -383.07036 
  388500    273.32832   -307.07257   -239.27342   -307.07257            0    8247.8042    24.779819     24.87387    23.039982            0            0            0    14201.153    6272.6323    9897.8984    8572.8819    1260.5932    1484.7978    -211.4156 
  389000    270.97285   -304.34049   -237.12561   -304.34049            0    10618.379    24.802854    24.875281    22.824633            0            0            0    14082.296     12455.59    8140.9926    11258.554    -529.8766   -1043.4331    908.87491 
  389500    268.77099   -305.84516   -239.17646   -305.84516            0    8963.9911    25.037815     24.87485    22.702675            0            0            0    14139.496    6907.2288    9777.7251    10207.019    751.36264    422.63878    2062.5394 
  390000    271.31533   -307.36961   -240.06978   -307.36961            0     7992.437    24.947906    24.848715    22.827351            0            0            0    14151.209    5923.9174    7739.0156    10314.378   -1031.0224   -1175.7386   -1054.9065 
  390500    279.32283   -303.68274   -234.39665   -303.68274            0     5845.908     24.67413    24.828101    23.027124            0            0            0    14106.687    6891.0579    7246.1347    3400.5315   -726.86413   -1275.7061   -669.92381 
  391000    285.00499   -305.32244   -234.62689   -305.32244            0     9358.698    24.732842    24.903575      23.1138            0            0            0    14236.626     11672.01      8286.99    8117.0939    581.15946    155.13942    404.15436 
  391500    284.17472   -304.08801   -233.59841   -304.08801            0    9583.1788    24.887182    24.772605    22.839774            0            0            0    14081.185    6391.4161    11149.878    11208.242    637.15556    1054.9803   -1762.6622 
  392000    275.40037   -305.34575   -237.03263   -305.34575            0    8939.6336    25.061331    24.868026     22.74723            0            0            0    14176.661    9511.7587    11180.264    6126.8785    1860.2558   -1766.5277    594.77119 
  392500    278.57544   -303.77461   -234.67391   -303.77461            0    9177.9998    24.882204    24.913718    22.767482            0            0            0    14113.749    9721.1413    8037.9878    9774.8704   -88.982037    363.50943    494.96803 
  393000    279.67844    -303.6403     -234.266    -303.6403            0    10597.614    24.805283    24.881516    22.950132            0            0            0    14164.662    11581.918    10025.247    10185.676    836.27464    190.11395    908.36636 
  393500    285.93626   -306.08853   -235.16198   -306.08853            0    9386.9642    24.810964    24.829554    23.018543            0            0            0    14180.463    10655.409    10050.402    7455.0815   -263.26235     997.8948   -2958.3672 
  394000    273.03516   -304.10469   -236.37826   -304.10469            0      7988.79    24.855692    24.814162    22.932355            0            0            0    14144.062    6971.9086    8084.5186    8909.9428     275.2187    606.47313    1405.4113 
  394500    274.40638   -302.38516    -234.3186   -302.38516            0    6649.9508    24.849012    24.908203    22.875029            0            0            0    14158.368    7417.0549     5846.532    6686.2654    1353.5358   -2321.4378   -356.25856 
  395000    276.14088   -303.88065   -235.38385   -303.88065            0    7402.7018    24.872047    24.916064    22.876623            0            0            0    14176.952    3458.3974    8516.3669    10233.341   -770.53016    2182.1453     1041.405 
  395500    282.48808   -306.76569   -236.69446   -306.76569            0    9786.0313    24.850957    24.814139    22.891793            0            0            0    14116.341    7088.3452    10294.587    11975.162    1784.4701    -1372.757   -721.97894 
  396000    277.81907   -306.34845   -237.43537   -306.34845            0      10497.5     24.85155     24.89698    22.944832            0            0            0    14196.622    11446.495    10968.884     9077.122   -810.70458    -980.1538   -456.11148 
  396500    281.81154   -302.20381   -232.30039   -302.20381            0    10660.679    24.773382    24.880763    22.814571            0            0            0     14062.46    11599.429    9513.1849    10869.423    118.66497    776.16837    66.272109 
  397000    282.57257   -307.53323   -237.44105   -307.53323            0    6015.5377      25.0233    24.893807    22.810576            0            0            0    14209.283     3498.561    6491.5742    8056.4781   -888.80219   -591.26193     331.2672 
  397500     276.5639    -302.5785   -233.97676    -302.5785            0    10368.265    24.941869    24.815256    22.818911            0            0            0    14123.511    9226.7491    11295.293    10582.752    1212.1732   -52.738702   -1655.0617 
  398000    274.70576   -304.13015   -235.98932   -304.13015            0    8951.3463    24.748073    24.862632    23.012901            0            0            0    14159.889    7310.4823    11539.405    8004.1516    501.33557    -788.4144   -1096.3135 
  398500    280.86041   -304.98482   -235.31733   -304.98482            0    10252.215    24.691207     24.92248     23.04872            0            0            0    14183.401    11592.474    10651.167    8513.0042    754.02787      1089.19    313.80396 
  399000    276.46115   -307.33273   -238.75648   -307.33273            0    8465.3042    24.868246    24.767954    22.830144            0            0            0    14061.898    6793.0261    8641.3696    9961.5168    1742.9153     3242.782   -309.75187 
  399500     273.3148   -306.42892   -238.63312   -306.42892            0    8053.6228    24.977837    24.830821    22.838164            0            0            0    14164.691    4628.4518    9832.0176    9700.3989   -109.07976   -3842.0556     3945.168 
  400000    274.84615   -306.04351   -237.86786   -306.04351            0    7913.5367    24.808371    24.833169    22.891707            0            0            0    14102.905    9778.1842    9015.5173    4946.9086    59.127905   -1855.7782     1416.742 
Loop time of 4399.76 on 1 procs for 400000 steps with 1920 atoms

Performance: 3.927 ns/day, 6.111 hours/ns, 90.914 timesteps/s
63.5% CPU use with 1 MPI tasks x 1 OpenMP threads

MPI task timing breakdown:
Section |  min time  |  avg time  |  max time  |%varavg| %total
---------------------------------------------------------------
Pair    | 3771.1     | 3771.1     | 3771.1     |   0.0 | 85.71
Bond    | 0.053434   | 0.053434   | 0.053434   |   0.0 |  0.00
Neigh   | 579.59     | 579.59     | 579.59     |   0.0 | 13.17
Comm    | 15.717     | 15.717     | 15.717     |   0.0 |  0.36
Output  | 2.5524     | 2.5524     | 2.5524     |   0.0 |  0.06
Modify  | 28.52      | 28.52      | 28.52      |   0.0 |  0.65
Other   |            | 2.229      |            |       |  0.05

Nlocal:        1920.00 ave        1920 max        1920 min
Histogram: 1 0 0 0 0 0 0 0 0 0
Nghost:        7176.00 ave        7176 max        7176 min
Histogram: 1 0 0 0 0 0 0 0 0 0
Neighs:         0.00000 ave           0 max           0 min
Histogram: 1 0 0 0 0 0 0 0 0 0
FullNghs:      549446.0 ave      549446 max      549446 min
Histogram: 1 0 0 0 0 0 0 0 0 0

Total # of neighbors = 549446
Ave neighs/atom = 286.16979
Ave special neighs/atom = 0.0000000
Neighbor list builds = 40000
Dangerous builds not checked

unfix		3
unfix		2

write_data	data.final.${pid}
write_data	data.final.0
System init for write_data ...

write_restart   restart.lmp.${pid}
write_restart   restart.lmp.0
System init for write_restart ...
Total wall time: 1:13:25
