LAMMPS data file via write_data, version 29 Sep 2021, timestep = 400000

1920 atoms
2 atom types

-0.011406733443813266 24.735811733445228 xlo xhi
-0.00866085814923423 24.733065858150262 ylo yhi
-0.021889191398551944 22.814261191397954 zlo zhi

Masses

1 1.008
2 15.999

Atoms # full

4 0 1 0 2.8227630893606186 1.3484991401250244 1.8980194354275168 0 0 0
5 0 2 0 3.192786706784435 1.466373968776845 2.7827797319702245 0 0 0
6 0 2 0 3.3539723413358655 2.049900379453402 1.4671979059700735 0 0 0
17 0 2 0 1.1277749453856187 1.458796244068271 1.9632234515740619 0 0 0
99 0 2 0 0.08358836140251769 3.9924217502108625 4.3514168961904796 1 0 0
16 0 1 0 0.13857284594921024 1.5517185510144949 1.928360113101888 0 0 0
387 0 2 0 3.810029734195674 0.04264070461008938 0.9642585648884765 0 1 0
19 0 1 0 4.713691534761711 3.0533579761157443 0.5399124909694701 0 0 0
2 0 2 0 5.534050559751485 1.407091411191647 3.1451412115569086 0 0 0
46 0 1 0 6.46290035358586 1.3997612319050645 1.7033136834945668 0 0 0
47 0 2 0 7.349503254717605 1.8443554321664506 1.8405334866487935 0 0 0
48 0 2 0 5.924180674728364 2.1155422383510794 1.2634136002789267 0 0 0
386 0 2 0 5.390758668615451 0.16110144822014452 1.0135218560040316 0 1 0
1 0 1 0 4.747943242321834 1.5519559522863906 3.7897346034157713 0 0 0
21 0 2 0 4.662037251350409 4.01431638343885 0.6772301247368135 0 0 0
45 0 2 0 7.142293244251647 3.4905068010267404 4.373605479735178 0 0 0
54 0 2 0 7.707519315035255 3.937954338646572 1.1348106309207795 0 0 0
32 0 2 0 11.655735054627831 1.690000458623425 3.680577195418597 0 0 0
34 0 1 0 9.066760628272608 1.988962247093365 2.1811530796126 0 0 0
35 0 2 0 9.542427759709591 2.028698047075657 3.0132729947689674 0 0 0
36 0 2 0 9.353706152327721 2.578661977232208 1.4997469962285044 0 0 0
49 0 1 0 10.893236997077212 3.6074217704651077 0.6723599297500664 0 0 0
51 0 2 0 11.592454095832304 3.2564692282672203 1.2947449165674279 0 0 0
31 0 1 0 10.826938373424815 1.6683835372000828 4.1417246120445625 0 0 0
42 0 2 0 9.284940208659028 3.9668829548793556 4.273076906974039 0 0 0
416 0 2 0 10.030226272777087 0.4289153359269491 1.4177082176110962 0 1 0
417 0 2 0 10.660421567248932 0.35616004202054585 0.05298343808494402 0 1 0
59 0 2 0 8.324103757653829 0.2798375559895751 3.9008201430437537 0 0 0
78 0 2 0 12.415315840428226 0.9418578127595904 1.308232672094718 0 0 0
38 0 2 0 12.628210659083063 3.8772891606032482 4.2532204589496265 0 0 0
76 0 1 0 12.607796048853803 1.4687598055784976 2.1069897909767277 0 0 0
64 0 1 0 15.457570231756844 1.4522420919487133 2.1201705882710478 0 0 0
65 0 2 0 15.948892476852393 1.4289501359512864 2.9934028338176506 0 0 0
66 0 2 0 15.638906873798572 0.6680129310355152 1.651656188540241 0 0 0
77 0 2 0 13.596039435665459 1.4122649584156275 2.2056078866708533 0 0 0
80 0 2 0 16.307145683600112 2.677397888161593 1.2879316568766068 0 0 0
75 0 2 0 14.644134099929476 3.4757961425493824 4.337185974027612 0 0 0
62 0 2 0 17.801588815689534 1.6786654476199256 3.5848618406140007 0 0 0
79 0 1 0 17.044339024005563 3.232765356385055 0.8365328216489565 0 0 0
106 0 1 0 18.778678660822134 1.220087690798497 2.0874223216821997 0 0 0
107 0 2 0 19.739778200735284 1.3025788968249337 2.1003871975408264 0 0 0
108 0 2 0 18.519828992508952 1.9860967332116166 1.6261531761098464 0 0 0
61 0 1 0 17.077175760990354 1.6557516032319637 4.211250619829819 0 0 0
68 0 2 0 18.807109888498406 4.0229610478862385 4.005344403484324 0 0 0
446 0 2 0 17.5566334873857 0.10579753423647816 1.2347873239715719 0 1 0
105 0 2 0 20.609928362687917 3.3192974586786805 4.477906759844916 0 0 0
1545 0 2 0 19.998115286606367 3.232706297821491 0.129619151119808 0 0 1
18 0 2 0 24.510336716552633 0.701737567049304 1.5282102807269546 -1 0 0
92 0 2 0 23.914914675826264 1.3326604070802983 3.5334006454477316 0 0 0
94 0 1 0 21.531248609879533 1.352776291346672 1.8045820920870925 0 0 0
95 0 2 0 22.025373082732663 1.3383376392408513 2.68844152546984 0 0 0
96 0 2 0 21.893844770044108 2.168257045562878 1.3764278065505575 0 0 0
109 0 1 0 23.21259872367897 3.127471636028028 0.45032903816071895 0 0 0
110 0 2 0 23.899464606020366 2.759246659685257 1.081941486877465 0 0 0
91 0 1 0 23.145740588137055 1.2771590175342158 4.10411725607272 0 0 0
111 0 2 0 23.384144835888875 4.073318908397822 0.38598095256814907 0 0 0
11 0 2 0 3.01367454416556 4.177391209528534 3.8939751846313078 0 0 0
24 0 2 0 2.170272148491458 4.6002342405479615 2.054023477621792 0 0 0
10 0 1 0 3.4347176265026107 4.970736745300658 3.357702262856792 0 0 0
22 0 1 0 1.4581887177585517 4.351917018975932 1.4524244906708546 0 0 0
23 0 2 0 1.4887940912358828 5.161033271674874 0.9083391899834503 0 0 0
124 0 1 0 3.1737528500005303 7.91911694602827 2.23298160219076 0 0 0
126 0 2 0 2.1863889717961755 7.9592427184990635 2.1653403041352144 0 0 0
27 0 2 0 4.067312496181537 6.186845745223748 1.5985353355629952 0 0 0
136 0 1 0 0.476251029281692 7.6933598459206705 1.8667219966963946 0 0 0
122 0 2 0 4.045210062945762 7.9877441225842585 3.7630925307903444 0 0 0
149 0 2 0 2.191666975183141 5.923021344777131 4.11314609107368 0 0 0
150 0 2 0 0.6552614877059306 6.08395557592294 4.406517449406064 0 0 0
98 0 2 0 0.08131735933663099 4.50529512220565 2.9155377437734193 1 0 0
138 0 2 0 0.07600299527668572 6.867140846557071 1.5290719701720066 0 0 0
12 0 2 0 4.385517936612593 4.96018433416371 3.6255816400679644 0 0 0
25 0 1 0 4.66963305308969 5.7630902546369 0.9395586434536625 0 0 0
8 0 2 0 6.715715690419583 4.717554485528259 2.9658399352037543 0 0 0
7 0 1 0 6.2098467517609555 4.83564452512161 3.764207292649285 0 0 0
9 0 2 0 6.6464501771369155 5.617475438125148 4.156331444637221 0 0 0
168 0 2 0 5.952147854693829 6.942802646615333 1.7064237957519601 0 0 0
166 0 1 0 6.3809138450375515 7.68350574067723 2.213581641545613 0 0 0
167 0 2 0 5.995371897968875 7.718746288856316 3.068823788486678 0 0 0
52 0 1 0 7.683069263478118 4.712531791949143 1.7024753351058355 0 0 0
156 0 2 0 8.0177765043335 7.813250755723869 2.253438100143759 0 0 0
121 0 1 0 4.743960091973248 7.860353488689313 4.397034618796358 0 0 0
1619 0 2 0 7.925314848288338 5.994467568014242 0.15065326783267424 0 0 1
26 0 2 0 4.5346012779643825 6.210416447193674 0.02353799171554325 0 0 0
53 0 2 0 8.420195276904005 4.6268192190068715 2.323002826315641 0 0 0
50 0 2 0 10.97543322788866 4.576890385816609 0.8297506361052779 0 0 0
41 0 2 0 10.378505468207441 4.92123815032457 3.6443846589330127 0 0 0
40 0 1 0 9.427710762456782 4.788011697648981 3.774472148100592 0 0 0
55 0 1 0 11.05796483942144 6.156490950194555 0.8041068636528327 0 0 0
56 0 2 0 10.323093184350734 6.49946848981153 1.3789348928256768 0 0 0
57 0 2 0 11.91472900847594 6.566323183781635 1.1723650472403677 0 0 0
152 0 2 0 10.185145151033137 7.939105403152811 3.486931261460396 0 0 0
154 0 1 0 9.030679834046795 7.71317063468764 2.1205727124204397 0 0 0
153 0 2 0 11.70862954121232 8.18814369242378 3.56045936888163 0 0 0
151 0 1 0 10.931495686312347 8.163270150147849 4.093729231260159 0 0 0
37 0 1 0 12.168030942077074 4.657603440804633 3.868266861167808 0 0 0
196 0 1 0 12.795497714927011 7.845910544844941 1.9823303028345807 0 0 0
39 0 2 0 12.660194959811228 5.4726153092545875 4.080527853113484 0 0 0
72 0 2 0 15.135940769157603 4.146639696202849 2.491366129914358 0 0 0
83 0 2 0 13.203594720461577 4.387097291728608 2.1687538590543074 0 0 0
82 0 1 0 13.790710493609938 4.352667929835192 1.3685852870633577 0 0 0
70 0 1 0 15.568722909166356 4.346975569672819 3.3704406959764017 0 0 0
84 0 2 0 13.84698776418623 5.239658790697144 0.983875219820177 0 0 0
184 0 1 0 15.454544461627899 7.890243832604068 2.1914457456604186 0 0 0
198 0 2 0 13.75813154893537 7.782459647348614 2.0158776306327715 0 0 0
186 0 2 0 15.586753842649049 7.962240010868025 3.1205594099444443 0 0 0
71 0 2 0 15.173968319839286 5.175078139644078 3.6351004066361114 0 0 0
86 0 2 0 15.898308264119906 6.437439558313502 1.197560659788965 0 0 0
87 0 2 0 16.613172393330405 5.02376944239851 0.9278379075426515 0 0 0
113 0 2 0 19.230340620199375 4.790984204443437 2.001136597675358 0 0 0
85 0 1 0 16.58732053068925 5.979728406904049 0.7102374137860494 0 0 0
69 0 2 0 17.406495030167246 4.483415971177426 3.536153626597688 0 0 0
67 0 1 0 18.31323906484331 4.819147600645531 3.705177596477214 0 0 0
112 0 1 0 19.929083852045895 4.53459703840808 1.3928886566228187 0 0 0
226 0 1 0 18.660245107391855 7.677823025206972 1.8253977916013089 0 0 0
228 0 2 0 18.072949060543536 6.968946130258819 1.535937168997843 0 0 0
183 0 2 0 17.86922250045906 7.651435964375489 3.631141744593902 0 0 0
181 0 1 0 17.22700664632064 7.770003445608798 4.3347962018967126 0 0 0
1679 0 2 0 20.1003989175996 5.659067970894931 0.09901027899673888 0 0 1
216 0 2 0 20.73498539601571 7.785053951047288 1.6576395844928156 0 0 0
114 0 2 0 20.69766801645509 4.449156859580501 2.0098884220287228 0 0 0
137 0 2 0 24.636077261902663 7.948364334576024 2.5292551704382387 -1 0 0
97 0 1 0 24.40349203049839 4.625967343665539 3.7842163972099954 0 0 0
102 0 2 0 22.621425437713345 4.417053784469346 3.62619155627654 0 0 0
100 0 1 0 21.658799358237825 4.380068663241536 3.6207523494813283 0 0 0
115 0 1 0 23.46867512713029 5.864538095292756 0.5926427514160073 0 0 0
116 0 2 0 22.833972530447713 6.445907086512756 1.081141680068835 0 0 0
213 0 2 0 22.795609417698913 7.714878770708237 3.3799650870102496 0 0 0
214 0 1 0 21.65882676703535 7.885279466077423 1.8942800854530466 0 0 0
101 0 2 0 21.340837016680798 5.267733526103062 3.93495369665604 0 0 0
211 0 1 0 23.35189585762229 7.523829575006645 4.1225863805513026 0 0 0
125 0 2 0 3.4664255082644826 8.595974988840188 1.6235841764489054 0 0 0
130 0 1 0 3.2543924858355866 10.69466707770789 3.518422139573022 0 0 0
142 0 1 0 1.4986700221623352 10.76760304493959 1.3035959509708894 0 0 0
143 0 2 0 2.2996525869794153 10.763797614644341 1.871487246129314 0 0 0
144 0 2 0 1.6312834427703207 10.077621487613111 0.7019266189122171 0 0 0
132 0 2 0 2.7942473323285713 11.483668679814715 3.785132403270804 0 0 0
135 0 2 0 2.381859145452503 9.211347137881171 4.331094069901471 0 0 0
269 0 2 0 0.794720688755478 11.994889801357303 4.2209477567573215 0 0 0
219 0 2 0 0.5028067108823874 10.37046818133266 2.5392179054955455 1 0 0
218 0 2 0 0.09429250784290921 9.966915979275688 3.9706090559533713 1 0 0
131 0 2 0 4.188304981244026 10.80397493601508 3.6045461107921963 0 0 0
139 0 1 0 4.9147324817636715 9.544705923898006 0.5565771080936703 0 0 0
141 0 2 0 4.733466420382425 10.520824277473546 0.6905575388771782 0 0 0
127 0 1 0 5.967985879490151 10.830748321392809 3.6514465019976514 0 0 0
129 0 2 0 6.456999018563031 10.692034962502412 2.8484037682388297 0 0 0
140 0 2 0 5.684830959624242 9.216556425617618 1.1091938732543283 0 0 0
172 0 1 0 7.762887855187806 10.920507918204665 1.5955480046272068 0 0 0
173 0 2 0 7.886184189350724 10.16941702420621 0.8932523893992099 0 0 0
145 0 1 0 4.669867428062845 12.263046316358238 0.8139982346161961 0 0 0
128 0 2 0 6.42389077567222 10.236103188522769 4.264110167762072 0 0 0
300 0 2 0 7.093880996340287 12.265743143568388 4.359952968888522 0 0 0
1740 0 2 0 7.855263693672342 12.047509220830836 0.17653133221855616 0 0 1
174 0 2 0 8.605317308905912 10.896133263567577 2.1170056551174627 0 0 0
155 0 2 0 9.19130423503124 8.514900700366313 1.6294481408233104 0 0 0
160 0 1 0 9.523438225087075 10.63253503497527 3.844132374248252 0 0 0
161 0 2 0 10.458343223774271 10.681409731217444 3.924805738218609 0 0 0
169 0 1 0 10.943630171510295 9.671739701423997 1.0108183968560491 0 0 0
171 0 2 0 10.893331353851027 10.651133970394984 1.0772477790741453 0 0 0
162 0 2 0 9.208613326600085 11.39187161119371 4.341318207176119 0 0 0
157 0 1 0 12.31960787954867 11.063695989387039 4.070605564637559 0 0 0
170 0 2 0 10.850351876846167 9.592845894037271 0.03478648438943622 0 0 0
197 0 2 0 12.398674996448316 8.638005338289457 1.5244265309272538 0 0 0
158 0 2 0 12.791773691595651 10.211653917656761 4.295124890207328 0 0 0
159 0 2 0 12.57863536331148 11.155418332322926 3.111325433694533 0 0 0
185 0 2 0 16.03544975530865 8.594942183521642 1.83513925760562 0 0 0
190 0 1 0 15.829918992360813 11.101017290167816 3.8334293940794546 0 0 0
192 0 2 0 15.577349620347146 11.304023431430846 2.9144901185857353 0 0 0
202 0 1 0 13.830841004861062 11.01764782310226 1.6233494239284145 0 0 0
203 0 2 0 13.713841470657266 11.612563282358126 0.8326105745917664 0 0 0
204 0 2 0 14.054160881056447 10.169860583984832 1.2266748727724348 0 0 0
191 0 2 0 16.78726270145638 11.036388691844278 3.9416908156366905 0 0 0
227 0 2 0 18.402244670392367 8.379393313334662 1.250608475752334 0 0 0
200 0 2 0 17.22644709102826 10.53712991949204 0.7153410098476243 0 0 0
199 0 1 0 16.92128801288522 9.568901806884455 0.6204810357824208 0 0 0
187 0 1 0 18.69616124070493 10.917623124183871 3.5777860783750346 0 0 0
189 0 2 0 18.914163208046734 10.525620642018083 2.703294922749219 0 0 0
232 0 1 0 20.151524628545054 10.592739388196021 1.3159663106130188 0 0 0
234 0 2 0 20.321652595792685 9.910837600831695 0.6694990114416012 0 0 0
188 0 2 0 18.81391080482136 10.069149588680146 4.115523843739127 0 0 0
205 0 1 0 17.153559482617922 12.063481557445177 1.1649817110085279 0 0 0
1800 0 2 0 20.318303375163868 12.072457554042119 0.10517179867242635 0 0 1
359 0 2 0 19.710795231459358 12.160635231950508 4.297544828742493 0 0 0
233 0 2 0 20.811244011505075 10.457689779879017 2.017393905239128 0 0 0
225 0 2 0 20.89432538002828 9.409063639102094 4.518803539461918 0 0 0
215 0 2 0 21.996992727047537 8.599581709944456 1.3568548745714526 0 0 0
217 0 1 0 24.657779476390626 10.630327732084867 3.312674250591024 0 0 0
220 0 1 0 21.81790135172769 10.64043317949903 3.5755767775128082 0 0 0
221 0 2 0 22.788342565742386 10.725737700378282 3.5115794758420376 0 0 0
222 0 2 0 21.48414297160694 11.394999753075043 4.0616130459756405 0 0 0
229 0 1 0 23.367356399634144 9.55691552298081 0.5810506781281257 0 0 0
230 0 2 0 24.179762308435897 9.140260846362803 0.7908281322834794 0 0 0
231 0 2 0 23.525818200900662 10.541958680518745 0.6616854345637405 0 0 0
235 0 1 0 23.654165493981154 12.151313097622642 0.711514645176746 0 0 0
244 0 1 0 3.0352485707789776 13.918673798604258 2.2787253071529654 0 0 0
245 0 2 0 2.0489301616019984 14.07250160173402 2.219821541709317 0 0 0
246 0 2 0 3.211550722877279 13.181018841808871 1.6433088795447126 0 0 0
256 0 1 0 0.254962474913213 14.086808140169342 2.203378756839218 0 0 0
251 0 2 0 2.882514687604341 16.159398817005144 3.9376314655350546 0 0 0
242 0 2 0 3.9262558046888136 13.900223076882662 3.8770079511028297 0 0 0
260 0 2 0 3.9931887745253514 15.200579058403541 1.1107074426299601 0 0 0
1694 0 2 0 1.6830073816082192 15.614373355683476 0.039122043305517204 0 0 1
147 0 2 0 5.4547662514207484 12.5636260969801 1.2450573599144923 0 0 0
259 0 1 0 4.382782215368748 15.663773840589839 0.41200141892952885 0 0 0
286 0 1 0 6.451192688575811 14.259909312767352 2.3305053020417215 0 0 0
287 0 2 0 5.9717975817569275 14.068267211113582 3.151399028995258 0 0 0
288 0 2 0 5.872333774380401 14.862204659349914 1.8646970897913608 0 0 0
241 0 1 0 4.742099304186842 13.943583619569399 4.372958325035998 0 0 0
1725 0 2 0 7.633336597487936 15.42891709063137 0.2539540194139508 0 0 1
248 0 2 0 6.361305200840219 16.43088713429349 4.058952055595595 0 0 0
175 0 1 0 11.323404436041201 12.511481743221749 1.1909922972643687 0 0 0
276 0 2 0 8.308183039737713 14.082399890427212 2.2895155589567255 0 0 0
176 0 2 0 10.442671320993353 12.902202508374458 1.4240064858236703 0 0 0
272 0 2 0 11.62349353281621 14.463377102888625 3.8980532853240155 0 0 0
274 0 1 0 9.253965315391921 14.010757051730621 2.235114207048232 0 0 0
275 0 2 0 9.429897444608454 13.907850329216007 3.202266534943209 0 0 0
289 0 1 0 10.950937994594478 15.747307504627505 0.9661240218479996 0 0 0
291 0 2 0 10.207033792169634 15.290700029601608 1.4174759865572062 0 0 0
281 0 2 0 9.469391701848311 16.2868871428311 3.9409659791426828 0 0 0
177 0 2 0 11.47047312912238 12.790494714979786 0.2975351399320709 0 0 0
317 0 2 0 12.233293943268967 15.29139556961304 2.0960987150294743 0 0 0
318 0 2 0 12.401408022752385 13.73382052079458 2.0786898763502433 0 0 0
316 0 1 0 12.672600476348032 14.559872026211105 2.5931760450694656 0 0 0
304 0 1 0 15.501960743391646 13.895516103278913 2.4796740336986693 0 0 0
305 0 2 0 14.540748327671599 13.762975628491647 2.368749100879497 0 0 0
306 0 2 0 15.92858767514172 13.082107242842037 2.1361058561211697 0 0 0
320 0 2 0 16.481828019201913 15.318268379576088 1.4257636460528997 0 0 0
311 0 2 0 15.28875819762626 16.37354042721876 4.210178901782051 0 0 0
1754 0 2 0 14.035602823365368 15.790127104443167 0.16043628815513034 0 0 1
302 0 2 0 16.662593277562436 14.072058682865665 3.8564230774004997 0 0 0
207 0 2 0 17.94685327534078 12.581667128631986 1.3911961198533833 0 0 0
319 0 1 0 17.243680561232573 15.617509075004019 0.8376413958545552 0 0 0
346 0 1 0 19.108098688883167 13.942523183550502 2.1290219057609083 0 0 0
347 0 2 0 18.62686943414045 14.57382414620492 1.5525052050998 0 0 0
348 0 2 0 18.809962790192454 14.009304298990106 3.0163459851359846 0 0 0
301 0 1 0 17.4143057454013 14.169076088542575 4.443429480438701 0 0 0
309 0 2 0 18.54881192867815 16.321525285948862 4.196519610540164 0 0 0
1784 0 2 0 20.513859138848215 15.3758646177609 0.12453378314321226 0 0 1
206 0 2 0 16.771776429824456 12.41871776941773 0.3184622085847718 0 0 0
335 0 2 0 20.71864901922549 13.609658096394037 1.8772677466090912 0 0 0
237 0 2 0 22.880536538294795 12.387434430251927 1.179729035352907 0 0 0
258 0 2 0 24.64720476980677 13.381782682152656 1.6551585079351514 -1 0 0
257 0 2 0 24.26987500273747 14.209332824861587 2.8534625792154853 -1 0 0
332 0 2 0 22.37361511252325 13.78205544353964 3.819144190727589 0 0 0
334 0 1 0 21.65148459507562 13.454135154360257 1.9715335976864248 0 0 0
336 0 2 0 22.095653447301345 14.171182337778296 1.4881305929576263 0 0 0
349 0 1 0 23.171307678963377 15.34287385343831 0.6186693714273199 0 0 0
350 0 2 0 23.947052938701102 15.161049930887765 1.1743677833971737 0 0 0
331 0 1 0 23.151595267280538 14.030532027571345 4.276709402240083 0 0 0
351 0 2 0 23.06065363175982 16.29037929764055 0.6713680767901801 0 0 0
263 0 2 0 2.468798629746778 17.218298708199107 1.852899605666298 0 0 0
264 0 2 0 0.9092751668224497 16.91595738036577 1.7066905400672912 0 0 0
250 0 1 0 3.261052016471081 16.858460062932004 3.375816310765382 0 0 0
262 0 1 0 1.7558437285650115 16.979627149047154 1.183480792080143 0 0 0
364 0 1 0 2.852614665739692 20.016831753064395 1.7119946215147084 0 0 0
366 0 2 0 1.8457774976939432 20.022730262624297 1.8492698693698357 0 0 0
376 0 1 0 0.1162326056501029 20.099794703587683 1.956704202176638 0 0 0
338 0 2 0 0.056814832340486204 17.783197284305317 3.7762692210520123 1 0 0
267 0 2 0 3.8420543745757567 18.912509576008834 0.9573683892970278 0 0 0
363 0 2 0 3.8541680139031946 20.592852916472854 3.488919156574956 0 0 0
390 0 2 0 2.126422268687459 17.990786244971456 4.328846378229347 0 0 0
252 0 2 0 4.236632143990919 16.870653261428174 3.534828263105094 0 0 0
292 0 1 0 7.573201194046105 16.911519158017885 1.451436519796772 0 0 0
249 0 2 0 6.207474565361803 17.127432858997917 2.714879031360964 0 0 0
247 0 1 0 5.880872708065362 17.12268573605012 3.626788585004082 0 0 0
265 0 1 0 4.556895804906046 18.468316541054747 0.49736270514576464 0 0 0
266 0 2 0 4.473241995606887 17.529644645345293 0.6893157810927664 0 0 0
408 0 2 0 5.944435715070973 19.367650655789095 1.4874394701318656 0 0 0
294 0 2 0 7.594659196133559 17.59416084321111 0.743307014323433 0 0 0
406 0 1 0 6.300287317791789 20.12354450565349 2.0033918033054943 0 0 0
407 0 2 0 5.989296433325369 20.09003780840123 2.906406166678668 0 0 0
361 0 1 0 4.587666064051538 20.393797701271975 4.073401851908287 0 0 0
395 0 2 0 8.079283520088829 20.021462078145934 1.7971543069143827 0 0 0
419 0 2 0 6.971753611387641 18.293951161935162 4.386847079971979 0 0 0
290 0 2 0 10.94532081191105 16.72846596056738 1.103896813901526 0 0 0
293 0 2 0 8.41063300424178 16.966447021295465 1.964181175123675 0 0 0
278 0 2 0 11.355428289726612 17.370391818329356 3.820061883704687 0 0 0
280 0 1 0 9.641393871162569 17.1895417181179 3.5554445219019133 0 0 0
295 0 1 0 11.177081773327872 18.31763652989269 1.090067017990718 0 0 0
296 0 2 0 10.30882243833918 18.69279805728808 1.2319911384196385 0 0 0
396 0 2 0 9.285006832660569 19.85414897824365 2.6291221681901416 0 0 0
394 0 1 0 9.044216424557947 19.978075400562457 1.6964421064617647 0 0 0
393 0 2 0 11.117577418802878 20.435876203450103 3.4412574236127056 0 0 0
282 0 2 0 9.084124022642204 17.83895509347425 4.058358246371771 0 0 0
277 0 1 0 12.325755077274428 17.145898927226238 3.7276654508022267 0 0 0
391 0 1 0 10.551921158933085 20.135880061987937 4.125027732882337 0 0 0
297 0 2 0 11.373278047064229 18.423804662222746 0.13816982011090953 0 0 0
437 0 2 0 12.484892912076356 19.98026568915706 1.6297887671774725 0 0 0
279 0 2 0 12.80101922521461 18.01475970296015 3.9629312285512173 0 0 0
310 0 1 0 15.636472015700198 17.121908448315732 3.708866621917003 0 0 0
324 0 2 0 14.598423099698156 17.194902484866624 2.0938691554771602 0 0 0
323 0 2 0 13.123531914774116 17.039211765714988 1.9663931291133576 0 0 0
322 0 1 0 13.910451828946297 17.20089701205248 1.4184243966039463 0 0 0
424 0 1 0 15.424403276132455 20.084302214032483 2.1845398711994295 0 0 0
312 0 2 0 15.455188815582241 17.945792908184767 4.212386981301208 0 0 0
425 0 2 0 14.52917219757974 20.427735361569198 2.413656909182247 0 0 0
326 0 2 0 16.31107763713157 18.729840709274743 1.2117561453644625 0 0 0
1890 0 2 0 14.05867633727823 18.175352487269663 0.2687301075501676 0 0 1
423 0 2 0 16.458828092153244 20.174397313106567 3.713255775940686 0 0 0
321 0 2 0 17.149445122235537 16.583362653379584 0.6374354714474372 0 0 0
353 0 2 0 19.090353303535355 16.920192523099214 1.9828916551711107 0 0 0
308 0 2 0 17.29291535820914 17.151241873428013 3.727936314458273 0 0 0
307 0 1 0 18.29039734668812 17.142326919669593 3.718305388956386 0 0 0
325 0 1 0 17.055564875855218 18.386136740569558 0.6764880746613263 0 0 0
467 0 2 0 18.38387896634232 20.256422040230387 3.0087521139585838 0 0 0
468 0 2 0 18.473791801020333 19.26762516758197 1.7965409099670515 0 0 0
466 0 1 0 18.83200297960907 20.10802206759653 2.135232810034613 0 0 0
354 0 2 0 20.061246861985705 17.50275748906227 0.9875955623689749 0 0 0
352 0 1 0 19.998000938505317 16.855543362214807 1.6861552185842192 0 0 0
421 0 1 0 17.086404665421092 20.371705611499397 4.456118708347675 0 0 0
455 0 2 0 20.55907998718974 19.793081103557675 2.3578903212527345 0 0 0
480 0 2 0 19.33944541497909 18.45425995651208 4.480046180454256 0 0 0
378 0 2 0 24.400311591408656 20.054499635316414 2.813788640040903 -1 0 0
337 0 1 0 24.545667210776294 16.982813715208092 3.294740372262711 0 0 0
342 0 2 0 21.243224974729305 16.689559800086734 3.011512816607685 0 0 0
340 0 1 0 21.808515538177186 16.94423747357742 3.694896617120693 0 0 0
339 0 2 0 23.570063483436446 17.034586954203096 3.2428739017758144 0 0 0
355 0 1 0 23.22352554849646 18.22565440950451 0.481025848405516 0 0 0
356 0 2 0 23.792460522376395 18.75743679759241 1.0152847695713842 0 0 0
453 0 2 0 22.56058064290698 19.887253092686013 3.58246788279727 0 0 0
454 0 1 0 21.47335188531129 20.0916933671625 2.1051172626990216 0 0 0
456 0 2 0 21.85282389728876 19.33695007158994 1.6677920151601235 0 0 0
341 0 2 0 21.390007767178 17.75474369040908 4.062399291016069 0 0 0
451 0 1 0 23.398263790790857 20.02844470452246 4.136929422369712 0 0 0
365 0 2 0 3.0814869580399287 20.82670694273011 1.191871753391357 0 0 0
370 0 1 0 3.175671987378218 23.27014156450993 3.5195997884995203 0 0 0
371 0 2 0 2.6170533857087084 23.308191127280214 2.756567756398573 0 0 0
382 0 1 0 1.4803264404397587 23.005499127359606 1.1589295280895122 0 0 0
383 0 2 0 1.7221473228755537 22.309647917612104 0.5242011441306041 0 0 0
384 0 2 0 1.3532124861419226 23.8314201305527 0.6265758480932303 0 0 0
372 0 2 0 2.890119094038918 24.001780477042598 3.9986954668808297 0 0 0
459 0 2 0 0.44207852990563107 22.982701987745497 2.6517050025051314 1 0 0
458 0 2 0 0.052122577960612204 22.186247288800583 3.915520434221118 1 0 0
29 0 2 0 0.892787112675619 24.666304172698123 4.380500453535253 0 -1 0
374 0 2 0 2.1138790225882076 21.484500373544627 4.468531960592816 0 0 0
385 0 1 0 4.638296602210479 24.473195451875466 0.5362825607845787 0 0 0
381 0 2 0 4.557949413548616 22.70857977248985 0.32819173366213994 0 0 0
379 0 1 0 4.621751239923979 21.766064521037176 0.4658014475005328 0 0 0
367 0 1 0 5.9488510564553145 23.088602139220537 3.413471648270275 0 0 0
368 0 2 0 5.00998908341594 23.271173000412237 3.6109536802083033 0 0 0
380 0 2 0 5.393584768051677 21.545085864102408 1.0426216565482649 0 0 0
414 0 2 0 7.097501463068141 22.966418097193827 1.923113783391477 0 0 0
369 0 2 0 6.311239838839289 22.518902388502703 4.144248188033196 0 0 0
412 0 1 0 7.626528098646559 22.981302937742196 1.1397278464122376 0 0 0
413 0 2 0 7.425269423421484 23.90158956207621 0.7634573752884181 0 0 0
60 0 2 0 6.963360432952998 24.482455406481055 4.314474549820286 0 -1 0
415 0 1 0 10.678843560008824 24.635720230162296 0.8759886329430245 0 0 0
400 0 1 0 9.482114244059941 23.03478622746506 3.2121476700648994 0 0 0
402 0 2 0 9.018008438008891 22.966628562147477 2.346799815793469 0 0 0
409 0 1 0 10.513088170634004 21.897985226380758 0.5722398350944746 0 0 0
410 0 2 0 9.745129250022854 21.426582008327806 0.8875081802731717 0 0 0
411 0 2 0 10.212236611174449 22.81025599594241 0.6265358724130438 0 0 0
401 0 2 0 10.39985957743618 23.02515967529859 2.911723333708133 0 0 0
397 0 1 0 12.206745917134146 23.221760305801144 3.1328014518171843 0 0 0
398 0 2 0 12.217073125040436 23.859513986829548 3.8912696726223266 0 0 0
405 0 2 0 8.52449178390708 21.820185080281032 4.146781526571436 0 0 0
436 0 1 0 12.727734449249802 20.648816581700675 2.2949791466662655 0 0 0
438 0 2 0 12.487158319349946 21.546465370815714 2.001902582334546 0 0 0
399 0 2 0 12.748036563853535 23.6028247815958 2.387044501160164 0 0 0
426 0 2 0 15.846002074362122 20.745770320437384 1.4762275137721868 0 0 0
430 0 1 0 15.681369682086848 23.37342732414143 3.5831331605629413 0 0 0
442 0 1 0 14.069745448204978 23.244592848536918 1.2569960869130965 0 0 0
443 0 2 0 14.773540529154142 23.092946753192457 1.9123781107276485 0 0 0
444 0 2 0 14.3540063403453 23.896956751188878 0.6735409000305996 0 0 0
431 0 2 0 15.44440852352348 22.743477015636117 4.2685105212244565 0 0 0
90 0 2 0 14.364606556547745 24.61305189847691 4.2369665175049995 0 -1 0
435 0 2 0 13.2040815329128 21.924344900211093 4.344130861598875 0 0 0
1875 0 2 0 14.07151309296064 21.751544192032537 0.21924316999063095 0 0 1
432 0 2 0 16.625975792921462 23.222787911837052 3.3209330814896076 0 0 0
445 0 1 0 16.99619357500755 24.573711159753962 0.5368427681659379 0 0 0
447 0 2 0 17.271161524572744 23.627195786433585 0.3819422991866376 0 0 0
427 0 1 0 18.472291915004345 23.1580906891176 3.3871037232542385 0 0 0
428 0 2 0 18.960749346475957 22.3854808460368 3.7167800162040106 0 0 0
429 0 2 0 18.857543148865016 23.899857161377543 3.8774874439527665 0 0 0
439 0 1 0 16.972639193340317 21.82741209182787 0.714890039212873 0 0 0
440 0 2 0 17.655383135067726 21.45173421443009 1.3717003645800023 0 0 0
474 0 2 0 19.631998226043773 23.224023168711252 1.9643325912610348 0 0 0
472 0 1 0 20.41170729329046 22.99586093235687 1.4080394572139574 0 0 0
473 0 2 0 20.443249328771806 23.84673053187351 0.8390797969284169 0 0 0
1905 0 2 0 20.032438994813244 21.843261201102564 0.28037649732760367 0 0 1
476 0 2 0 22.53204443456426 24.72631723905231 0.9520835235929236 0 0 0
377 0 2 0 24.399897305479808 20.818138153121275 1.464116610780649 -1 0 0
475 0 1 0 23.30417964597397 24.47776601719197 0.4394603375542257 0 0 0
457 0 1 0 24.641646519290106 23.057624358686382 3.5056258016802584 0 0 0
460 0 1 0 21.80131969394621 23.197909078389344 3.7598780796345994 0 0 0
461 0 2 0 21.57279883305595 23.2237939623799 2.7721825316712527 0 0 0
462 0 2 0 22.758796270514352 23.17587993212718 3.6304537923484865 0 0 0
469 0 1 0 23.154309275540744 21.822682343118696 0.5077028290278185 0 0 0
471 0 2 0 22.39932561382328 21.42979796823997 0.9353497225270081 0 0 0
477 0 2 0 23.110452929219164 23.486318066503816 0.3623041534311737 0 0 0
13 0 1 0 1.9679156882743594 2.938916668185586 4.6450040889045825 0 0 0
14 0 2 0 1.9531701544083102 1.9671917869669728 4.632708459492657 0 0 0
15 0 2 0 1.9038973295579429 3.230448490272899 5.569575939854618 0 0 0
484 0 1 0 2.967898190224281 1.5136913697967933 7.491587594290852 0 0 0
485 0 2 0 2.036459435553103 1.6155067098612683 7.601811809525801 0 0 0
486 0 2 0 3.348694806008741 2.2730285675167106 7.0673883446426915 0 0 0
496 0 1 0 0.1547340848532125 1.618645920186589 7.767385596689337 0 0 0
866 0 2 0 3.9896745114904286 0.49232016617579233 6.542352834622439 0 1 0
28 0 1 0 1.5628394141522082 0.3180993491365983 4.969200167829457 0 0 0
483 0 2 0 3.9376060995125592 1.4546740138068286 8.910739885078975 0 0 0
3 0 2 0 4.948894920751583 1.104437385550268 4.626447618554314 0 0 0
500 0 2 0 4.793784130948972 2.8173880112881178 5.327301353940999 0 0 0
499 0 1 0 4.792968510921393 3.1667946696285587 6.255159349135718 0 0 0
501 0 2 0 5.675427223618478 2.7328253570354826 6.5573287354605 0 0 0
526 0 1 0 6.574585645545978 1.4336354756485084 7.863832496854803 0 0 0
527 0 2 0 7.5121479913676374 1.7549489093518806 7.936419562537837 0 0 0
528 0 2 0 6.122406441004865 1.503791434432667 8.715740668287408 0 0 0
44 0 2 0 7.7221023188194255 2.1388312673462675 4.782231978615613 0 0 0
43 0 1 0 7.88601430522001 3.0909424597957016 4.852038868082899 0 0 0
867 0 2 0 5.562983819015495 0.3220257695444702 6.6581476251120275 0 1 0
58 0 1 0 7.608392013087071 0.4040791027676663 4.552438622940657 0 0 0
534 0 2 0 7.729984399366605 4.029166667461611 6.374969200047451 0 0 0
33 0 2 0 10.915834505155676 2.391485691889276 4.813668144309037 0 0 0
514 0 1 0 9.225023716123687 1.9790618546613283 7.874923744212524 0 0 0
516 0 2 0 9.47460320206928 1.266490259117714 7.282113158726568 0 0 0
529 0 1 0 10.811282936302701 3.424992775147309 6.258856888344264 0 0 0