LAMMPS (29 Sep 2021 - Update 2)
  using 1 OpenMP thread(s) per MPI task
echo both

include		in.partitions
variable        pid world 0
include		in.temp
variable        temperature equal 265
variable        tempDamp equal 0.100 # this is 0.1 ps
include		in.pressure
variable        pressure equal 9119.25
variable        pressureDamp equal 1.0 #this is 1ps
include		in.seed
variable        seed world 745823

units           metal
atom_style	full
include		in.box
read_data       iceVI.data
Reading data file ...
  orthogonal box = (0.0000000 0.0000000 0.0000000) to (24.724405 24.724405 22.792372)
  1 by 1 by 1 MPI processor grid
  reading atoms ...
  1920 atoms
Finding 1-2 1-3 1-4 neighbors ...
  special bond factors lj:    0        0        0       
  special bond factors coul:  0        0        0       
     0 = max # of 1-2 neighbors
     0 = max # of 1-3 neighbors
     0 = max # of 1-4 neighbors
     1 = max # of special neighbors
  special bonds CPU = 0.003 seconds
  read_data CPU = 0.017 seconds
include 	in.setup
variable	out_freq equal 500
variable	out_freq2 equal 500

timestep        0.0005

neigh_modify    delay 7 every 1

include         in.deepmd
# This is deepMD model

# create groups ###
#group ox type 2
#group hy type 1

mass 2 15.999
mass 1 1.008

pair_style      deepmd ../graph.pb
pair_coeff      * *

bond_style      none
angle_style     none
dihedral_style  none
improper_style  none
neigh_modify exclude none


neighbor        2.0 bin
neigh_modify    every 10 delay 0 check no

thermo          ${out_freq}
thermo          500
thermo_style 	custom step temp pe etotal epair emol press lx ly lz xy xz yz vol pxx pyy pzz pxy pxz pyz

restart 	${out_freq} restart.lmp.${pid} restart2.lmp.${pid}
restart 	500 restart.lmp.${pid} restart2.lmp.${pid}
restart 	500 restart.lmp.0 restart2.lmp.${pid}
restart 	500 restart.lmp.0 restart2.lmp.0


include         in.dump
dump            myDump all atom ${out_freq2} dump.water.${pid}
dump            myDump all atom 500 dump.water.${pid}
dump            myDump all atom 500 dump.water.0
dump            myDump2 all dcd ${out_freq2} dump.dcd
dump            myDump2 all dcd 500 dump.dcd
dump_modify     myDump append yes
dump_modify     myDump2 append yes


timer           timeout 03:55:00 every 1000
New timer settings: style=normal  mode=nosync  timeout=03:55:00

fix             2 all nph aniso ${pressure} ${pressure} ${pressureDamp}
fix             2 all nph aniso 9119.25 ${pressure} ${pressureDamp}
fix             2 all nph aniso 9119.25 9119.25 ${pressureDamp}
fix             2 all nph aniso 9119.25 9119.25 1
fix             3 all temp/csvr ${temperature} ${temperature} ${tempDamp} ${seed}
fix             3 all temp/csvr 265 ${temperature} ${tempDamp} ${seed}
fix             3 all temp/csvr 265 265 ${tempDamp} ${seed}
fix             3 all temp/csvr 265 265 0.1 ${seed}
fix             3 all temp/csvr 265 265 0.1 745823
velocity 	all create ${temperature} ${seed} dist gaussian
velocity 	all create 265 ${seed} dist gaussian
velocity 	all create 265 745823 dist gaussian

run             400000

CITE-CITE-CITE-CITE-CITE-CITE-CITE-CITE-CITE-CITE-CITE-CITE-CITE

Your simulation uses code contributions which should be cited:

- USER-DEEPMD package:

@article{Wang_ComputPhysCommun_2018_v228_p178,
  author = {Wang, Han and Zhang, Linfeng and Han, Jiequn and E, Weinan},
  doi = {10.1016/j.cpc.2018.03.016},
  url = {https://doi.org/10.1016/j.cpc.2018.03.016},
  year = 2018,
  month = {jul},
  publisher = {Elsevier {BV}},
  volume = 228,
  journal = {Comput. Phys. Commun.},
  title = {{DeePMD-kit: A deep learning package for many-body potential energy representation and molecular dynamics}},
  pages = {178--184}
}

CITE-CITE-CITE-CITE-CITE-CITE-CITE-CITE-CITE-CITE-CITE-CITE-CITE

Neighbor list info ...
  update every 10 steps, delay 0 steps, check no
  max neighbors/atom: 2000, page size: 100000
  master list distance cutoff = 8
  ghost atom cutoff = 8
  binsize = 4, bins = 7 7 6
  1 neighbor lists, perpetual/occasional/extra = 1 0 0
  (1) pair deepmd, perpetual
      attributes: full, newton on
      pair build: full/bin
      stencil: full/bin/3d
      bin: standard
Per MPI rank memory allocation (min/avg/max) = 9.089 | 9.089 | 9.089 Mbytes
Step Temp PotEng TotEng E_pair E_mol Press Lx Ly Lz Xy Xz Yz Volume Pxx Pyy Pzz Pxy Pxz Pyz 
       0          265   -333.91511    -268.1818   -333.91511            0    45444.285    24.724405    24.724405    22.792372            0            0            0     13932.89    46119.063    47474.404    42739.388   -806.07485   -393.00169   -355.09051 
     500    243.62499    -311.3982   -250.96697    -311.3982            0    4985.3969    24.828154    24.866806    22.874363            0            0            0     14122.56    6988.3395    6374.8727    1592.9785   -1569.4054   -1985.7922    1171.5452 
    1000    268.19845   -311.21295   -244.68626   -311.21295            0    8107.8076    24.841224    24.854985    22.846729            0            0            0    14106.216    8164.6937    6480.1144    9678.6145    285.99338   -1328.9057   -922.66524 
    1500    265.51111   -310.06939    -244.2093   -310.06939            0    15506.609    24.871865    24.744748    22.792677            0            0            0    14027.708    14250.774    17100.877    15168.175    507.31901    -1690.079    2421.0562 
    2000      261.096   -307.11779   -242.35287   -307.11779            0    3627.9787    24.868396    24.883994    22.903135            0            0            0    14173.033    2801.6506    3407.6587    4674.6269    9.3897382   -271.38372   -386.42295 
    2500    276.35621   -309.03639   -240.48617   -309.03639            0     13023.62    24.735931    24.816648    22.857989            0            0            0    14031.672    10838.446     14986.48    13245.934   -844.56921   -1408.2955    1352.1871 
    3000    264.77341   -307.74003   -242.06293   -307.74003            0    12078.477    24.838228    24.855727    22.924024            0            0            0    14152.655    11945.989    14409.622    9879.8219    1012.2434    380.93138   -1630.9402 
    3500    257.82026   -307.81725   -243.86488   -307.81725            0       4946.1    24.871878    24.754102    22.818388            0            0            0    14048.848    3014.2822    4624.3809    7199.6369    470.39579    140.75228   -893.18691 
    4000    261.30269   -309.59967   -244.78348   -309.59967            0     7907.577    24.874614    24.850622    22.860579            0            0            0    14131.259    6677.8403    6853.7089    10191.182   -92.220292    1184.2597   -1161.6663 
    4500    263.20395   -309.29631   -244.00851   -309.29631            0    8680.1497    24.790112    24.853028    22.837738            0            0            0    14070.544    7145.7097    9134.3417    9760.3977   -205.64692   -1658.7769    902.75718 
    5000    263.49015   -308.05202   -242.69323   -308.05202            0    8141.3375    24.781231    24.830771    22.913593            0            0            0    14099.583    10529.872     6860.012    7034.1286    2028.1552   -459.82367   -619.26325 
    5500    265.61974   -310.14454    -244.2575   -310.14454            0    9802.5644     24.88027    24.771097    22.878486            0            0            0    14100.276    8480.1016     11118.81    9808.7819   -342.84227   -544.31657   -2298.0421 
    6000    274.03851   -311.08334   -243.10803   -311.08334            0    10304.405    24.858774    24.782325    22.702147            0            0            0    13985.844    9281.9457    10459.554    11171.716     378.9217    668.64771    647.84428 
    6500    256.53804   -308.41461   -244.78029   -308.41461            0    3636.2539    24.882078    25.078722    22.824286            0            0            0    14242.599     5738.901     3263.058    1906.8028    778.23865    20.792035    -1322.204 
    7000     271.7139   -308.82498   -241.42629   -308.82498            0    11653.991    24.712833    24.795227    22.771944            0            0            0    13953.743    6544.5906    13418.568    14998.814   -580.50998   -2846.5682   -559.17925 
    7500    266.17964   -308.76241   -242.73649   -308.76241            0    7129.8562    24.895631    24.831603    23.027813            0            0            0    14235.757     10131.23    5121.4785    6136.8597   -940.24564    1363.8003   -648.19687 
    8000    257.82958   -306.95986   -243.00517   -306.95986            0    9538.0958    24.762686    24.706164    22.883614            0            0            0    13999.988    8305.4899    12115.183    8193.6141   -2847.9635    354.49596    1849.8747 
    8500    262.48662   -309.96547   -244.85561   -309.96547            0    9628.5084    24.817128    24.900633    22.873332            0            0            0    14134.854    10923.359    8407.6423    9554.5237    2069.3936   -1315.9648    578.15358 
    9000    270.39973   -307.58578   -240.51306   -307.58578            0    9008.0508    24.826355    24.824986    22.800273            0            0            0    14052.126    11674.087    6346.9597    9003.1053    807.76782    589.72486    1906.6719 
    9500    261.64095   -306.88335   -241.98326   -306.88335            0     8682.096    24.904619    24.770479    22.861781            0            0            0    14103.418    8363.6293    8525.4149    9157.2439    1583.2288   -233.91468     894.7311 
   10000    268.47272     -307.592   -240.99728     -307.592            0    8348.9701     24.84419    24.793356     22.95768            0            0            0    14141.262     12029.68    6133.7024    6883.5277   -358.14813   -1374.3383    255.12191 
   10500     275.3119   -306.04793   -237.75675   -306.04793            0    8150.9957    24.720033    24.880072    22.921791            0            0            0    14097.731    8553.5523    7447.8459     8451.589   -1938.7995    789.84821    913.03644 
   11000    265.69699   -307.30516   -241.39897   -307.30516            0    8042.9098    24.887407    24.836085    22.881665            0            0            0    14143.289    7456.9375    9939.5501    6732.2416   -1336.6651   -373.70468   -177.51778 
   11500    263.90433   -308.46135   -242.99982   -308.46135            0    8786.5888    24.878256    24.704663    22.809845            0            0            0    14019.135    9022.7202    9258.8243    8078.2218    -131.6026   -3012.7942   -1693.9519 
   12000    261.20201   -306.77439   -241.98318   -306.77439            0    10411.203    24.817184     24.88307    22.868928            0            0            0    14122.197    8333.7108    12860.981    10038.918    559.13668   -3586.4691    1409.1337 
   12500    266.03041   -306.88917   -240.90027   -306.88917            0     9884.835     24.69115     24.90565    22.890798            0            0            0    14076.676    10685.596    9194.7603    9774.1485   -1807.4874   -1249.2757    1436.7161 
   13000    270.48723   -307.54289   -240.44848   -307.54289            0    6988.7185    24.862632    24.801789    22.890013            0            0            0    14114.846    6776.1505     6695.191    7494.8139      1309.47    372.25677   -857.11025 
   13500    268.01019   -309.58648    -243.1065   -309.58648            0    9519.6117    25.008019    24.734199    22.788133            0            0            0    14095.675    6922.2217     9959.102    11677.511    19.566731    1933.9473    1198.4545 
   14000    262.48707   -310.31782   -245.20784   -310.31782            0    9268.7355     24.76953    24.892607    22.759476            0            0            0    14032.996    9130.1187    7126.6739    11549.414   -622.91527    529.00706    10.473927 
   14500     254.9198   -309.42192     -246.189   -309.42192            0    10991.569    24.728917    24.975937    22.864246            0            0            0    14121.596    15617.678    10638.383    6718.6455   -2010.3443   -1253.0083    -741.9162 
   15000    266.24161   -308.62489    -242.5836   -308.62489            0    10672.526    24.809377     24.69307    22.883623            0            0            0    14018.958    11583.608     10579.34    9854.6285   -753.41053    -547.3212   -423.45937 
   15500    259.92132   -307.81955   -243.34601   -307.81955            0    9567.2555    24.952938    24.802911    22.905261            0            0            0    14176.192    8611.7521    12076.196    8013.8185   -743.57861    918.09741   -648.48577 
   16000    275.20016   -309.39925   -241.13579   -309.39925            0    9902.4746    24.764083    24.877709    22.719218            0            0            0    13996.712    9988.6336    9048.4182    10670.372   -2275.2619    -1843.831    74.511658 
   16500    269.01781   -309.37996   -242.65003   -309.37996            0    7879.3689    24.874026    24.942478    22.805813            0            0            0    14149.179    9241.5687    5444.1013    8952.4366       524.45   -1271.2228     3097.963 
   17000     264.1705   -307.86385    -242.3363   -307.86385            0    10664.093    24.810223    24.732288    22.910171            0            0            0    14057.993    10516.717    11816.553    9659.0075   -1363.1769   -1657.1184    -1395.203 
   17500    259.44418   -307.26083   -242.90564   -307.26083            0    6389.1683    24.781005     24.77645    23.011486            0            0            0    14128.715    7972.4917    5267.6881    5927.3252     1958.669   -1838.9476    153.67788 
   18000    262.28071   -309.98596   -244.92717   -309.98596            0     12490.73    24.774588    24.842022    22.866428            0            0            0    14073.162    10920.601    13895.818     12655.77   -624.36955    1743.7046      1562.73 
   18500    268.08651   -311.15323   -244.65432   -311.15323            0    9661.1672    24.876656    24.890254    22.721062            0            0            0     14068.57    12056.755    7339.0232    9587.7234   -287.28037    -770.8961     1088.437 
   19000    258.53697    -307.7703   -243.64015    -307.7703            0    9538.0915    24.916048    24.840207    22.769989            0            0            0    14092.796    10082.604    9800.9784    8730.6919   -1260.2996   -808.42193   -555.87559 
   19500    268.24354   -309.79897   -243.26111   -309.79897            0    9530.2146    24.731814    24.738518    22.978341            0            0            0    14058.802    8856.5371    11105.158    8628.9492    860.24701   -949.96127    2501.8148 
   20000    261.19685   -310.17402   -245.38409   -310.17402            0    8529.6252    24.780833    24.815584    23.032208            0            0            0    14163.676    12502.274     7694.051    5392.5505    1436.7743   -1759.7796    203.64069 
   20500    265.47012   -309.98459   -244.13466   -309.98459            0    10762.487    24.824882     24.77683    22.774764            0            0            0    14008.345    9800.1621    10934.901    11552.398    2671.2045    642.96543    827.00932 
   21000    259.08803   -308.41635   -244.14951   -308.41635            0    7464.4202     24.94498    24.922844    22.756159            0            0            0    14147.501    5757.7345    5453.9083    11181.618    507.68727    2245.2594   -52.273483 
   21500    259.30553   -310.79523   -246.47444   -310.79523            0    8890.5943    24.789184    24.837759     22.82078            0            0            0    14050.932    6843.3144    7814.3422    12014.126    999.62947    1669.1949   -744.86333 
   22000    263.24349   -308.30199   -243.00438   -308.30199            0     10774.98    24.785987    24.787521    22.965222            0            0            0    14109.446    12542.582    10466.325    9316.0321    796.03037   -2384.3914    348.84966 
   22500    271.80638    -310.0835   -242.66187    -310.0835            0    7127.6397    24.833532    24.735054     22.99919            0            0            0    14127.454    4962.2221     9700.437    6720.2601    854.76006    1016.9775    623.29867 
   23000    263.51467   -311.42788   -246.06301   -311.42788            0    11342.882     24.80139      24.8183    22.818291            0            0            0    14045.305    11346.789    11569.398     11112.46   -1450.7103   -279.82821   -1084.6594 
   23500     263.9783   -308.88335   -243.40348   -308.88335            0    10881.992     24.89528    24.932568    22.781858            0            0            0    14140.774    11022.648    9630.8689     11992.46   -232.34899    568.26909     3689.444 
   24000    267.15884   -306.13001    -239.8612   -306.13001            0    7018.5981    24.831629    24.824282    22.797731            0            0            0    14053.145     5483.056    5790.1948    9782.5436   -1331.2829    1945.2913   -389.54465 
   24500    267.30316   -309.54969   -243.24509   -309.54969            0    9322.7089    24.866656    24.793312    22.933284            0            0            0    14138.983     8610.666    7971.4056    11386.055   -242.04504   -773.45301   -717.97268 
   25000    276.18657   -308.36143   -239.85329   -308.36143            0    8353.0732    24.806041    24.776141    22.937366            0            0            0    14097.258    9098.9708    9187.9067    6772.3422   -729.63677   -518.15495     201.5485 
   25500    269.28703   -307.90683   -241.11013   -307.90683            0     7041.774    24.779211    24.943935    22.866165            0            0            0    14133.372    6728.2248    7397.0064    7000.0908    90.536957    351.50775   -1130.8986 
   26000    268.59427   -305.02226   -238.39739   -305.02226            0    11128.558    24.868045    24.922002    22.809532            0            0            0    14136.469    11371.928     10427.94    11585.807   -886.08955   -510.61805    1156.1125 
   26500    256.72984   -306.91594   -243.23405   -306.91594            0    9955.6146    24.901449    24.704237    22.837349            0            0            0    14048.881    10104.406    10153.411    9609.0266   -544.84355    1098.4622   -1943.3654 
   27000    264.44473   -307.54626   -241.95069   -307.54626            0     4527.394    24.867202    24.747625    23.093391            0            0            0     14211.77    3712.5073     6988.927    2880.7476   -1127.2723   -1912.0654   -752.96727 
   27500    265.34346   -308.22743   -242.40892   -308.22743            0    13880.724    24.628253    24.767181    22.961629            0            0            0     14005.96    17869.437    11022.244    12750.491   -842.19617   -997.20308    1679.1105 
   28000    258.61577   -308.76232   -244.61262   -308.76232            0    7230.7206    24.916539    24.892935    22.862735            0            0            0    14180.515    8638.6265    6933.8687    6119.6666    1537.9599    106.07996     165.3032 
   28500     268.9623   -308.68841   -241.97226   -308.68841            0    8984.2991    24.956776    24.777973    22.699205            0            0            0    14036.696    6548.6785    7031.9661    13372.253    529.55259    1442.6973    1526.4996 
   29000    264.11981   -309.88399   -244.36902   -309.88399            0    12423.581    24.879956    24.838368    22.859752            0            0            0    14126.812    9917.4085     12975.04    14378.295      -181.41    1132.1745    1498.1145 
   29500    267.99852   -306.66006   -240.18297   -306.66006            0    7930.9961    24.677103    24.860203    22.970219            0            0            0    14091.719    8659.2527    7592.9165    7540.8192    640.98602   -2835.9362   -1421.0321 
   30000    272.51525   -306.19087   -238.59341   -306.19087            0    8043.6665    24.733476    24.832262    23.016525            0            0            0    14136.477    8688.5035    6386.7537    9055.7423    762.19635    1173.5763    1676.4182 
   30500     266.2024   -306.54338   -240.51182   -306.54338            0    8293.8879    24.907006     24.81021    22.861048            0            0            0     14126.94    8791.8188    7449.1629     8640.682   -989.47228   -1307.6786   -237.17009 
   31000    274.85464    -308.2479   -240.07015    -308.2479            0    9218.0053      24.9053    24.790502    22.766334            0            0            0    14056.274    6606.6067    10088.261    10959.148   -127.39077    630.09433    967.98998 
   31500    266.91615   -307.41188   -241.20327   -307.41188            0    8457.5782    24.823159    24.887241    22.918744            0            0            0     14158.74    12480.318    7554.0082    5338.4084    242.06067    226.41141    1197.5081 
   32000    267.47872   -309.22011   -242.87195   -309.22011            0    10824.671    24.698006    24.788178    22.901457            0            0            0    14020.697    11033.749    10951.268    10488.996    366.86286    492.49111   -1437.6654 
   32500    267.43697   -308.06721   -241.72941   -308.06721            0    7018.5573    24.917926    24.801177    22.915533            0            0            0     14161.66    3702.5663    9931.5383    7421.5675    532.82623    1163.3254    1582.2329 
   33000    267.59063   -307.60118   -241.22527   -307.60118            0    11503.325     24.88756     24.76089    22.783158            0            0            0    14039.851     12883.55    10338.281    11288.144    1305.9664    1559.7043   -2214.7535 
   33500    259.26398    -309.2713   -244.96081    -309.2713            0    7916.0014    24.815624     24.93148    22.883769            0            0            0    14157.964    7194.3918    7913.4849    8640.1277    408.70972   -260.98433    866.58056 
   34000    264.56281   -310.50113   -244.87627   -310.50113            0    10368.748     24.63942    24.801233    22.882557            0            0            0    13983.256    11492.928    7508.8528    12104.461    3137.6348     175.8752   -9.3707066 
   34500    254.58631    -310.2198   -247.06961    -310.2198            0    10634.441    24.919594    24.737388    22.988827            0            0            0    14171.363    10061.541    9844.2604    11997.522   -908.62414    -1436.033    734.52357 
   35000    257.14827   -309.23718    -245.4515   -309.23718            0     8597.261    24.889597    24.680721    22.822836            0            0            0    14019.913    8329.0631    10175.249    7287.4712   -856.50204    -593.3704   -2444.1321 
   35500    259.69883   -307.99415    -243.5758   -307.99415            0    9331.4542    24.806681    24.918378    22.775969            0            0            0    14078.789    10862.924    7815.6269    9315.8115    1140.8132   -647.94539    151.28505 
   36000    266.98457   -310.40957   -244.18399   -310.40957            0    10565.396    24.759306    24.941557    22.869636            0            0            0    14122.815    11090.113    9545.9913    11060.083   -982.83675    2275.5955   -1657.9015 
   36500    265.11162   -310.30893   -244.54793   -310.30893            0    7384.6852    24.774679    24.714433    22.892227            0            0            0    14016.731    8190.6715    7145.7166    6817.6674   -415.63336    2588.8654    247.82749 
   37000    258.67948    -308.6383    -244.4728    -308.6383            0    8093.9811    24.903958     24.73497    22.950934            0            0            0    14137.745    5148.5541    9690.1292    9443.2599   -3280.1081   -1032.0209   -73.909509 
   37500    263.30596   -309.33692   -244.02382   -309.33692            0    9975.0425    24.794618    24.804652    22.794519            0            0            0    14019.127    9074.6287    9881.8556    10968.643    344.71237      157.025   -1385.4505 
   38000    269.70068   -308.50209   -241.60278   -308.50209            0    9112.6468    24.849466    24.925146    22.843626            0            0            0    14148.806     8373.339    10892.788    8071.8136   -1304.3439    1320.8829    829.18396 
   38500    268.59157   -308.23346   -241.60927   -308.23346            0    7058.6681    24.841971    24.745348    22.848788            0            0            0     14045.68    6681.3543    10115.673    4378.9769   -1502.1725   -614.15574    817.18993 
   39000    265.91595   -310.00381   -244.04331   -310.00381            0    8686.4662    24.885235     24.77027    22.880693            0            0            0     14103.98    9438.4307    8540.6549     8080.313    -1608.603    1513.6298    38.180465 
   39500    272.59358   -308.47909    -240.8622   -308.47909            0    7536.5667    24.764702     24.86984    22.885942            0            0            0    14095.319    6937.0287    7475.3854    8197.2861    248.77708   -111.56135   -1259.2986 
   40000    266.12377   -310.77749   -244.76543   -310.77749            0    10054.556    24.692177    24.891396    22.836266            0            0            0    14035.688    10415.297    10144.005    9604.3661   -648.63743   -1457.5387    -2732.119 
   40500    258.16687   -309.25282   -245.21447   -309.25282            0    9285.9949    24.941975      24.7783    22.886081            0            0            0     14144.05    9533.0615    8886.2567    9438.6666    1627.9692   -635.93323    1096.8392 
   41000    266.73694   -311.11019   -244.94603   -311.11019            0    8580.2351    24.914284    24.655568    22.821963            0            0            0     14018.98    5957.6951     11508.13    8274.8804    91.325633   -2352.5277    875.04478 
   41500    252.96361   -306.25525   -243.50757   -306.25525            0    9045.2654    24.755128    24.894154    22.891013            0            0            0     14106.77    7700.4968    9573.6755    9861.6239    565.62123    -237.4847    902.59307 
   42000    265.50475   -308.43067   -242.57216   -308.43067            0    9402.5913    24.671949    24.958153    22.878383            0            0            0    14087.737    10218.815    7036.7048    10952.254   -499.40826    307.29448     50.86416 
   42500    273.66455   -310.42267   -242.54011   -310.42267            0    8319.2226     24.85146     24.73295    22.877653            0            0            0    14061.747    7527.0882     7726.468    9704.1116    1517.1758    50.782145    340.64545 
   43000    269.84659   -308.83931    -241.9038   -308.83931            0    8462.8601    25.038386    24.672397    22.859435            0            0            0    14121.576    6424.2882    11068.395    7895.8976    -771.0513   -427.49087    2170.2591 
   43500    276.16194   -310.00522   -241.50319   -310.00522            0    9823.5532     24.83282    24.851473    22.776789            0            0            0    14056.289    8085.9752    10987.466    10397.218    186.54953    1169.9242    2086.4099 
   44000    261.87067   -309.51705   -244.55997   -309.51705            0    8459.6601    24.717985    25.000889    22.867451            0            0            0    14131.435    9660.5005    8417.7989    7300.6808    20.973969    2673.6274   -3026.3771 
   44500    260.82413   -308.12907   -243.43158   -308.12907            0      8798.37    24.780468    24.734956    22.907252            0            0            0    14040.857    9946.6303    6580.7415    9867.7383    -1264.205   -2022.5688   -744.63023 
   45000    262.71297    -310.2713   -245.10528    -310.2713            0    8504.2956    24.927892    24.693502    22.941579            0            0            0    14121.848    7364.5768    8871.2771    9277.0328    -1247.832    854.69089    2201.2805 
   45500    256.57674   -308.89301    -245.2491   -308.89301            0    9601.6207    24.855212    24.791313    22.806882            0            0            0    14053.449    8541.3151    11576.533    8687.0145    -2154.942   -111.63804    72.625157 
   46000    264.66958   -309.60544    -243.9541   -309.60544            0    10231.316    24.810309    24.888925     22.77829            0            0            0    14065.638    10023.128    9862.6507    10808.168    1844.1765    1231.6278    2814.8384 
   46500    265.08124   -308.40054   -242.64708   -308.40054            0    10023.113    24.832758    24.887282    22.862975            0            0            0    14129.773    7442.6695    12420.928    10205.742      91.6672    817.98272   -1635.8766 
   47000    268.00389   -309.42549   -242.94706   -309.42549            0    7379.4071    24.792012    24.785678    22.893325            0            0            0    14067.646    6117.3036     9192.149    6828.7686    -213.3125   -31.383352    1351.0861 
   47500    272.72782   -308.90817   -241.25797   -308.90817            0    7964.9582    24.867188    24.820776    22.895825            0            0            0    14131.827     6816.883    9381.7338    7696.2579   -467.22414   -193.95653   -1200.5736 
   48000    264.80749   -308.41596    -242.7304   -308.41596            0     10711.69    24.869238    24.860898    22.772133            0            0            0    14079.363    6320.6201     12094.46     13719.99    203.20576    -605.9043    236.90843 
   48500    264.59591   -308.68073   -243.04766   -308.68073            0    8707.2758     24.81265    24.912948     22.79166            0            0            0    14088.807    8712.8708    9690.2454    7718.7112   -202.30184   -2524.3705    237.23015 
   49000    279.63552   -309.83388   -240.47022   -309.83388            0    10512.368    24.797541    24.845777    22.920021            0            0            0     14121.35    12299.948    8607.9053    10629.253    48.049099   -2751.5931    1997.2002 
   49500    274.82915   -305.71534   -237.54391   -305.71534            0    10888.521    24.859257    24.715647    23.030697            0            0            0    14150.351    11927.167    11955.462    8782.9356    1611.9606      2645.96   -1961.6803 
   50000    273.43055    -308.0933   -240.26879    -308.0933            0    9021.2363    24.836786    24.727524    22.960943            0            0            0    14101.514    8791.4969    9577.2722    8694.9396     379.6085    1731.6769   -552.08249 
   50500    271.36635   -310.58665   -243.27417   -310.58665            0     10184.22     24.77607    24.986932    22.748607            0            0            0    14083.162    10481.582    9631.8135    10439.264    473.99716   -2307.3492   -1407.4489 
   51000    269.43858   -307.43304   -240.59874   -307.43304            0    10918.521    24.847749    25.036465    22.759568            0            0            0    14158.722    10164.611    9729.2647    12861.688    1266.4559    185.39768   -1689.3314 
   51500    263.55546   -307.24537   -241.87038   -307.24537            0     10058.58    24.850275    24.680427    22.888667            0            0            0    14037.973    8260.1144    9771.9371    12143.689   -1909.6174    1082.9306   -1276.4274 
   52000    258.10123   -308.56336    -244.5413   -308.56336            0    9659.4966    24.893356    24.719057    23.015298            0            0            0     14162.24    7392.9076    12551.383     9034.199   -173.83589   -561.55644   -3114.1819 
   52500    270.78255   -307.83246   -240.66478   -307.83246            0    10717.279    24.733963    24.851267    22.873504            0            0            0    14059.664    10634.763    11285.403    10231.672   -819.95551    938.37463   -106.97696 
   53000    260.04189   -308.31015    -243.8067   -308.31015            0    7700.7856    24.812349    24.970996    22.823492            0            0            0    14141.186    9013.9542     4884.158    9204.2445    84.970838    362.55838    312.35326 
   53500     264.1447   -308.14192   -242.62077   -308.14192            0    8957.7823    24.884179    24.778856     22.80814            0            0            0    14063.533    5137.4902    11585.814    10150.043   -579.65901    1889.9076    990.77733 
   54000    272.92188    -308.8939   -241.19557    -308.8939            0    8412.5943    24.897941     24.77547    22.926207            0            0            0    14142.218    7600.2757    8921.2799    8716.2273   -544.90198   -163.21593   -1170.5606 
   54500    267.38666   -311.22873   -244.90341   -311.22873            0    10651.051    24.704933    24.840976    22.930973            0            0            0    14072.615    12189.399    8923.9903    10839.765   -1046.5709    622.58223   -527.03363 
   55000    266.94416   -308.73009   -242.51454   -308.73009            0    8826.1106     24.76376    24.877955    22.860952            0            0            0    14083.985    8453.5115     9499.421    8525.3992   -45.079318   -642.14992    507.07337 
   55500    259.79095   -308.43372   -243.99252   -308.43372            0    8820.7517    25.003865    24.794261    22.807444            0            0            0    14139.529    7026.9456    10044.812    9390.4977   -342.46977   -32.771881    2345.9567 
   56000    268.16478   -306.92169   -240.40336   -306.92169            0    7525.1542     24.88215    24.762823    22.816154            0            0            0    14058.225    9747.1469    5238.3802    7589.9355   -119.37931    1031.6549    -103.9194 
   56500    261.36272    -308.1422   -243.31112    -308.1422            0    8009.6347    24.717213    24.970932    22.949095            0            0            0    14164.453    12181.397     6276.067    5571.4405    1239.7725   -583.39782    952.45621 
   57000    264.99441   -309.56911   -243.83719   -309.56911            0    10101.854    24.703511    24.849007    22.874352            0            0            0    14041.598    8943.3108    11884.492    9477.7604   -1726.4397    3281.1155    658.66575 
   57500    263.70472   -308.45049   -243.03848   -308.45049            0    8507.2783    25.013394    24.724923    22.839934            0            0            0    14125.454    9043.6389     8604.683     7873.513    1048.2868    -2139.427    363.21514 
   58000    255.39819   -306.69724   -243.34566   -306.69724            0    11959.654    24.983611    24.737088    22.766999            0            0            0    14070.501    9749.1964    12647.801    13481.965   -926.21216    2630.3646    1739.4558 
   58500     265.5303   -307.65697   -241.79212   -307.65697            0    10226.165    24.681997    25.002041    22.799065            0            0            0     14069.31    14879.176    7721.7239    8077.5935   -2128.4785    1620.8338    -815.3858 
   59000    257.01281   -306.15137   -242.39929   -306.15137            0    9582.8839    24.743381    24.911404    22.954094            0            0            0    14148.728    10675.781    11410.758    6662.1134   -391.79376    354.97009   -73.634456 
   59500    261.48991   -307.27658   -242.41395   -307.27658            0    8760.5455    24.851974    24.671836    22.942022            0            0            0     14066.76    6848.9324    11694.165    7738.5387   -470.05798    1205.5794    494.05322 
   60000     261.3728   -309.52442   -244.69084   -309.52442            0    4470.0573    24.898051    24.785294    22.869702            0            0            0    14113.019    3909.9223    4673.4545     4826.795    1862.8815   -2990.4508   -255.68427 
   60500    266.97769   -310.15657    -243.9327   -310.15657            0    9964.1942    24.740463    24.990285    22.815457            0            0            0     14106.14    10017.139    7065.1511    12810.292    245.56948    708.41718    -1108.119 
   61000    267.30033   -309.82578   -243.52188   -309.82578            0    12036.398    24.798209    24.864598    22.856564            0            0            0      14093.3    12036.816    9676.6683    14395.709   -1552.3371   -128.72229   -60.869287 
   61500    269.64765   -308.27134   -241.38518   -308.27134            0     8937.197    24.940638    24.682406    22.927499            0            0            0    14114.053    9132.2049    9975.5286    7703.8575     1478.841    1461.9456    1462.0873 
   62000    262.72061   -306.16602   -240.99811   -306.16602            0    10150.044    24.810948    24.801699     22.90571            0            0            0    14095.112    10328.795    11186.941    8934.3957   -199.26411    1075.3169    766.45432 
   62500    263.81832    -308.5057   -243.06551    -308.5057            0    5835.6738    24.734729    24.923863    22.860526            0            0            0    14093.172    9140.5719    4028.3362    4338.1134   -72.240488   -1058.7497     1210.125 
   63000    269.60034   -305.69206   -238.81764   -305.69206            0    9072.9494    24.843242    24.826584    22.840985            0            0            0    14087.699    10932.236    9393.6592     6892.953    1439.2111   -1550.0282    197.52388 
   63500    263.83327   -309.49077   -244.04687   -309.49077            0    9266.6144    24.901767    24.745614    22.909478            0            0            0    14117.038    10127.464    8159.8743    9512.5045    252.45005    -1968.747    327.09586 
   64000    276.82516   -309.35081   -240.68427   -309.35081            0    7730.7181    24.812472    24.821091    22.953334            0            0            0     14136.33    8637.9289    9102.6286    5451.5967    1539.6268   -1094.5054    1191.8197 
   64500    265.24798    -309.5492   -243.75438    -309.5492            0    8365.1191    24.741076    24.905202    22.863714            0            0            0    14088.198    9833.2767    7330.9411    7931.1394    170.73826   -2020.1263    963.27947 
   65000    263.31313    -311.5772   -246.26232    -311.5772            0    6926.0467    24.865239    24.894528    22.748615            0            0            0    14081.583    6313.5825    6736.6663    7727.8913   -503.56797    469.74497    2814.7321 
   65500     265.5768   -310.02072   -244.14434   -310.02072            0    5790.1624    24.941981    24.743492     22.84777            0            0            0     14100.54    4857.6239    6518.2735    5994.5897   -134.41119    352.47163   -506.23746 
   66000    268.65127   -306.28741    -239.6484   -306.28741            0     9006.398    24.737677    24.703753    23.028943            0            0            0    14073.297    8181.4037    10858.011    7979.7792    347.31076    1770.2665    1742.0786 
   66500    268.09825   -307.40405   -240.90222   -307.40405            0    7956.1996    24.665633    24.886318    23.055665            0            0            0    14152.415    8485.0103      8961.86    6421.7284   -1243.0412   -469.38104   -170.31299 
   67000    261.51746   -308.96306   -244.09359   -308.96306            0     6279.078    24.873894    24.852465    22.742784            0            0            0    14059.079     6144.017    8985.4809    3707.7362   -1005.9107    1087.5123    47.915961 
   67500     264.4571   -309.51974    -243.9211   -309.51974            0    8779.6219    25.039485    24.843461    22.701766            0            0            0     14122.03    5723.5441    8656.9645    11958.357    81.065625   -1068.8694    98.431668 
   68000     260.4299   -308.75581   -244.15612   -308.75581            0    9385.3593    24.797313    24.825282    22.840388            0            0            0     14060.55    11476.002    9009.0246    7671.0515   -1184.7427   -1900.3169   -1691.5738 
   68500    265.06428   -308.48215    -242.7329   -308.48215            0    9098.3441    24.696393    24.816388    23.086487            0            0            0    14149.137    10595.386    10134.738    6564.9079    220.78029    2585.3225    -978.2428 
   69000    257.18842   -309.46774   -245.67209   -309.46774            0     8617.003    24.778313    24.762045    22.982565            0            0            0    14101.222     10836.05     8455.556    6559.4031    979.12663   -26.081499    680.01526 
   69500    259.75696   -309.76296   -245.33019   -309.76296            0    11002.078    24.920297    24.782187     22.75882            0            0            0     14055.38    13191.256    8163.6413    11651.337    1599.0472    134.67043   -308.46176 
   70000    260.57736   -309.25809   -244.62182   -309.25809            0    8508.9488    24.901188    24.921939    22.758115            0            0            0    14123.365    8856.1572    7832.6758    8838.0133   -795.35435    181.51035    1052.4215 
   70500    261.54691   -308.90978   -244.03301   -308.90978            0    10017.868    24.711046    24.857654    22.873652            0            0            0    14050.338    8462.1591    8689.9887    12901.458    921.99996   -15.898539    1654.8457 
   71000     251.4134   -307.52865    -245.1655   -307.52865            0    11949.185    24.814022    24.755635    22.988037            0            0            0     14121.25     10062.76     14895.94    10888.855    741.65811    563.17484    1931.1007 
   71500    267.16481   -309.72705   -243.45676   -309.72705            0    9401.3376    24.906211    24.707841    22.914037            0            0            0     14100.81    10627.099     9358.589    8218.3248    554.18784    53.835327   -2260.7207 
   72000    271.97439   -306.69231   -239.22901   -306.69231            0    10467.147    24.821466    24.927378    22.775379            0            0            0    14091.903    13469.235    9359.6985    8572.5072    419.69714   -745.18948    65.042008 
   72500    256.82681   -306.58447   -242.87852   -306.58447            0    8858.4323    24.811808    24.989488    22.848779            0            0            0    14167.029    8588.8914    6171.4092    11814.996   -2010.7665       1114.4    415.55348 
   73000    258.54906   -307.94802   -243.81487   -307.94802            0    11457.495     24.82813    24.695613    22.927024            0            0            0    14057.611    10053.339    14325.547    9993.5994    172.85577   -250.67005    600.98232 
   73500    271.52116   -309.42915   -242.07826   -309.42915            0     10337.04    24.923572    24.700458    22.973214            0            0            0    14142.853    7805.0531    11834.955    11371.112    323.71148    2260.0153   -1542.6913 
   74000    269.28483    -309.4571   -242.66094    -309.4571            0    8854.7931    24.813416     24.83542    22.841744            0            0            0    14076.261    9217.6906    9148.6976    8197.9913    61.323051    1523.1055   -649.73605 
   74500    264.90847   -308.39711    -242.6865   -308.39711            0    9389.7439    24.790714    24.921108    22.809562            0            0            0    14092.022    10267.856    6732.9364     11168.44   -629.52072   -1485.9701   -76.292484 
   75000    274.20906   -309.31106   -241.29344   -309.31106            0      6115.67    24.823406    24.861763    22.893352            0            0            0    14128.715    7174.1023    5870.7568     5302.151   -686.43645    776.67564   -1666.5305 
   75500    269.86612   -309.27077   -242.33042   -309.27077            0    8299.4032     24.81535    24.773376    22.904012            0            0            0     14080.47    8628.8075    7355.9901    8913.4121   -389.85099    2403.9721    3454.4636 
   76000    261.76758   -308.38722   -243.45572   -308.38722            0    8110.1482    24.870726    24.801556    22.925221            0            0            0    14141.026    6945.5772    8939.6458    8445.2217    838.45279    2655.1472   -1772.6492 
   76500    259.75985   -312.76682   -248.33333   -312.76682            0    7037.2012    24.815124     24.85039    22.846354            0            0            0    14088.558    5806.8114    7282.4918    8022.3003   -1082.0308   -941.14606    2570.1905 
   77000    255.69303   -311.11146   -247.68675   -311.11146            0    9864.9183    24.737161     24.88968    22.825374            0            0            0    14053.583    13030.269    7411.2315    9153.2549    88.894481   -224.60168    344.18587 
   77500    261.95549   -308.98866   -244.01054   -308.98866            0     10313.04    24.880382    24.852879    22.896324            0            0            0    14157.922    8341.3175     12075.61    10522.193   -160.55132   -31.302628    521.11623 
   78000    267.95612   -305.83129   -239.36471   -305.83129            0    11812.727    24.839617    24.741342    22.901468            0            0            0    14074.451    11731.624    11636.953    12069.605    942.42219   -2275.7017   -544.06538 
   78500    267.02686   -310.66222   -244.42615   -310.66222            0    7709.0462    24.848094    24.901392    22.917123            0            0            0    14180.019    9764.7662      4176.03    9186.3425    1065.3338   -1700.2309   -608.26325 
   79000    264.05353   -309.72012   -244.22158   -309.72012            0    8375.6445    24.796043    24.860169    22.721074            0            0            0    14006.038    8327.2307    8150.9141    8648.7886    276.29732   -518.86607    391.79057 
   79500      263.636   -308.50471   -243.10975   -308.50471            0    7076.6386    25.034635    24.928755    22.814035            0            0            0    14237.835    6554.6127    7769.1208    6906.1823    951.10125   -2057.9856    2214.1574 
   80000     266.0921   -307.94773   -241.94353   -307.94773            0    11492.865    24.810257    24.630837    22.888376            0            0            0    13987.027    12076.769    12675.599    9726.2264   -111.97032   -1497.2039    3004.4471 
   80500    265.44673   -310.03283   -244.18872   -310.03283            0    6941.3015    24.777997    24.853272    23.085392            0            0            0    14216.315    7463.1327    9784.2978    3576.4739   -688.59763    1855.0645   -1531.4787 
   81000    268.78286   -309.15855    -242.4869   -309.15855            0     10424.31    24.728945    24.815054    22.873952            0            0            0    14036.603    11082.049    10650.289    9540.5917   -116.28353    28.734062   -1151.5573 
   81500    265.93699   -310.90137   -244.93565   -310.90137            0    9922.0573    24.920787    24.844004    22.798291            0            0            0    14115.154     8493.665    9079.8174     12192.69    529.20541   -905.82703   -1097.1596 
   82000    269.62003   -309.91819   -243.03888   -309.91819            0    8013.7862    24.909239    24.808347     22.82371            0            0            0    14104.072     9104.889    6998.8275    7937.6422   -711.95828     407.5365   -1960.2158 
   82500    273.10357   -307.93428   -240.19088   -307.93428            0    10613.417    24.769123    24.836394    22.874723            0            0            0    14071.974    10208.529        10237    11394.722   -178.85921   -2317.2585   -510.37556 
   83000    275.40938   -311.12803   -242.81267   -311.12803            0    8257.2608    24.823554     24.90584    23.003253            0            0            0    14221.795    9353.6878    6767.7208    8650.3737    508.98404    294.30867    306.37653 
   83500    265.55055    -307.7293   -241.85942    -307.7293            0    11846.438    24.776456    24.721024    22.861667            0            0            0    14002.757    11985.381    10337.207    13216.726    1176.4486   -1598.0979    1336.8896 
   84000     265.6807   -305.86162   -239.95947   -305.86162            0    7025.4996    24.966611    24.854276    22.917849            0            0            0    14221.145    7106.9431    7519.0175    6450.5382    1118.5034    281.05525   -815.52567 
   84500    259.12422   -306.32237   -242.04655   -306.32237            0    10102.957    24.783296    24.885546    22.821235            0            0            0    14074.902    13562.311    7234.2904    9512.2689     1587.927   -71.720402    795.84066 
   85000    267.24063   -310.32255   -244.03345   -310.32255            0    7791.4611    24.816616    24.886212     22.86551            0            0            0    14121.546    9721.0549    5549.3011    8104.0272    354.20633    472.76126    746.91172 
   85500    268.18461    -307.1476   -240.62435    -307.1476            0    7642.8399    24.859426    24.792687    22.956494            0            0            0    14148.821    8460.8155    5702.5303    8765.1739    369.81773   -483.94737   -776.03549 
   86000    269.93013   -309.30407   -242.34784   -309.30407            0    9537.6154    24.876884    24.750298    22.920212            0            0            0    14112.211    6711.2377    11597.272    10304.336    1881.4451    328.52304    2514.7883 
   86500     259.8117   -309.04847   -244.60212   -309.04847            0    8170.4639    24.835821    24.859209    22.840617            0            0            0    14101.771    9200.3161     7778.632    7532.4437     354.5195    410.87411    -828.7926 
   87000    266.26434   -309.86873   -243.82181   -309.86873            0    7982.8629    24.793389      24.9591    22.770939            0            0            0    14091.128    6892.7061    8598.7861    8457.0963   -1021.8803   -1386.0607    82.980323 
   87500    263.55766   -308.90698   -243.53145   -308.90698            0    5517.4951    24.835958    24.838656    22.948621            0            0            0    14156.817    8435.3563      2391.08     5726.049    437.82617    576.19324     -2226.54 
   88000    265.06121   -306.63428   -240.88579   -306.63428            0    10483.921    24.870032    24.583795     23.04946            0            0            0    14092.435    11085.438    13340.222    7026.1043   -3161.8797   -1751.1364      546.664 
   88500     266.0227   -309.87563   -243.88864   -309.87563            0    9233.5494    24.951615    24.782294    22.907737            0            0            0    14165.188    6574.6624    10873.919    10252.067   -1317.3268   -908.08358   -961.56569 
   89000    256.40238   -310.50472   -246.90406   -310.50472            0    10316.829    24.766879    24.953031    22.686442            0            0            0    14020.419    9568.6709    8061.9802    13319.835   -2357.3086   -2951.9873    1394.8357 
   89500    255.92688   -310.74996   -247.26724   -310.74996            0    7249.8622    24.834406    24.917947    22.870535            0            0            0      14152.8    7658.8368    5444.2558    8646.4939   -1491.2272    2160.1256   -1384.8504 
   90000    256.52019   -310.14985   -246.51996   -310.14985            0    6830.0644    24.786846    24.634878    22.988515            0            0            0    14037.269    8509.2598    8903.5705    3077.3629    1427.3435    594.75227   -2242.0175 
   90500    272.47778   -310.83739   -243.24922   -310.83739            0    6196.2866    24.840959    24.738024     22.99381            0            0            0     14130.07    7829.2397    5757.8328    5001.7875    1393.0002   -797.80116    1000.3759 
   91000    263.74818   -308.83343   -243.41064   -308.83343            0    10285.999    24.807264    24.867515    22.856804            0            0            0    14100.248    12738.422    9672.8517     8446.722    1200.6105    413.99837    1741.5479 
   91500    259.02884   -308.81579   -244.56363   -308.81579            0    8226.6234    24.787274    24.883974    22.809793            0            0            0    14069.214     10949.32    6402.7846    7327.7657   -2917.7915    9.3054059   -2136.2111 
   92000    267.05054   -309.90595   -243.66401   -309.90595            0    8107.9123    24.834774    24.845313     22.93666            0            0            0    14152.555    9858.7991     7431.996    7032.9419    290.77762    766.48811    1573.4101 
   92500    270.28851   -309.51985   -242.47473   -309.51985            0    10530.763    24.896797    24.753213    22.964058            0            0            0    14152.191    10315.414    12965.586     8311.291   -607.74999    204.57074   -895.55877 
   93000    271.45482   -309.51076   -242.17633   -309.51076            0    13475.644    24.798663    24.827281    22.860979            0            0            0    14075.125    15279.594    12279.592    12867.746    1201.1831   -427.04794   -928.74803 
   93500    256.99719   -308.55063   -244.80243   -308.55063            0    8096.8982    24.824141    25.024881    22.777244            0            0            0    14149.706    8571.0629    7251.0734    8468.5581    395.23922    1789.7972    590.58975 
   94000    261.67464   -308.61972   -243.71127   -308.61972            0    10464.754    24.838724    24.795064    22.742932            0            0            0    14006.866    10259.016    10790.165     10345.08    927.71231   -1472.5533     1435.162 
   94500     258.5692   -308.94652   -244.80837   -308.94652            0    8242.6398    24.929502    24.780819    22.995317            0            0            0    14205.897    8452.9837    8208.6377    8066.2979     380.9893    103.23236    310.21653 
   95000    262.65088   -309.96553   -244.81492   -309.96553            0    9687.0741    24.684307    24.699272    22.930793            0            0            0    13980.547    6754.6732    11426.065    10880.484   -902.20185    1667.0704    446.39915 
   95500    264.09718   -308.79572   -243.28636   -308.79572            0    8821.6292    24.850985    24.990574    22.842499            0            0            0    14186.115    9867.1818    6506.5016    10091.204   -1656.9361    497.19314    49.504413 
   96000     256.6692   -306.28256   -242.61571   -306.28256            0    11701.322    24.845307    24.878814    22.743038            0            0            0    14057.966    9988.0677    11832.027    13283.871   -722.33069   -626.36113    1364.0844 
   96500    264.17024   -309.71783   -244.19034   -309.71783            0    9606.7424    24.922603    24.809774    22.888097            0            0            0    14152.263    9710.0727    10915.444    8194.7106   -309.56142    532.66147    132.66346 
   97000    257.23509   -306.69221   -242.88499   -306.69221            0    10579.361    24.862226    24.769602     22.91599            0            0            0    14112.295    9526.9283    11879.364    10331.792    671.50698   -1168.1603    611.13143 
   97500    267.51917   -310.29245   -243.93427   -310.29245            0    10656.204    24.806964     24.80327    22.952586            0            0            0    14122.585    11222.292    11290.403    9455.9153    520.16941   -1004.1778    676.86971 
   98000     262.3499   -309.14635    -244.0704   -309.14635            0    9647.3833    24.835633    24.821097     22.90563            0            0            0    14120.122    7514.0457    10661.098    10767.007    502.00839    850.70273    1901.7624 
   98500    260.15164   -309.24681   -244.71614   -309.24681            0    9411.2592    24.807582    24.815245    22.852434            0            0            0    14068.101     11077.81    7990.0667    9165.9008    -375.9187    1259.2013   -319.00677 
   99000    256.68964   -307.46614   -243.79422   -307.46614            0    9397.1629    24.843767    24.865246    22.925136            0            0            0     14161.92    9264.0717    8487.0581    10440.359   -1122.3729   -981.32279     421.4509 
   99500    265.85744   -305.86862   -239.92263   -305.86862            0    6440.7933    24.861553    24.769162    22.821195            0            0            0    14053.288    6867.2813    6182.4337    6272.6649    567.07504   -565.09187   -76.042373 
  100000    265.72851   -308.88511    -242.9711   -308.88511            0    8507.5691    25.004863    24.861683    22.876244            0            0            0    14221.314    6306.4541    10247.866    8968.3876    989.78092   -2111.3032    481.84942 
  100500      267.362   -309.06522   -242.74602   -309.06522            0    12255.955    24.678601    24.807783    22.836581            0            0            0    13981.043    12489.173    12596.145    11682.548    294.67672    228.01478   -1697.9598 
  101000    261.37847   -308.53196   -243.69698   -308.53196            0    5887.0871    24.771066    24.986385    23.000239            0            0            0    14235.754    5895.4017    7451.0553    4314.8044    263.34717   -430.19139   -317.26377 
  101500    271.59044   -309.57829   -242.21022   -309.57829            0    11884.826    24.848829    24.749764    22.803684            0            0            0    14024.327     10807.68    12859.984    11986.815   -995.40056   -729.26659    2253.3625 
  102000     264.4681   -307.70595   -242.10458   -307.70595            0    7609.6566    24.978851    24.772348    22.836204            0            0            0    14130.696    5287.7639    8056.2929     9484.913   -3.9430729    -2589.019     1070.407 
  102500    258.19113   -308.60553   -244.56116   -308.60553            0    9648.9182     24.85106    24.877187    22.836445            0            0            0    14118.049    6537.8331    12258.363    10150.558   -63.176446   -415.40859    1219.2346 
  103000    260.17195   -309.42936   -244.89365   -309.42936            0    10348.096    24.715132    24.903026    22.842153            0            0            0    14058.924    12043.813    8594.2948    10406.182    -717.8301    -1248.434    1331.2235 
  103500    265.19719   -310.06822     -244.286   -310.06822            0     11557.52    24.814297    24.878422    22.922072            0            0            0    14150.725    10021.436    14433.766    10217.358    111.39234    1289.1401    723.64281 
  104000    262.74167   -308.01582    -242.8427   -308.01582            0    9177.5634     24.80726    24.786216    22.868995            0            0            0    14061.644    11331.331    8843.5076    7357.8517    467.44534   -48.161852   -59.462166 
  104500    258.53322   -309.29579   -245.16657   -309.29579            0    10165.692    24.884563    24.844529    22.917451            0            0            0    14168.605    9899.2898    9807.4606    10790.325    1234.4985    1677.8486    2160.5954 
  105000    264.61766   -306.60722   -240.96875   -306.60722            0    9830.4017    24.776722    24.801288    22.892952            0            0            0    14067.596    9141.7857    10877.542    9471.8774   -1417.6838    1560.5617    526.60597 
  105500     268.1767   -306.58946   -240.06817   -306.58946            0    7942.4031    24.817323    24.854578    22.934967            0            0            0    14146.841    8258.2636    8750.6277    6818.3179   -1024.7815    346.44397    1046.7558 
  106000    269.57655   -309.28948   -242.42096   -309.28948            0    8933.7044    24.891117     24.83823    22.844581            0            0            0    14123.692    8128.9202    9693.9482    8978.2449   -136.83391     -2147.15    2126.5409 
  106500    269.07774   -308.18929    -241.4445   -308.18929            0    11449.522    24.855739    24.843276    22.820818            0            0            0    14091.809    12709.702    11248.698    10390.167    438.52146   -1110.7214    57.748122 
  107000    262.67878   -308.40704   -243.24951   -308.40704            0    7568.6878    24.813352    24.851624    22.952938            0            0            0    14153.977    8706.0038    7418.1326    6581.9269   -266.46988    2732.5988    354.76262 
  107500     269.6407   -307.76226   -240.87782   -307.76226            0    10499.601    24.766551    24.724593    22.957222            0            0            0    14057.692    10014.576    12870.119    8614.1087     1523.527   -376.18013    649.24589 
  108000      263.505    -306.6943   -241.33183    -306.6943            0    8642.9959    24.930119    24.863369    22.906961            0            0            0    14198.805    8443.4227    8986.0293    8499.5358   -1226.7305   -2473.1657    373.42733 
  108500    268.90622   -307.80884    -241.1066   -307.80884            0    9550.0155     24.81803    24.835463    22.755037            0            0            0     14025.46    9735.0965    7654.6282    11260.322    2609.7523   -1516.6074    1485.1759 
  109000    262.27188   -309.54969    -244.4931   -309.54969            0    6886.8327    24.880115    24.913255    22.887657            0            0            0    14186.792    6285.9079    5886.3146    8488.2755   -2310.2448   -428.06338    947.01616 
  109500    264.66067   -308.25702   -242.60788   -308.25702            0    8811.0759    24.795956    24.724055    22.935888            0            0            0    14060.997    8039.0498    11689.772     6704.406    1857.6961    1973.1532   -2210.1808 
  110000    267.14127   -309.50462   -243.24017   -309.50462            0    7555.2878    24.842908    24.794675     22.99999            0            0            0    14167.346    9577.8057    6348.8286    6739.2292   -199.81332   -859.73776   -367.23436 
  110500    261.74058   -309.47895   -244.55414   -309.47895            0     8829.363    24.728608     24.86402     22.83516            0            0            0    14040.257     10187.17    6931.9996    9368.9192   -43.041412    2313.5217    969.27389 
  111000     261.4426   -308.53094   -243.68004   -308.53094            0     10689.89    24.836978    24.929159    22.793285            0            0            0    14112.804    7494.7311    11991.408    12583.531    640.83553   -1253.8191    852.88536 
  111500    266.33037   -308.85449   -242.79119   -308.85449            0    8013.6931    24.883974    24.736265    22.918294            0            0            0    14107.048    9075.4697    7255.6322    7709.9773   -942.58437    2405.2066    201.30193 
  112000    265.72285   -310.53213   -244.61952   -310.53213            0    8471.1575    24.835657    24.683087    23.006446            0            0            0    14103.427    9206.6111     8045.548    8161.3135    621.56786   -833.99469    2379.6424 
  112500    260.64164    -309.3276   -244.67538    -309.3276            0    7260.6711    24.770304    24.904814    22.882121            0            0            0    14115.976    8664.0419         7284    5833.9712    1819.6824    836.18867    337.34478 
  113000    259.60341   -307.89102   -243.49633   -307.89102            0    9520.0591    24.806941    24.910844     22.72716            0            0            0    14044.517    9426.5803    8334.8678    10798.729    -1608.827   -46.663279    1455.8566 
  113500    262.17808   -307.56066   -242.52733   -307.56066            0    7211.3519    24.926211    24.838758    22.887981            0            0            0    14170.776    4623.7567    9500.1739     7510.125    179.35814   -277.86207    2216.4899 
  114000    258.46197    -307.5905   -243.47895    -307.5905            0    10881.816     24.74863    24.668458    22.963183            0            0            0    14019.265    11991.866    9717.5715     10936.01   -1373.9431   -1820.1756   -767.03585 
  114500    261.10626   -307.17076   -242.40329   -307.17076            0    4901.6913    24.873026    24.866314    23.011192            0            0            0    14232.433     4092.549    5309.0636    5303.4614    915.93781    1023.0977     1591.276 
  115000    271.88389   -308.54327   -241.10241   -308.54327            0    10887.292    24.847079    24.792776    22.783763            0            0            0    14035.438    10437.937    10655.558    11568.381   -518.80302    424.12326   -244.86661 
  115500    269.69503    -310.3396   -243.44169    -310.3396            0    9836.9926    24.921631    24.845383    22.891037            0            0            0    14173.843    7373.1789    12774.994    9362.8047    -44.56581   -754.80967    288.54534 
  116000     260.6766   -310.37096   -245.71007   -310.37096            0    8801.3469    24.767283    24.767466    22.891018            0            0            0    14041.873    8941.3851     11068.21    6394.4452    2054.6588    -746.0088   -84.386646 
  116500    260.85474   -308.12028   -243.41521   -308.12028            0    9485.8512    24.806604    24.846461    22.894251            0            0            0    14111.016    6578.6898        11855    10023.863    1427.6811    86.160453   -339.35005 
  117000     258.9183    -309.7887   -245.56396    -309.7887            0    8861.7938    24.890436    24.854001    22.834483            0            0            0    14126.027    8099.1142    9233.3478    9252.9193   -458.64334     910.1652    1904.2773 
  117500    263.38531   -310.82422   -245.49144   -310.82422            0    8500.2887    24.843756    24.780015    22.768221            0            0            0    14016.769    10787.312    8189.5025    6524.0511    301.34625    1044.8771   -1875.7268 
  118000     263.3867   -311.47886   -246.14573   -311.47886            0    5928.3692    24.888502    24.884651    22.915526            0            0            0     14192.54    3233.6862    7480.6147    7070.8066    944.75642     190.6435    33.264794 
  118500     260.8741   -307.67866   -242.96878   -307.67866            0    9087.4509    24.737072    24.752684    22.860728            0            0            0    13997.827    9301.8546    10353.846    7606.6525   -320.82484   -1366.2481   -1346.7833 
  119000    261.94822   -309.21101   -244.23469   -309.21101            0    9522.1202    24.876715    24.881002    22.891048            0            0            0    14168.588    9866.1941    7262.4204    11437.746    292.83543   -2300.4354    1545.0435 
  119500    267.28541   -308.68932   -242.38912   -308.68932            0    11452.201     24.84152    24.820008    22.781012            0            0            0    14046.014    9857.0154    10237.606    14261.983    514.29531    1138.3798    312.22803 
  120000    262.53634   -307.62888   -242.50668   -307.62888            0    9307.2133    24.825427    24.879728    22.877259            0            0            0    14130.136    10572.165     6948.239    10401.236   -1077.5669   -1385.2802    1437.4997 
  120500    270.17203   -309.96228   -242.94605   -309.96228            0    10296.086    24.773221    24.726255     22.94675            0            0            0    14056.008    8709.5738    10758.244     11420.44    161.64484   -969.77688   -394.53917 
  121000    265.08893   -309.82099   -244.06562   -309.82099            0     5770.885    24.833963    24.816046    23.004991            0            0            0    14177.533     6346.476    6885.1017    4081.0774   -1229.5906    1003.8866    492.32367 
  121500    268.37318   -310.45826   -243.88823   -310.45826            0    10626.527    24.820084    24.888486    22.690835            0            0            0    14016.907    9761.9482     10506.73    11610.902    955.58819    424.71099   -1019.3542 
  122000    255.83625   -306.36126   -242.90102   -306.36126            0    8343.1717    24.951662    24.965663    22.715136            0            0            0    14150.049    8692.5046    7657.4904      8679.52    1449.7449    1390.2559    -926.6782 
  122500    267.57991   -307.15431   -240.78106   -307.15431            0    9073.1326    24.784467    24.763729    22.956943            0            0            0    14089.957    9269.1784    9415.1894    8535.0299    312.97427   -693.45757   -57.482367 
  123000    259.56551   -308.33864   -243.95336   -308.33864            0    7884.3353    24.743387     24.71652    23.082261            0            0            0    14116.428    8509.3324    7736.9337    7406.7397   -201.05069    2139.8546    547.50289 
  123500    264.09583   -308.56521   -243.05619   -308.56521            0    8203.2659    24.814192    24.842007    22.890738            0            0            0    14110.637    8442.8672     8160.438    8006.4923    187.98848    37.983408   -2041.9478 
  124000     270.9834    -309.9593   -242.74181    -309.9593            0    12400.866     24.86182    24.896849    22.710719            0            0            0    14057.504    10141.252      13971.5    13089.846   -590.67146   -1493.4853    1417.2984 
  124500    267.96547   -307.89043   -241.42153   -307.89043            0    7292.4219    24.969846    24.843981    22.794792            0            0            0    14140.758    8287.6354    7234.6699    6354.9603    562.81888   -1485.7034   -1069.9303 
  125000    279.58408   -308.76457   -239.41368   -308.76457            0    10374.975    24.771877    24.739134    22.955596            0            0            0    14067.987    11353.477    10534.886    9236.5629   -52.531972    1414.6114   -749.71238 
  125500    264.40392   -308.29636   -242.71091   -308.29636            0    9737.3713    24.731519    24.871268    23.036598            0            0            0    14169.909    12069.921    10046.088    7096.1042    808.91876   -590.25779    190.53301 
  126000    265.42596   -306.81885   -240.97989   -306.81885            0    4476.8863    24.854142    24.832239    22.815358            0            0            0    14081.274    6220.5825    1297.4362    5912.6402   -503.13164    2217.5374   -1603.3152 
  126500    256.09049   -308.26987   -244.74656   -308.26987            0    9171.3566    24.925701    24.832862    22.725503            0            0            0    14066.552    6373.2405    10326.519     10814.31   -605.38054    2056.2246    1108.3676 
  127000     267.8952   -309.95502   -243.50355   -309.95502            0    8255.4235    24.854872    24.881097    22.861401            0            0            0    14137.867    8071.2867    7971.4013    8723.5825   -488.36565    592.23963    516.84663 
  127500    267.04539   -309.32461   -243.08394   -309.32461            0    7983.6035    24.724255    24.808421    22.985524            0            0            0    14098.625    9710.6019    7797.0983    6443.1104    326.38975    724.26509   -1008.7866 
  128000     266.3121   -309.19083   -243.13205   -309.19083            0    10571.374     24.78077     24.78033    22.938595            0            0            0    14086.033    11684.571    8885.4547    11144.096    -1494.246    1216.8053   -2182.9685 
  128500    266.62806   -308.92003   -242.78288   -308.92003            0    8859.8191    24.880619    24.836064    22.879147            0            0            0    14137.863    7136.1142    9667.0501     9776.293   -1682.4261    1359.6366    352.94702 
  129000    271.00943   -309.50146   -242.27751   -309.50146            0     7826.408    24.864394    24.858579    22.793678            0            0            0    14088.624    10750.853    3802.5924    8925.7786    373.60067    649.68014    1036.6677 
  129500    264.86971   -307.77191   -242.07092   -307.77191            0    8648.3548    24.862938    24.856859    22.895637            0            0            0    14149.837    5932.8259    11281.121    8731.1179   -183.80104    308.15526   -769.28095 
  130000    265.15144   -309.00864   -243.23777   -309.00864            0    9417.4952    24.789543     24.74974    22.970549            0            0            0     14093.23    13180.674    6270.3899    8801.4217    382.89318   -4.0320365   -482.45693 
  130500    266.86689   -308.12184   -241.92545   -308.12184            0    10103.198    24.776592    24.812928    22.921109            0            0            0    14091.435    9761.4881    13385.899    7162.2052     1137.398   -1163.9209    842.98573 
  131000       263.44   -311.24623   -245.89988   -311.24623            0     9231.281    24.844576    24.935668    22.821218            0            0            0    14138.112    9005.9994    9200.4021    9487.4413   -960.40234    100.27008   -368.49079 
  131500    259.33183   -310.30097   -245.97365   -310.30097            0    11135.259    24.791143    24.869508    22.744827            0            0            0    14023.176      14027.6    8985.8053    10392.371    258.56793   -664.20529   -156.20219 
  132000    261.48655   -309.33703   -244.47523   -309.33703            0    7840.1796     24.93124    24.734605     22.94794            0            0            0    14151.178    6921.0549    7998.8082    8600.6759    1128.6964    1782.4596    -1022.024 
  132500    276.23714   -309.05169   -240.53101   -309.05169            0    10372.405    24.796422    24.690312    22.993955            0            0            0    14077.622    8063.7743     10162.88     12890.56    921.93724    250.34096   -1259.1312 
  133000     269.4481   -308.01595   -241.17929   -308.01595            0     6652.855    24.766815    24.964196    22.945745            0            0            0    14186.978     7633.047    6109.3657    6216.1521    451.16098    1397.6598    135.18218 
  133500    259.98828   -307.25238   -242.76223   -307.25238            0    11957.144    24.799723    24.937778    22.710544            0            0            0    14045.336    9526.0942    12732.053    13613.284   -311.01705    341.55402    930.37661 
  134000    265.85744   -311.16211   -245.21611   -311.16211            0    9434.7961    25.008871     24.78987     22.78186            0            0            0    14123.994    9551.5857    9375.8181    9376.9845    823.30602    1173.1113    1105.8423 
  134500    268.25462   -307.98377   -241.44315   -307.98377            0    9222.5364    24.896808    24.722545    22.916903            0            0            0    14105.639    7563.7954    10433.048    9670.7659    -162.6228    477.43476    2302.9166 
  135000    264.12382   -311.34191   -245.82594   -311.34191            0    11941.746    24.709013    24.875499    22.982166            0            0            0    14125.966    11814.759    11561.815    12448.665    782.86617   -389.77074    891.94791 
  135500    259.48494   -308.10604   -243.74074   -308.10604            0    9164.9004    24.759967    24.830176     22.94542            0            0            0    14106.715    10881.588    8787.3683    7825.7451   -484.92346    711.20663    1706.5707 
  136000    266.16403   -308.98487   -242.96282   -308.98487            0    8865.7463    24.921688     24.71969    22.908337            0            0            0    14112.828    6381.1336     11706.36    8509.7452    -185.1335    1744.6671    1466.9622 
  136500    266.63027   -309.02533   -242.88764   -309.02533            0    10406.188    24.842194     24.84818    22.878778            0            0            0    14122.688    12432.677    7330.2242    11455.662    1142.5225    774.55651    191.74087 
  137000     263.0856   -307.42239   -242.16395   -307.42239            0    7276.6219    24.706003    24.995549    22.861091            0            0            0    14117.641    6576.7441    7530.7817      7722.34   -1002.5066    256.07761     1430.743 
  137500    274.75644    -308.7524   -240.59901    -308.7524            0    10865.707    24.793032    24.900747    22.861327            0            0            0    14113.783    9752.5315    10584.411    12260.178    737.26087   -1660.9592    1667.8134 
  138000    270.70297   -309.25608   -242.10815   -309.25608            0    9758.5364    24.964353    24.687844     22.89843            0            0            0     14112.67    8700.1233     9275.287    11300.199   -57.122781   -538.11917   -341.72002 
  138500    261.71926   -308.16097   -243.24145   -308.16097            0    9689.6255    24.897605    24.804793    22.857895            0            0            0    14116.578    9700.5179    11623.184    7745.1743   -1103.7494    2141.0489     531.4835 
  139000    256.93125   -310.69221   -246.96036   -310.69221            0    9705.7877    24.613433    25.069061    22.840966            0            0            0     14093.69    12263.477    6676.0557     10177.83   -554.15393   -1036.4994    1303.0223 
  139500    264.14493   -308.44861   -242.92741   -308.44861            0    10319.943    24.735832    24.875146    22.885006            0            0            0    14081.314    8170.8963    9540.6439    13248.289   -1100.9327    838.50046   -1210.6523 
  140000    270.33389   -308.32203   -241.26565   -308.32203            0    8399.7116    25.021945    24.662847    22.918421            0            0            0    14143.242    7524.9885    8304.4677    9369.6785    676.07855    1822.7917     392.7193 
  140500    275.96321   -308.98558   -240.53284   -308.98558            0      8653.05     24.87361    24.768819    22.876283            0            0            0    14093.848    5231.1737    10343.836    10384.141   -75.808056   -1509.4373   -1774.8445 
  141000    259.67377   -307.92387   -243.51174   -307.92387            0    8706.2104    24.743414    25.019145    22.875736            0            0            0    14161.432    9155.7032    7456.2636    9506.6644    530.70668   -326.44665   -1701.8251 
  141500     264.6159    -309.0842   -243.44617    -309.0842            0    11936.405    24.765753    24.872672    22.819465            0            0            0    14056.573    11477.075    10418.242    13913.899    416.31731    -1440.962     336.9206 
  142000    265.10843   -308.94611    -243.1859   -308.94611            0    8653.7121    24.959022    24.792493    22.919666            0            0            0    14182.606    10314.005    7288.2304    8358.9008    123.42882   -2689.1068    -3154.286 
  142500     276.2833   -308.95298   -240.42084   -308.95298            0    10989.587    24.812385     24.73575    22.936753            0            0            0      14077.5    11275.071    10146.968    11546.722    240.76834     1105.318     1528.628 
  143000    270.83331   -310.29233   -243.11207   -310.29233            0    8750.3131    24.817094    24.916158    22.924561            0            0            0    14175.325    9941.6327    10261.834    6047.4725    433.97256   -1367.3127   -857.84552 
  143500    265.06691   -307.36888   -241.61898   -307.36888            0    8467.6721    24.871479     24.83739     22.77713            0            0            0    14070.405    9996.6277    7174.5851    8231.8034   -664.23582    -493.9217   -1812.6174 
  144000    269.52356   -308.82802   -241.97265   -308.82802            0    10719.854    24.981739    24.794426    22.853214            0            0            0    14155.461    6855.0292    11864.734      13439.8   -630.33814   -544.00009    -1688.936 
  144500    265.51525    -307.3141   -241.45299    -307.3141            0    8325.8643    24.788432    24.784702    22.928855            0            0            0     14086.89    8168.1567    6976.5806    9832.8557     1726.288   -520.84603    629.27221 
  145000    258.52343    -306.9898   -242.86301    -306.9898            0    8279.1104    24.647492    24.961345     23.00491            0            0            0    14153.415    11241.959     3528.964    10066.408      499.956   -2618.4217   -1524.1359 
  145500    266.56722   -309.20813   -243.08608   -309.20813            0     11070.58    24.789572    24.855808    22.906273            0            0            0    14114.041    7444.8414    14905.731    10861.169   -384.75285    1030.7747    1037.2946 
  146000    266.23537   -310.17082   -244.13108   -310.17082            0     8621.677    25.033046     24.73327    22.793959            0            0            0    14112.859    10354.573     8934.666    6575.7922   -2923.1845   -1004.5619    1149.6444 
  146500    257.88684   -308.25299   -244.28411   -308.25299            0    7150.5935    24.884123    24.859418    22.778183            0            0            0    14090.693    9101.9133    6654.0638    5695.8035    547.60384   -1092.9152   -1306.2198 
[...]
  365000    267.03463   -308.02599   -241.78799   -308.02599            0    10217.132    24.873842    24.811462    22.782902            0            0            0    14060.613    9347.3392    12685.756       8618.3   -798.41234    197.50666    741.88978 
  365500    266.14287    -308.4564    -242.4396    -308.4564            0    9636.5184    24.737841    24.918568    22.854908            0            0            0    14088.487    10163.569    10123.069    8622.9167    8.6512611    1090.7795    814.44908 
  366000    262.96456   -305.50001    -240.2716   -305.50001            0    8469.2638    24.735741     24.83422    22.987597            0            0            0    14121.116    9137.2374    7296.6065    8973.9476     2128.314   -1014.7601    571.67264 
  366500    267.06186   -308.93444   -242.68969   -308.93444            0    6602.2134    24.852178    24.731436    22.941386            0            0            0    14100.466    4838.5061    8126.7296    6841.4044    688.87016   -2190.6277    2203.8429 
  367000    257.26818   -308.12259   -244.30716   -308.12259            0    10845.751    24.941644     24.82798    22.774083            0            0            0    14102.866    11345.587    10724.132    10467.534   -672.25934   -1668.8511   -2195.2091 
  367500    257.01457   -306.89718   -243.14466   -306.89718            0    10836.885    24.874459    24.930092    22.694119            0            0            0    14073.135    9542.8023    11254.327    11713.525   -52.123357    336.41597    1981.4575 
  368000    271.11591   -309.12372   -241.87336   -309.12372            0    9584.0259    24.770853    24.860018    22.875901            0            0            0    14087.068    11335.978    8042.4279    9373.6721    -884.5576    313.03145   -1264.5001 
  368500    265.89729   -309.24818    -243.2923   -309.24818            0    9699.1764    24.762288    24.693588    23.044825            0            0            0    14091.213     14014.64    8764.8774    6318.0116    -205.7855    1897.3616    308.92795 
  369000    259.02265   -306.91889   -242.66826   -306.91889            0    8578.5023    24.837363    24.759246    22.919703            0            0            0    14094.571    9941.2251    7535.3117    8258.9701    707.57354   -762.51541    362.29676 
  369500    260.79414    -306.8624   -242.17236    -306.8624            0     7347.607    24.856331    24.946282    22.709775            0            0            0    14081.719    7067.4611    6549.9953    8425.3645   -222.01227    1242.0451    259.73265 
  370000    267.25614   -308.10311   -241.81017   -308.10311            0    7914.1574    24.836022    25.017537    22.740391            0            0            0    14129.426    8429.1993    5680.7878    9632.4852    795.79715   -234.66133     1241.702 
  370500    255.60172   -308.40555   -245.00349   -308.40555            0    12036.653    24.800317    24.730889    22.879326            0            0            0    14032.666    12545.734     10721.52    12842.706    139.89928   -342.34577    126.63235 
  371000    254.94029   -309.33742   -246.09942   -309.33742            0    8669.6006    24.847045    24.669193    23.063249            0            0            0     14136.77    6381.2201    10377.945    9249.6367   -856.88892   -1765.8019     1319.227 
  371500    271.00188    -311.1214   -243.89932    -311.1214            0    9406.1225    24.758281    24.804618    22.864682            0            0            0    14041.652    9153.9724    9823.0904    9241.3048    1594.0928    1275.1174   -7.1835536 
  372000     268.4073   -309.12711   -242.54862   -309.12711            0     8246.507    24.870145    25.007645    22.723879            0            0            0    14132.975    10690.442    5953.8269    8095.2525    445.57787    3479.3628    2196.5052 
  372500    260.63319   -309.63188   -244.98176   -309.63188            0    8899.2151    24.883406    24.841724    22.735937            0            0            0    14054.144    8404.8553    9154.0612    9138.7289    628.10345    1042.0422    1059.9039 
  373000    255.27196    -312.0138   -248.69353    -312.0138            0    9351.4199    24.806631      24.7019    22.949918            0            0            0    14063.042    10968.537    7715.7993    9369.9237    239.37944   -264.26926   -1305.2688 
  373500    265.71253   -309.03561   -243.12556   -309.03561            0    10696.577    24.743915    24.749118    22.986644            0            0            0    14076.792    11545.937    11927.188    8616.6064    928.41293   -156.41834    585.30491 
  374000    261.20679   -308.06995   -243.27755   -308.06995            0    12827.095     24.77278    24.877778    22.861617            0            0            0    14089.425    16053.748    12727.079    9700.4581   -1134.0727    898.38923    1353.2526 
  374500    276.94892   -308.86655   -240.16931   -308.86655            0     8951.997    24.890753    24.920271    22.714329            0            0            0    14089.341    9487.5967    6579.3688    10789.025    2484.5556    639.67443    1300.7633 
  375000     274.0085   -309.93012   -241.96225   -309.93012            0    9135.4848    24.920744    24.805016    22.827241            0            0            0    14110.875    7878.4095    9837.6944    9690.3503   -823.53531    721.98391   -103.72447 
  375500    260.53971   -307.77296   -243.14603   -307.77296            0    7807.0854    24.761513    24.713622    22.951044            0            0            0    14044.815    7732.2093    7252.8792    8436.1677    139.74327    966.50741   -642.30622 
  376000    271.11683   -308.94513   -241.69454   -308.94513            0    7973.7099    24.779556    24.850835    22.998866            0            0            0    14162.533    8044.2423    7628.1208    8248.7665   -1059.5775    2957.8274    1129.4813 
  376500    269.07248   -309.75621   -243.01273   -309.75621            0    9149.3718    24.835786     24.83234    22.762234            0            0            0    14038.168    9153.3997    8903.9762    9390.7395   -293.17272    1578.2966   -781.15869 
  377000    262.32632   -311.26069   -246.19059   -311.26069            0    8242.6947    24.893143    24.874636    22.776971            0            0            0     14103.68    7487.3393    6986.2636    10254.481   -485.64086   -1068.9318    6.6131007 
  377500    262.08046   -310.54904   -245.53993   -310.54904            0    7544.2514    24.719464    24.797172    22.950825            0            0            0    14068.232    5881.5256    8218.5627    8532.6658     1762.173   -876.96296   -243.98112 
  378000    263.38135   -309.35167   -244.01987   -309.35167            0    9311.6731    24.757606    24.746263    23.023984            0            0            0    14105.833    13227.943    5709.9952    8997.0807    528.28607   -1432.7634   -729.47497 
  378500    267.73829   -309.83547   -243.42293   -309.83547            0    12234.844     24.89885    24.719325    22.844528            0            0            0    14060.413    11934.943    13472.311    11297.277    789.34759    817.04566    1284.2484 
  379000    256.90758   -307.55368    -243.8277   -307.55368            0      8850.45     24.91958    24.934827    22.681294            0            0            0    14093.372    7548.6621    7202.5268    11800.161    169.99619   -1755.8308    -151.4067 
  379500    259.38572   -309.68007   -245.33938   -309.68007            0    6891.1245    24.737545    24.991657    22.768768            0            0            0    14076.386    6279.7832    5809.9376    8583.6526   -73.845935   -321.58222   -1970.7039 
  380000    256.38872   -311.04454   -247.44726   -311.04454            0    10512.913    24.722077    24.764516     23.03832            0            0            0    14104.757    12148.775    7719.4143    11670.551     1647.331     847.2506   -377.63428 
  380500    262.48697   -307.96429   -242.85434   -307.96429            0    10821.237    24.836096    24.604737    23.031974            0            0            0    14074.508    7472.0307    11791.186    13200.494   -224.41472   -1651.9505    2834.1399 
  381000    262.95546   -308.29192   -243.06576   -308.29192            0    8426.4309    24.849274    24.847437    22.854159            0            0            0    14111.089    8135.3741    7356.5951    9787.3234    63.982735    1534.8111   -1891.2259 
  381500     265.8347   -305.25921   -239.31886   -305.25921            0    7123.3019     24.83237    24.964151    22.770351            0            0            0    14115.774     6398.141    6726.6065    8245.1582    524.70269    1714.0273   -2406.0243 
  382000    260.66141   -307.18774   -242.53062   -307.18774            0    8656.1755    24.834199     24.87415    22.816427            0            0            0    14094.382    7974.4036    8483.7249    9510.3979    818.12916   -2251.9021   -597.26502 
  382500    270.72873   -307.09495   -239.94063   -307.09495            0    10878.545    24.778011    24.834575    22.914234            0            0            0    14100.305    11307.475    10385.209    10942.953    -1916.906   -728.94395   -1789.2479 
  383000    271.63461   -306.81329   -239.43427   -306.81329            0    8163.9925    24.846936    24.848566    22.922887            0            0            0    14152.837    8299.6523     9421.931    6770.3942   -110.84229    1173.3604    -866.2622 
  383500    266.18334   -305.45975   -239.43292   -305.45975            0    9994.4791    24.856489    24.849022    22.795241            0            0            0    14079.696    10449.828     10438.05    9095.5589      -713.99   -271.96341   -521.76726 
  384000    257.58362    -309.8282   -245.93452    -309.8282            0    6049.7913    24.849194    24.919605    22.829023            0            0            0    14136.464    6432.6066    2995.8522    8720.9152    1374.0609    1960.8019   -1090.3581 
  384500    263.45122   -309.94304   -244.59391   -309.94304            0    8163.0637    24.723943    24.804835    22.857012            0            0            0    14017.596    9736.5628    9141.3968    5611.2317    204.45837    1953.6467    837.40696 
  385000    255.22314   -309.66992   -246.36177   -309.66992            0    8260.4887    24.859579    24.819422    22.992899            0            0            0    14186.628    8090.5637    8149.9914    8540.9111    536.72639   -1410.5675   -2245.4664 
  385500    259.91667   -308.72292   -244.25053   -308.72292            0    10380.641     24.77293    24.716551    22.838609            0            0            0    13984.112    9592.4935    12473.924    9075.5066   -1506.7787   -385.13879   -1312.8573 
  386000    264.90869   -308.04926   -242.33861   -308.04926            0    8294.6014    24.969259    24.971754    22.805731            0            0            0     14219.97    7723.3444     7256.354    9904.1059   -740.82188    -189.4651   -1127.2992 
  386500    265.46578   -307.39096   -241.54211   -307.39096            0    10391.029    24.884414    24.806539    22.744387            0            0            0    14040.023    8663.2362    10215.133    12294.719    12.420542   -221.03759    2255.9374 
  387000    265.23703   -309.77881   -243.98671   -309.77881            0    10033.414    24.791548      24.8033    22.980409            0            0            0    14130.934    10031.035    10203.905    9865.3034    452.02505    1705.4307    274.94022 
  387500    268.03487   -310.46556   -243.97945   -310.46556            0    9878.9851    24.758846    24.769596     22.98134            0            0            0    14093.688    9696.6162     9611.173    10329.166    519.47315   -890.05066   -200.83162 
  388000    257.43316   -309.20489   -245.34854   -309.20489            0    8684.4355    24.863424    24.846838     22.77163            0            0            0      14067.8    9976.0148    9920.3537    6156.9381    336.15069    95.375227   -24.864555 
  388500    258.30096   -310.63976   -246.56815   -310.63976            0     8405.141    24.925395    24.866296    22.723789            0            0            0    14084.255    10759.862    6001.0706    8454.4902    -670.4641   -872.10194    97.448961 
  389000    257.03441   -309.52282   -245.76537   -309.52282            0    9331.2583    24.841033    24.779187     22.85832            0            0            0    14070.224    7824.5704    9343.0741     10826.13    1111.8348    247.85598   -3145.5999 
  389500     253.0818   -310.17744   -247.40044   -310.17744            0    8609.3504    24.745494    24.745117    23.023447            0            0            0    14097.951    7971.5221    9070.9065    8785.6225    89.098283   -3112.1982   -1440.6911 
  390000    260.42136   -313.44062   -248.84305   -313.44062            0     6997.283    24.812629    24.761805    22.931635            0            0            0    14089.322    8169.7775    5756.5389    7065.5325   -1779.4766    1848.4941    495.35893 
  390500    270.89449   -309.56038   -242.36494   -309.56038            0    9665.2727    24.956589    24.848406    22.726084            0            0            0    14093.159    5873.1755    11276.942      11845.7   -78.886576    2152.1428    -2141.521 
  391000    265.41989   -307.94768   -242.11022   -307.94768            0    7354.0312    24.885766    24.920324    22.768121            0            0            0    14119.909    5843.6004    8402.8614    7815.6318    555.22581    2831.9254    1796.7221 
  391500    261.56726   -307.25819   -242.37637   -307.25819            0    9467.7228    24.723643    24.786779    23.004959            0            0            0    14097.887    8951.7802    10047.299    9404.0893    870.87107    1610.3317   -179.81667 
  392000    258.22278   -309.05814   -245.00593   -309.05814            0    8548.3948    24.760472    24.700543    23.048157            0            0            0    14096.186    9129.7572    8480.0243    8035.4028    110.73045    427.60767   -251.51064 
  392500    267.67217   -309.02683   -242.63069   -309.02683            0    8821.0612    24.874695    24.837809     22.77764            0            0            0    14072.776    8012.1106    6161.9055    12289.168   -26.234453   -94.051196    1309.6598 
  393000     263.7175    -307.8336   -242.41842    -307.8336            0     9885.651    24.962176    24.927366    22.699027            0            0            0    14124.271    8452.8761    8603.9896    12600.087    2114.2464   -576.12212       2156.7 
  393500    268.86722   -309.53847   -242.84589   -309.53847            0    10237.433     24.80491    24.837494     22.84805            0            0            0    14076.496    13566.261    7566.0057    9580.0315   -1041.4618    380.64497    965.38132 
  394000    260.57209   -309.37787    -244.7429   -309.37787            0     8425.342    24.768087    24.737219    23.043854            0            0            0    14118.822    8627.0477    8519.0193    8129.9589    196.13258   -1727.0928    1838.7901 
  394500    266.07116   -308.79671    -242.7977   -308.79671            0    8976.8721    24.779158    24.746499    22.927704            0            0            0    14059.209    7843.6957    8833.2937    10253.627    714.28903    1387.6096   -1055.9505 
  395000    262.02399   -309.01254   -244.01743   -309.01254            0    8904.1464    24.923461    24.911022    22.776309            0            0            0    14141.101    8067.7886    10013.869    8630.7812   -889.31119    2151.0191    2023.0458 
  395500    264.70326   -310.17897   -244.51926   -310.17897            0    9275.3948    24.826947     24.83875    22.737357            0            0            0    14021.453    10889.569    8300.3758    8636.2392    2140.0695    548.08294   -15.203595 
  396000    264.29873   -310.75006   -245.19071   -310.75006            0    7365.0325    24.801821    24.849497    22.926153            0            0            0    14129.681    7032.7806    6630.4695    8431.8475    2047.1166     1800.227    1007.1697 
  396500    271.45009   -307.84647   -240.51322   -307.84647            0    9765.9403    24.773104    24.787694    22.898284            0            0            0    14061.107    8560.3916    10584.684    10152.746   -1426.9847    714.38459     281.0679 
  397000    262.37098   -310.15264   -245.07146   -310.15264            0    6048.0109    24.865145    24.823444    22.844386            0            0            0    14100.435     6464.969    6418.9662    5260.0973   -153.77875   -295.65032   -585.20375 
  397500    266.34096   -308.27197   -242.20604   -308.27197            0    10551.903    24.848764    24.841963    22.818992            0            0            0    14085.983    8998.7086    12153.676    10503.325    122.32042    1604.3454    1232.3145 
  398000    262.46162   -309.03954   -243.93587   -309.03954            0    8999.8545    24.804899    24.845422    22.856152            0            0            0    14085.976    9944.8606    9938.2052    7116.4976   -1834.2486   -1039.1552    513.79317 
  398500    259.66864   -308.19401   -243.78315   -308.19401            0    9203.6796    24.789966    24.846918    22.894772            0            0            0    14102.132    9461.6401    7928.2872    10221.112   -127.83196   -733.69843   -134.78019 
  399000    259.80861   -310.86234   -246.41675   -310.86234            0    10968.616    24.810055    24.780355    22.799512            0            0            0    14017.185    10880.283     10936.32    11089.244    -667.8477    613.67818    -846.5903 
  399500    261.77206   -311.13732    -246.2047   -311.13732            0     5653.126     24.95683    24.820912    22.831014            0            0            0    14142.701    2504.8808    6561.5505    7892.9469    1056.6843   -736.03726    888.35217 
  400000    260.47036   -310.19053    -245.5808   -310.19053            0    9687.4558    24.747218    24.741727     22.83615            0            0            0    13982.322    11573.774    7121.6428    10366.951    485.19193    -2517.607    2351.6023 
Loop time of 4412.67 on 1 procs for 400000 steps with 1920 atoms

Performance: 3.916 ns/day, 6.129 hours/ns, 90.648 timesteps/s
64.1% CPU use with 1 MPI tasks x 1 OpenMP threads

MPI task timing breakdown:
Section |  min time  |  avg time  |  max time  |%varavg| %total
---------------------------------------------------------------
Pair    | 3780.1     | 3780.1     | 3780.1     |   0.0 | 85.67
Bond    | 0.063437   | 0.063437   | 0.063437   |   0.0 |  0.00
Neigh   | 582.14     | 582.14     | 582.14     |   0.0 | 13.19
Comm    | 16.215     | 16.215     | 16.215     |   0.0 |  0.37
Output  | 2.7849     | 2.7849     | 2.7849     |   0.0 |  0.06
Modify  | 28.938     | 28.938     | 28.938     |   0.0 |  0.66
Other   |            | 2.378      |            |       |  0.05

Nlocal:        1920.00 ave        1920 max        1920 min
Histogram: 1 0 0 0 0 0 0 0 0 0
Nghost:        7290.00 ave        7290 max        7290 min
Histogram: 1 0 0 0 0 0 0 0 0 0
Neighs:         0.00000 ave           0 max           0 min
Histogram: 1 0 0 0 0 0 0 0 0 0
FullNghs:      554310.0 ave      554310 max      554310 min
Histogram: 1 0 0 0 0 0 0 0 0 0

Total # of neighbors = 554310
Ave neighs/atom = 288.70312
Ave special neighs/atom = 0.0000000
Neighbor list builds = 40000
Dangerous builds not checked

unfix		3
unfix		2

write_data	data.final.${pid}
write_data	data.final.0
System init for write_data ...

write_restart   restart.lmp.${pid}
write_restart   restart.lmp.0
System init for write_restart ...
Total wall time: 1:13:36
