LAMMPS data file via write_data, version 29 Sep 2021, timestep = 400000

972 atoms
2 atom types

0.020696066270472713 19.970356933731864 xlo xhi
-0.15372208068149895 20.14477508068184 ylo yhi
0.1374217556868711 20.6633502443131 zlo zhi

Masses

1 1.008
2 15.999

Atoms # full

31 0 1 0 0.9328797182078349 2.0088389050331315 2.2441407208771245 0 0 0
32 0 2 0 0.7656106702416199 1.0449905391065064 2.399694811357526 0 0 0
33 0 2 0 1.0613585300691675 2.4865319520420215 3.0690306248298573 0 0 0
2 0 2 0 1.6952180545673097 2.386946790267701 0.6206427705699877 0 0 0
5 0 2 0 3.5163158658766855 1.3671525263450657 3.726224610074314 0 0 0
4 0 1 0 4.355797575343771 1.5834956642416789 3.2197973309740187 0 0 0
18 0 2 0 4.2852933852904815 3.4610215003709768 3.4427171203852285 0 0 0
35 0 2 0 4.059786507082925 2.4096797058834274 0.39287056104985246 0 0 0
230 0 2 0 4.555263032960921 0.09710607199589988 2.1250772012355883 0 1 0
36 0 2 0 5.401865696770036 2.3264955761893438 1.1951893219803784 0 0 0
67 0 1 0 7.310230710180183 2.1411317644664156 2.2936111603553337 0 0 0
68 0 2 0 7.679554092368063 2.7070225710032667 3.0495932235128107 0 0 0
6 0 2 0 5.061022107882542 1.258462068768023 3.805858259804576 0 0 0
34 0 1 0 5.025724470026298 2.4124450617374746 0.29734776990004375 0 0 0
272 0 2 0 7.480838039686804 0.3376819142555167 2.319040494835759 0 1 0
69 0 2 0 7.855362423290506 2.4672136973566388 1.5653995930723155 0 0 0
41 0 2 0 9.817290966553553 1.2113906545490103 3.6175655583235486 0 0 0
39 0 2 0 9.95711399934047 2.5621973972257353 0.4245212569069588 0 0 0
37 0 1 0 9.010855216572569 2.7705571428249836 0.17013444856764096 0 0 0
40 0 1 0 10.666397389791383 1.4920529641925282 3.2266539864314576 0 0 0
54 0 2 0 10.896047742028617 3.297239146746244 3.610502103932625 0 0 0
42 0 2 0 11.27386846220266 1.207083250435784 3.976790705532965 0 0 0
266 0 2 0 10.945996981571938 0.1699674819520534 1.8150309300628207 0 1 0
70 0 1 0 12.030907443204812 2.419574614727887 0.49819731407266393 0 0 0
72 0 2 0 12.568978935780994 2.1103986048964556 1.2344383798537604 0 0 0
103 0 1 0 14.226627438980033 1.9180384693531463 2.2701612656339165 0 0 0
105 0 2 0 14.191882979986268 0.9902704878395903 2.468706844847424 0 0 0
84 0 2 0 14.246189958918865 3.2217485037440907 3.6682682795503787 0 0 0
104 0 2 0 14.990021784685622 2.0760348336544237 1.6680977512043331 0 0 0
73 0 1 0 16.024499685592687 2.8766474528613126 0.3055941908368233 0 0 0
108 0 2 0 19.45491477202254 2.391429265053715 1.163986526589817 0 0 0
76 0 1 0 17.48932391757924 0.882320548282501 3.8789487665944757 0 0 0
77 0 2 0 17.399191974827772 0.40656247145758184 3.0161754077837806 0 0 0
89 0 2 0 17.15875671359882 2.679147924880902 3.9494911800853587 0 0 0
107 0 2 0 18.043726278605142 2.9520738005139284 0.6505730338125973 0 0 0
106 0 1 0 18.83753931305324 2.390691904256082 0.4270281567624826 0 0 0
78 0 2 0 18.374109823925714 0.7195801936909557 4.207552457665674 0 0 0
88 0 1 0 17.065158183019342 3.633841530859039 4.073962222270923 0 0 0
90 0 2 0 16.133705793565724 3.820953137123079 4.01423798634303 0 0 0
75 0 2 0 15.687994501539498 3.763183010717132 0.28052196505519617 0 0 0
16 0 1 0 4.26458115633642 4.394231048313417 3.7501818700420713 0 0 0
10 0 1 0 1.42406042007283 4.078450355225623 4.054333407670117 0 0 0
17 0 2 0 4.686269836953589 4.851302014307264 2.992389774021464 0 0 0
20 0 2 0 1.1197431514666911 5.299211692855658 2.6241059816169754 0 0 0
19 0 1 0 0.8650732626692362 5.756095092691898 1.8141207723008006 0 0 0
21 0 2 0 1.0187253315033817 6.684698067846013 1.9766313243176408 0 0 0
675 0 2 0 2.0419541018520224 5.385493591225682 0.4182517729203165 0 0 1
14 0 2 0 4.753007171177364 5.5478807209816 0.5262193956251262 0 0 0
131 0 2 0 2.2914776573657445 7.576625564236955 4.126531813272418 0 0 0
112 0 1 0 4.370602766766011 7.734271767224601 3.4400876026992844 0 0 0
114 0 2 0 4.676790237050177 7.2305614950739 2.6457626895915456 0 0 0
113 0 2 0 4.849792255423268 7.268860644706764 4.123490014461961 0 0 0
13 0 1 0 5.167835979112099 5.843761523227972 1.4196154920740536 0 0 0
15 0 2 0 6.13306326770117 5.876186356094778 1.3814523208539193 0 0 0
55 0 1 0 8.080642403168937 5.934934256284761 2.065920822088937 0 0 0
56 0 2 0 8.279848167516198 5.328351695685949 2.8348203057104935 0 0 0
57 0 2 0 8.625540826999316 5.636201950794312 1.3048857557243883 0 0 0
52 0 1 0 10.750715275725879 4.22365383261426 3.8159170846887283 0 0 0
82 0 1 0 14.283984619841881 4.016837724330969 4.177052608443696 0 0 0
51 0 2 0 11.019899188387633 5.185702967779604 2.291720760200738 0 0 0
49 0 1 0 11.549506881878564 5.670910417133713 1.6684345437008703 0 0 0
50 0 2 0 11.05170987523875 5.668538817529152 0.826972070602135 0 0 0
150 0 2 0 10.8269803907474 7.37101231060553 2.4717061151590825 0 0 0
149 0 2 0 10.092607059627692 7.452829382638378 3.7837350513958676 0 0 0
148 0 1 0 10.69276401798629 7.925785484535842 3.2131676204233153 0 0 0
83 0 2 0 14.275858204607065 4.795224116541189 3.5946095926538337 0 0 0
91 0 1 0 14.091373569460146 6.301040493367624 2.314555541813398 0 0 0
92 0 2 0 13.99711655780818 7.258176905788845 2.5247846626869537 0 0 0
93 0 2 0 13.235195165276934 6.028440532666291 2.0257171882716465 0 0 0
747 0 2 0 15.364281381610455 6.014486870891505 1.2516260657849938 0 0 1
204 0 2 0 16.06498804005995 7.421408769592338 4.234700969421826 0 0 0
745 0 1 0 15.790711209571318 5.577033285979731 0.4832618371312468 0 0 1
86 0 2 0 17.899696953602103 4.9285080031285595 2.644293652771404 0 0 0
85 0 1 0 18.04003203963334 5.603485053157715 1.9417400798871418 0 0 0
87 0 2 0 18.995301111322497 5.610077027720051 1.7849086638175184 0 0 0
746 0 2 0 16.718782671088242 5.641172002863182 0.6996595156860147 0 0 1
185 0 2 0 17.475396691285795 7.299244825539528 2.5411815370831574 0 0 0
184 0 1 0 17.436360655953415 7.815229866985681 3.3718787843953324 0 0 0
139 0 1 0 0.9787624726803397 8.430176490461932 1.8346924127068565 0 0 0
141 0 2 0 1.5716003868607 8.827621085356949 1.147763741235216 0 0 0
119 0 2 0 1.4897686659719267 9.619993094524164 3.1201412489342593 0 0 0
140 0 2 0 0.12411448972775654 8.586547995912404 1.4251040879063055 0 0 0
110 0 2 0 3.682552425422269 9.248697175362048 0.6190985575407604 0 0 0
109 0 1 0 2.876265604105014 9.427071854004309 0.1654546940879757 0 0 0
126 0 2 0 4.53948997595272 9.560517065579482 3.7427476022270616 0 0 0
120 0 2 0 2.5888837392433186 10.58328327735794 3.4788710922542623 0 0 0
118 0 1 0 1.6238691473459328 10.445242472929595 3.562688633287859 0 0 0
129 0 2 0 0.9500369124476453 11.816564002117902 2.410916673101421 0 0 0
124 0 1 0 4.655548628993085 10.513291370988734 3.7665931623676108 0 0 0
122 0 2 0 4.387287342909119 11.59539880126444 2.328444823632739 0 0 0
177 0 2 0 8.002191950640714 8.094001492434868 2.678602115042071 0 0 0
175 0 1 0 7.712448591144855 8.928971429603227 2.3632914140263352 0 0 0
176 0 2 0 6.856592068804242 8.774058805710998 1.9483786066820918 0 0 0
142 0 1 0 5.7247223163891165 8.977840832038936 0.6395925920829116 0 0 0
147 0 2 0 8.874128385011144 9.121384083776185 0.9809179044921567 0 0 0
145 0 1 0 9.426959747852374 9.479230885180048 0.29014103664594193 0 0 0
155 0 2 0 7.578753577964714 10.344423386816564 3.4740416261828524 0 0 0
156 0 2 0 7.57058521518578 11.895406328496133 3.375886660877993 0 0 0
154 0 1 0 7.833539679745598 11.12146069683419 3.9274644728444708 0 0 0
146 0 2 0 9.096904393769968 10.403321047150762 0.17792058962038776 0 0 0
161 0 2 0 9.541922062688391 10.775646689773392 3.816683707318142 0 0 0
143 0 2 0 5.986114725049626 9.825393735023306 0.30758305846725664 0 0 0
162 0 2 0 10.614062131019905 9.688114453249407 3.4583414732308566 0 0 0
179 0 2 0 11.136504526336696 9.229007176717165 0.6043846088056379 0 0 0
178 0 1 0 12.106863459103776 9.081847674476709 0.45882320531089343 0 0 0
211 0 1 0 13.838660949221323 9.018862773830396 2.3081197687637545 0 0 0
212 0 2 0 13.950108364893431 9.76223434222905 2.928273644711212 0 0 0
213 0 2 0 13.02566642012911 9.003240168031798 1.7865438361947052 0 0 0
183 0 2 0 14.914628673858752 9.18191384879993 0.7958511273687988 0 0 0
160 0 1 0 10.523671649462804 10.662550027442862 3.7403449963280972 0 0 0
158 0 2 0 11.063316150624546 11.887661206007968 2.5510441443016973 0 0 0
190 0 1 0 14.835789056000912 10.776334848333189 4.102334971776971 0 0 0
191 0 2 0 14.833388837055336 11.6642083721417 3.7348002702942793 0 0 0
186 0 2 0 17.352683044843666 8.733007215655137 3.1105800548493048 0 0 0
216 0 2 0 17.324278850708367 9.009355626900721 0.31825171180625444 0 0 0
214 0 1 0 18.29689789352421 8.824302839580549 0.23428234730150402 0 0 0
192 0 2 0 15.731564441054156 10.416918273205066 4.031557313496405 0 0 0
197 0 2 0 17.598562155038785 11.385918589172869 2.5497276416010344 0 0 0
196 0 1 0 17.552994138438507 10.569909010568429 3.1552825359142473 0 0 0
198 0 2 0 18.24283021667476 10.693204763686829 3.8763723240500454 0 0 0
782 0 2 0 1.878044637936357 12.26030454179025 0.25466519717657804 0 0 1
123 0 2 0 4.079348708331375 12.376095109012672 1.0605088491023533 0 0 0
127 0 1 0 0.6860732170863685 12.442426931435444 1.6919434860998608 0 0 0
249 0 2 0 0.615711054960484 14.38133289211537 2.1980272825623817 0 0 0
221 0 2 0 3.1484113355377477 14.432067049174533 3.618396039383917 0 0 0
220 0 1 0 3.88830403952857 14.598637061161362 3.0010392919760425 0 0 0
222 0 2 0 4.052270482424395 13.884807111838322 2.4349480786465874 0 0 0
121 0 1 0 4.688138459233145 12.3420304652393 1.8097219782008058 0 0 0
247 0 1 0 0.75495928567537 15.312729268677296 2.222785852361279 0 0 0
165 0 2 0 6.4618450510794085 12.86341625014975 1.9580697017929445 0 0 0
163 0 1 0 7.362759860305085 13.119372317536664 2.1488634905532575 0 0 0
164 0 2 0 7.379346120084746 14.122053570321484 2.256714392461335 0 0 0
819 0 2 0 8.448712568817331 12.432679801872368 0.8892166451328312 0 0 1
258 0 2 0 9.788721491469335 14.625622924653817 3.528790769382628 0 0 0
817 0 1 0 9.085991725640932 12.157729262523329 0.2055531404327831 0 0 1
818 0 2 0 9.970866935945114 12.290373403039926 0.644687788694705 0 0 1
283 0 1 0 7.515101469507748 15.90523443435921 2.1083546068483576 0 0 0
285 0 2 0 8.160891726908504 15.788114935286167 1.3854668370692822 0 0 0
157 0 1 0 11.381708853661822 12.484856977180147 1.8626283121358937 0 0 0
159 0 2 0 11.163456944264949 13.41901727978983 2.142811852154611 0 0 0
256 0 1 0 10.630467599047869 14.825047642337994 3.062275937202893 0 0 0
199 0 1 0 14.08475796890931 12.927553537090049 2.2677656827602366 0 0 0
200 0 2 0 13.191795462890141 12.661757155247537 1.9778058651459842 0 0 0
201 0 2 0 14.132683151170506 13.928130999315048 2.2300614564485484 0 0 0
257 0 2 0 10.711714418689578 15.788118211207234 3.161374322694714 0 0 0
255 0 2 0 10.201871403810657 15.729737640404789 0.3819409823746034 0 0 0
286 0 1 0 12.197875786249348 15.97185336223441 0.20222060021402433 0 0 0
319 0 1 0 14.036914460098082 15.624923585988338 2.099097360040541 0 0 0
320 0 2 0 13.276763853539482 15.81422846830191 1.5376826320057941 0 0 0
855 0 2 0 15.08828114635291 12.429781178200317 0.9767143220285794 0 0 1
128 0 2 0 19.65180197151433 12.453457304909582 1.5204730600101395 -1 0 0
195 0 2 0 17.308605085570363 12.616538189182872 0.8979767229755465 0 0 0
193 0 1 0 17.90779277842246 12.80770285914312 1.604151923346203 0 0 0
194 0 2 0 17.702486729868163 13.680624228495875 1.9519623235376564 0 0 0
294 0 2 0 16.557909829214402 14.466215708311715 3.6943336847704584 0 0 0
292 0 1 0 17.323935336836065 14.820723146877809 3.2450989463015527 0 0 0
248 0 2 0 19.86640182435861 15.633065239350094 1.839940993766053 -1 0 0
293 0 2 0 17.23516678802254 15.77402959730744 3.3966506094682734 0 0 0
322 0 1 0 18.746117012766668 15.680810796527892 0.312812394506701 0 0 0
853 0 1 0 15.598422743465445 12.218447988696404 0.1447912069782147 0 0 1
218 0 2 0 1.854934094498988 16.176503160092935 1.0262423588014316 0 0 0
217 0 1 0 2.4026070964018253 16.54324096572482 0.26519378816082306 0 0 0
227 0 2 0 1.210544040644316 16.58065421587498 3.5219203867050473 0 0 0
235 0 1 0 0.5018719318812515 19.62344722462494 2.069630837627394 0 0 0
236 0 2 0 0.9544014209846738 18.98328492876042 2.6330583292944 0 0 0
237 0 2 0 1.005920157149078 19.5573237163973 1.2523711272939833 0 0 0
228 0 2 0 2.362285741520888 17.550909345523714 3.9635942901471157 0 0 0
226 0 1 0 1.4276200629507936 17.541774613385407 3.660345332569255 0 0 0
891 0 2 0 3.4786403866006865 19.51874298263941 0.6285107444127056 0 0 1
890 0 2 0 2.5909426131871283 18.353883966593024 0.15943664235798277 0 0 1
251 0 2 0 4.160950049748284 16.403875604086913 0.5680332593771681 0 0 0
233 0 2 0 4.333303007982888 16.57348491685017 2.9990612141414936 0 0 0
232 0 1 0 4.379538810020708 17.453112894512223 3.4318239989578796 0 0 0
234 0 2 0 4.255506924754326 18.110596323213947 2.7238375364575065 0 0 0
229 0 1 0 4.7686263629245085 19.52596476615303 1.664098703131503 0 0 0
889 0 1 0 2.596317750249336 19.31804546896157 0.23581413280746774 0 0 1
284 0 2 0 6.6577340108875775 16.21849927859089 1.7311447716830926 0 0 0
250 0 1 0 5.124042821235241 16.484296432308568 0.5133737130265565 0 0 0
231 0 2 0 5.763468827818687 19.445126340292084 1.637456823679648 0 0 0
271 0 1 0 7.542806226350087 19.698584134387104 2.0517914423312194 0 0 0
273 0 2 0 7.6129874133111475 19.258330740411417 2.96177882165164 0 0 0
263 0 2 0 7.837010776906603 17.081412952669012 3.2577709097820104 0 0 0
927 0 2 0 8.305021478879073 18.77095081626301 0.729720117761026 0 0 1
264 0 2 0 9.00291990467646 17.665377399806125 3.977340996042372 0 0 0
262 0 1 0 8.058307867034625 17.817013142087326 3.914661842589794 0 0 0
267 0 2 0 10.572916401736586 19.3471105756728 0.785050631034787 0 0 0
268 0 1 0 10.81268689123021 17.39823393214207 3.592354407396769 0 0 0
269 0 2 0 10.999285618396645 18.040139248697912 2.9053090094452783 0 0 0
265 0 1 0 11.277526993651005 19.644540598436265 1.3988089556737093 0 0 0
321 0 2 0 14.253881090270786 16.313713248307984 2.7073286154925915 0 0 0
307 0 1 0 14.245584204820117 19.65219781529843 1.9425148048650425 0 0 0
308 0 2 0 13.3801993761094 19.47107241503668 1.529568826557539 0 0 0
309 0 2 0 14.295012349771614 18.945915469633277 2.6142087748231075 0 0 0
298 0 1 0 14.632176249303564 17.715257159469232 3.7448379612155835 0 0 0
291 0 2 0 15.442248557686526 16.415943235235446 1.0483991876452214 0 0 0
963 0 2 0 15.312202796049947 19.464003860745933 0.6571997225232279 0 0 1
290 0 2 0 16.754292962551524 16.224340442610533 0.19714921144882605 0 0 0
301 0 1 0 17.74424529768166 19.169414225904497 1.7702360640152708 0 0 0
302 0 2 0 17.113791000145 19.10221712193529 1.035356909064142 0 0 0
303 0 2 0 18.615779672085203 19.170080995036002 1.3837147055981105 0 0 0
304 0 1 0 17.228242421645447 17.408782844709556 3.788035141290989 0 0 0
306 0 2 0 17.4399233467298 18.047565067635226 3.0786562160688993 0 0 0
300 0 2 0 15.512244468251826 17.486558373903826 4.086181768275646 0 0 0
289 0 1 0 15.895392115081153 16.64413339831244 0.22201484230440946 0 0 0
22 0 1 0 2.3944427143820133 0.896926983890953 5.023909976843803 0 0 0
23 0 2 0 2.4647798084668446 1.4611901588226248 5.804647548111068 0 0 0
325 0 1 0 2.7112501972281793 2.60740623547932 7.08441371862827 0 0 0
327 0 2 0 2.6614541481606127 3.5187852357501854 6.726067640658287 0 0 0
101 0 2 0 0.6354648390622755 0.7203484541339292 5.087543379244762 1 0 0
326 0 2 0 3.6919118486119946 2.439580444310816 7.254296559629921 0 0 0
24 0 2 0 2.4535309091105213 -0.014979343997446493 5.350505535297906 0 0 0
356 0 2 0 1.5992027767823482 2.172254180889916 8.250372698671564 0 0 0
46 0 1 0 8.152732160711418 3.876234866666352 4.282635775025391 0 0 0
358 0 1 0 5.256954349327461 1.893608957207829 7.109126257205364 0 0 0
28 0 1 0 6.114493198121648 0.33865281801151115 5.03275587651556 0 0 0
29 0 2 0 7.045775680727624 0.5096433002907854 4.9336775617250135 0 0 0
359 0 2 0 5.579192837694151 1.275312295778538 6.392306083660275 0 0 0
360 0 2 0 5.783934978583274 1.6303272800312878 7.847140893150713 0 0 0
8 0 2 0 5.839434007207305 3.43773744710202 6.391701540955071 0 0 0
58 0 1 0 8.73669119532407 0.4578097074264822 4.899194896081563 0 0 0
59 0 2 0 8.97270468408539 0.9607598056144706 5.68821267165555 0 0 0
361 0 1 0 9.221382785650352 2.0708672937890973 7.159612871662368 0 0 0
363 0 2 0 9.088290228341007 2.9632120589092064 6.916692338806961 0 0 0
392 0 2 0 7.941204500773117 1.5577191144757496 8.322448031556474 0 0 0
362 0 2 0 10.114402572292015 2.109010209581161 7.463842598098695 0 0 0
394 0 1 0 11.820887584036726 2.352690511122167 7.526556605005742 0 0 0
396 0 2 0 12.059276977089969 3.2120363464585155 7.0894332463203416 0 0 0
66 0 2 0 12.323000340012875 1.397457253372457 6.053587469541887 0 0 0
64 0 1 0 12.434229862395542 0.8250053346471433 5.264108953514518 0 0 0
65 0 2 0 13.400904541378257 0.827032289889333 5.058005866293781 0 0 0
96 0 2 0 16.062451311337966 1.036026903050307 4.769690464428926 0 0 0
94 0 1 0 15.208348975390914 1.2010145141330038 5.196578481400908 0 0 0
95 0 2 0 15.285913926339044 1.6621194125806344 5.997332742596507 0 0 0
397 0 1 0 15.971440621284266 2.934061747864456 7.366166969417538 0 0 0
100 0 1 0 19.65823291201267 0.5258753032008087 5.413855113497597 0 0 0
398 0 2 0 16.77422216789317 2.7073765455516274 7.820696528381183 0 0 0
430 0 1 0 18.641407764249323 2.363483712753143 7.465744135324205 0 0 0
431 0 2 0 18.886952571070402 1.5864642167058856 6.97878356434037 0 0 0
432 0 2 0 18.810923170173773 3.146247496065774 6.891424877979196 0 0 0
12 0 2 0 2.3133167123263814 4.312169572934703 4.375056722994656 0 0 0
11 0 2 0 0.7221664344850134 4.314910627798486 4.724047211984067 0 0 0
25 0 1 0 2.3414712217793032 5.336868678696234 6.777126935089268 0 0 0
26 0 2 0 2.3145779762139194 5.960218697556708 6.030037843336488 0 0 0
27 0 2 0 3.134886509533402 5.638280510531521 7.293061804779066 0 0 0
344 0 2 0 1.4118355512827028 5.9170478997413785 8.295828842590769 0 0 0
132 0 2 0 0.8963616886016432 7.279084594874911 4.728492540523226 0 0 0
130 0 1 0 1.8156759251377965 7.323849875496109 4.9519924770512285 0 0 0
47 0 2 0 9.103125375929084 4.007481729052303 4.40945936782918 0 0 0
9 0 2 0 5.349815315044548 4.23049181387915 5.156676322559838 0 0 0
7 0 1 0 5.842249841728453 4.321767146263919 5.9500053455744295 0 0 0
48 0 2 0 7.688140279233814 4.38917189378345 4.943080341757125 0 0 0
136 0 1 0 6.105373836654593 7.24378289463632 5.700419440721321 0 0 0
137 0 2 0 6.105344772244359 6.4759258706645335 6.280908258010692 0 0 0
138 0 2 0 7.015376774624526 7.312499712146338 5.408194761722833 0 0 0
61 0 1 0 9.000891853610506 4.8998677567290265 6.926233420459894 0 0 0
63 0 2 0 8.255614831556311 5.180283515301768 7.463206939497594 0 0 0
166 0 1 0 8.90937341195386 7.201395956274187 5.096957792746898 0 0 0
167 0 2 0 9.024648374363295 6.326593546048676 5.527985598651819 0 0 0
62 0 2 0 9.815447351645872 5.168414498318374 7.413350941349151 0 0 0
168 0 2 0 9.011094325896511 7.812659615200289 5.830885286775966 0 0 0
339 0 2 0 5.397994337728806 5.671673461269645 8.207178515704458 0 0 0
53 0 2 0 11.24070964485733 4.371520927772868 4.650277065588705 0 0 0
44 0 2 0 13.402969088552178 4.248459310162697 5.46262947973439 0 0 0
43 0 1 0 12.621157370687389 4.613050616108308 5.935656218702618 0 0 0
173 0 2 0 12.367745239430056 7.679093882378701 4.271928715140295 0 0 0
45 0 2 0 12.733034582238881 5.581305434127076 5.869304190536802 0 0 0
174 0 2 0 13.752216392774216 7.581642738940923 5.01152621119166 0 0 0
172 0 1 0 12.78904345712337 7.708666656916636 5.110216051073557 0 0 0
416 0 2 0 14.433033183696248 6.052915420062888 8.077720436973664 0 0 0
399 0 2 0 15.968036601569208 3.922328932787252 7.048725406204107 0 0 0
81 0 2 0 18.284131137546446 4.378083550938543 5.126081408178122 0 0 0
79 0 1 0 19.0261260547464 4.722124055378439 5.628217667423453 0 0 0
202 0 1 0 15.425546347501754 7.402745203016922 5.0200295190557975 0 0 0
99 0 2 0 15.873249192242085 6.129253484015302 6.212119972903479 0 0 0
97 0 1 0 15.862488519430304 5.543385920521275 6.9872425918280205 0 0 0
80 0 2 0 19.020779053541794 5.679584949175791 5.5979515863198985 0 0 0
98 0 2 0 16.552180744546362 5.790653067088599 7.629134530079367 0 0 0
208 0 1 0 19.10337545007495 7.329387489145159 5.35575108774622 0 0 0
209 0 2 0 18.466524887380707 7.6646244471854885 4.6790410436277785 0 0 0
210 0 2 0 18.92698494094079 7.8093262072124165 6.162182208209864 0 0 0
125 0 2 0 4.914935787523621 10.647178586374809 4.663152421418132 0 0 0
433 0 1 0 2.3339449455406784 9.160588893286517 7.0240801910631 0 0 0
435 0 2 0 2.1288690062397992 8.523551377248214 6.341031561156654 0 0 0
434 0 2 0 3.2875330425555958 9.106817251939502 7.211409300998656 0 0 0
466 0 1 0 4.989734414947317 8.972642296573973 7.397167116323028 0 0 0
135 0 2 0 2.560724169019134 11.013376745527477 6.390899466917488 0 0 0
133 0 1 0 2.743755356748564 11.964643192311899 6.5431144081853505 0 0 0
134 0 2 0 3.362703629682395 12.019041510595079 7.184459080619725 0 0 0
189 0 2 0 0.26133768720973594 10.78368282837322 4.929540592172809 1 0 0
468 0 2 0 5.370434837998818 8.518296000233683 6.640091193915 0 0 0
501 0 2 0 6.679947913067665 8.484194806246354 8.301468758415737 0 0 0
469 0 1 0 9.462163665393403 9.30019623128419 6.8770325741485605 0 0 0
500 0 2 0 8.161214200303787 8.79889965396969 8.026914179421013 0 0 0
467 0 2 0 5.272537076927417 9.864786307832869 7.154032946861823 0 0 0
115 0 1 0 5.835881657624157 11.339140183445053 5.914868767532584 0 0 0
116 0 2 0 6.637898826490818 11.217650256522312 5.382635371848834 0 0 0
470 0 2 0 9.35015728138955 10.263112142222226 6.5985505940482945 0 0 0
471 0 2 0 10.298633340402816 9.27610646467559 7.328376444815828 0 0 0
502 0 1 0 12.44762540302759 9.478929618307152 7.3560777204366365 0 0 0
503 0 2 0 12.673420781676096 8.937678632209371 6.542295737796997 0 0 0
152 0 2 0 11.667159605826555 11.327261545747882 4.9382693093434025 0 0 0
504 0 2 0 12.492976115282026 10.402759223868333 7.017793226604548 0 0 0
151 0 1 0 12.356813028781882 11.567191405367256 5.554708641990327 0 0 0
153 0 2 0 13.160636145616158 11.362489645724748 5.046261558005375 0 0 0
507 0 2 0 15.37847181564521 9.157021615287018 7.654190134452505 0 0 0
203 0 2 0 15.63295328539085 8.151003939131957 5.606372132208117 0 0 0
505 0 1 0 15.831970257999146 9.587930517678318 6.881507862847454 0 0 0
506 0 2 0 16.74516291091674 9.607036180899453 7.1514601658133925 0 0 0
538 0 1 0 18.62131378244488 9.229476731345343 7.148249114603353 0 0 0
539 0 2 0 18.9824030812076 9.218944734619848 8.049714140548375 0 0 0
540 0 2 0 19.048946821612965 10.00426060316182 6.709202060475661 0 0 0
207 0 2 0 15.498755776502913 11.469662219208931 6.991245193222886 0 0 0
187 0 1 0 19.38028375676045 11.05472712946078 5.2843943616076565 0 0 0
188 0 2 0 19.480359516184187 12.00526359438771 5.429379071131334 0 0 0
453 0 2 0 1.4630058129655523 12.523994922589447 7.690687452367163 0 0 0
238 0 1 0 2.0554641539820295 14.12783459974794 5.032802663334015 0 0 0
239 0 2 0 1.059537948560089 14.036322942108157 4.996717439330369 0 0 0
240 0 2 0 2.2478701641079804 13.31139603020379 5.473044874340282 0 0 0
542 0 2 0 2.489013200808542 15.301644777927137 6.2262288278609175 0 0 0
543 0 2 0 3.5822034713240676 15.82578610479392 7.174534246657045 0 0 0
541 0 1 0 2.65163070390909 15.955221016941563 6.95151806435875 0 0 0
573 0 2 0 1.5913705733496646 15.73072344426206 8.306912531004023 0 0 0
117 0 2 0 5.63396750432764 12.251283586497236 5.697226333466301 0 0 0
246 0 2 0 5.269834297068801 14.30402451695237 4.438012957004988 0 0 0
244 0 1 0 5.797940157191946 14.055790650334874 5.205193891382895 0 0 0
245 0 2 0 5.594052844041649 14.745662061948014 5.807740274248773 0 0 0
276 0 2 0 7.60919042014413 14.108508036074824 5.005346647723851 0 0 0
447 0 2 0 5.632316117841115 12.536621628452545 8.315304639122534 0 0 0
169 0 1 0 9.28679338691771 12.025547252772405 6.561198483388213 0 0 0
489 0 2 0 7.9207567993379335 12.234000665937575 8.041130835874037 0 0 0
274 0 1 0 8.548919462670918 14.183540482484718 4.973026115309588 0 0 0
170 0 2 0 9.233089608702691 12.747875721825729 5.906867938872196 0 0 0
575 0 2 0 5.965803820927949 15.778391430377388 7.888349673643415 0 0 0
574 0 1 0 5.358566104647717 15.863529681257694 7.120043985537508 0 0 0
275 0 2 0 8.797310956122013 14.74381865811131 5.719636115165899 0 0 0
578 0 2 0 8.364415745068115 15.686721668223568 7.942767723960278 0 0 0
577 0 1 0 9.106867954421672 15.957839711761169 7.368665712940051 0 0 0
171 0 2 0 10.06478037065 12.250045408845004 7.112638893141661 0 0 0
281 0 2 0 11.703629481653968 14.200617207515744 4.580152934216785 0 0 0
612 0 2 0 11.903285139336948 15.29061079998976 6.723868548081212 0 0 0
280 0 1 0 12.086331428929702 14.071456282872047 5.471440705343054 0 0 0
282 0 2 0 12.222074534822475 13.121459932760894 5.605551994104727 0 0 0
311 0 2 0 14.032473863819268 14.043214233434194 5.277081220810205 0 0 0
206 0 2 0 14.87667183029793 12.626154289001008 7.803055213945714 0 0 0
610 0 1 0 11.862066700755982 16.050042912246738 7.3429402310795595 0 0 0
645 0 2 0 14.767834714509513 15.989524363555502 8.019205380486717 0 0 0
644 0 2 0 13.278383991791616 15.914265566109856 8.340765193871817 0 0 0
310 0 1 0 15.046954827361866 14.11697435896506 5.074111032982394 0 0 0
312 0 2 0 15.323124204782284 13.418783277415319 5.7051746794301526 0 0 0
205 0 1 0 15.544734455404457 12.427544539158333 7.13552805689204 0 0 0
318 0 2 0 18.925888974682834 13.999124336782849 4.348172527114512 0 0 0
518 0 2 0 17.477374712846938 12.753410974941858 7.67655419260351 0 0 0
316 0 1 0 19.286909278428737 13.763776172433525 5.207638818151661 0 0 0
317 0 2 0 19.063061955898483 14.492029925039514 5.828238236560478 0 0 0
614 0 2 0 15.679532285342916 15.722327336697989 6.191821171117398 0 0 0
647 0 2 0 17.86046014802286 16.062236272441645 7.20146552389898 0 0 0
646 0 1 0 18.75757167703548 15.8167700495615 6.965741470658259 0 0 0
648 0 2 0 19.379195443531977 15.870412564156334 7.716870639315778 0 0 0
519 0 2 0 18.977813532002465 12.723243413128218 8.183254986914912 0 0 0
241 0 1 0 2.280796541098407 18.598046569940543 6.212449574532615 0 0 0
242 0 2 0 2.0968501124921235 17.64448317555314 6.240654955908476 0 0 0
243 0 2 0 2.9851335684353035 18.67098823643208 6.899967821750924 0 0 0
560 0 2 0 1.2490923240577734 19.119253030225316 7.57311949153079 0 0 0
297 0 2 0 0.09658074633740067 17.848562769139683 4.979321781295382 1 0 0
553 0 1 0 4.288940594448195 18.9470166349899 8.027966412046204 0 0 0
559 0 1 0 0.6674907143150491 19.327559071265625 8.318916139500669 0 0 0
60 0 2 0 8.98664316816067 19.8511213948252 5.06097915604221 0 -1 0
30 0 2 0 6.055442153120911 19.725243912711242 5.176983539678822 0 -1 0
224 0 2 0 5.342879169190751 17.67879682962179 4.804817337474421 0 0 0
223 0 1 0 5.9298623587470916 17.932672476716817 5.522624493660013 0 0 0
225 0 2 0 6.848260392224952 17.84080126452851 5.119331744618898 0 0 0
576 0 2 0 5.5017416594262425 16.801853070746418 6.7523102055732 0 0 0
579 0 2 0 9.001577295501715 16.837879779944345 6.971749750050683 0 0 0
278 0 2 0 8.495131632972688 19.024220861019458 7.2062996531546615 0 0 0
277 0 1 0 9.297945916562517 18.636961915323205 6.775535731539227 0 0 0
279 0 2 0 9.977253378447232 18.74329606709979 7.532133422580574 0 0 0
597 0 2 0 6.2273926678596325 18.727370137115017 8.106226391816595 0 0 0
270 0 2 0 11.412157649703659 17.645258883337092 4.355180320147699 0 0 0
611 0 2 0 10.922989637924937 16.12280655560503 7.485463574165991 0 0 0
261 0 2 0 12.289890573043579 17.74970079207079 6.439416894558323 0 0 0
260 0 2 0 12.346234118142261 19.137242523213033 5.639005467281431 0 0 0
259 0 1 0 12.45704652744738 18.183501788951446 5.56371172753859 0 0 0
299 0 2 0 13.966016144644106 17.685331793371674 4.430633672618417 0 0 0
315 0 2 0 15.050582535747727 19.288894384216235 7.445496127618279 0 0 0
313 0 1 0 15.639614032303644 19.01842777214234 6.728126833044141 0 0 0
314 0 2 0 15.274418469975789 19.49710622098747 6.017309010148179 0 0 0
615 0 2 0 15.848192035004603 17.262283673952616 6.65350068487395 0 0 0
613 0 1 0 16.092540747189922 16.3061179707514 6.80944658153811 0 0 0
305 0 2 0 17.876878962102936 17.634770770663444 4.462466772354826 0 0 0
102 0 2 0 19.645209270884386 19.907581372211105 5.732307892143825 0 -1 0
295 0 1 0 19.278698961588667 18.100244148793976 5.524698838819028 0 0 0
296 0 2 0 19.1978944691038 17.402189711334415 6.196889601297822 0 0 0
627 0 2 0 17.33831933055874 19.326389928313013 7.364919875173487 0 0 0
626 0 2 0 18.89534521450507 19.18175664512846 7.975749944433008 0 0 0
625 0 1 0 17.894314603782952 19.265641071777488 8.174374146573967 0 0 0
335 0 2 0 1.2542285385990513 2.960154362369468 10.275584966689777 0 0 0
347 0 2 0 2.7789099874637273 0.36700099093198657 11.187716872610432 0 0 0
348 0 2 0 1.299110137671049 0.18315096114270119 11.459428576661209 0 0 0
355 0 1 0 1.1090346684037553 1.7350293499514227 8.968249389610031 0 0 0
346 0 1 0 2.1652638043621906 0.15963328990863163 11.88860572833904 0 0 0
334 0 1 0 1.4533016026033854 3.6732966850713904 10.914878645955083 0 0 0
340 0 1 0 4.20886538374953 3.8737560101751534 10.460116999620618 0 0 0
336 0 2 0 2.374711852930695 3.5981429293029445 11.137587219370346 0 0 0
328 0 1 0 4.258748971348634 0.8595013162006571 9.932958596881093 0 0 0
329 0 2 0 4.463779057985194 1.8051445843186587 9.888435865576218 0 0 0
330 0 2 0 4.840897636740433 0.4970497022026057 10.619782484377055 0 0 0
357 0 2 0 0.1938942352237391 1.9164887963464858 8.693810311453943 0 0 0
561 0 2 0 0.9813194588948149 -0.07413564894344472 8.544268870849386 0 1 0
391 0 1 0 7.200023001836924 1.3540436058839285 8.879709726044092 0 0 0
393 0 2 0 7.3136859046895815 0.39901853183570524 8.986215735455602 0 0 0
353 0 2 0 6.804290437809576 0.5734930449141088 12.1230386858034 0 0 0
372 0 2 0 7.911637997954145 3.0113989811947155 10.197348097301477 0 0 0
352 0 1 0 5.827444906422593 0.44211759252883565 12.148855362289487 0 0 0
382 0 1 0 8.504381685719748 0.6954161739696822 12.031774710901312 0 0 0
366 0 2 0 9.868086300677694 0.9239927854079955 10.78602806866346 0 0 0
371 0 2 0 8.993346449348165 3.9015855734796325 10.741497306460525 0 0 0
395 0 2 0 12.376710927736148 2.3724577961819446 8.359674763232391 0 0 0
429 0 2 0 14.652806422198227 2.479330580695887 8.472245362061322 0 0 0