LAMMPS (29 Sep 2021 - Update 2)
  using 1 OpenMP thread(s) per MPI task
echo both

include		in.partitions
variable        pid world 0
include		in.temp
variable        temperature equal 235
variable	tempDamp equal 0.1
include		in.pressure
variable        pressure equal 3039.75
variable        pressureDamp equal 1.0 # This is 1 ps
include		in.seed
variable        seed world 745823

units           metal
atom_style	full
include		in.box
read_data       iceIII.data
Reading data file ...
  orthogonal box = (0.0000000 0.0000000 0.0000000) to (19.991053 19.991053 20.800772)
  1 by 1 by 1 MPI processor grid
  reading atoms ...
  972 atoms
Finding 1-2 1-3 1-4 neighbors ...
  special bond factors lj:    0        0        0       
  special bond factors coul:  0        0        0       
     0 = max # of 1-2 neighbors
     0 = max # of 1-3 neighbors
     0 = max # of 1-4 neighbors
     1 = max # of special neighbors
  special bonds CPU = 0.000 seconds
  read_data CPU = 0.017 seconds
include 	in.setup
variable	out_freq equal 500
variable	out_freq2 equal 500

timestep        0.0005

neigh_modify    delay 7 every 1

include         in.deepmd
# This is deepMD model

# create groups ###
#group ox type 2
#group hy type 1

mass 2 15.999
mass 1 1.008

pair_style      deepmd ../graph.pb
pair_coeff      * *

bond_style      none
angle_style     none
dihedral_style  none
improper_style  none
neigh_modify exclude none


neighbor        2.0 bin
neigh_modify    every 10 delay 0 check no

thermo          ${out_freq}
thermo          500
thermo_style 	custom step temp pe etotal epair emol press lx ly lz xy xz yz vol pxx pyy pzz pxy pxz pyz cella cellb cellc cellalpha cellbeta cellgamma

restart 	${out_freq} restart.lmp.${pid} restart2.lmp.${pid}
restart 	500 restart.lmp.${pid} restart2.lmp.${pid}
restart 	500 restart.lmp.0 restart2.lmp.${pid}
restart 	500 restart.lmp.0 restart2.lmp.0


include         in.dump
dump            myDump all atom ${out_freq2} dump.water.${pid}
dump            myDump all atom 500 dump.water.${pid}
dump            myDump all atom 500 dump.water.0
dump            myDump2 all dcd ${out_freq2} dump.dcd
dump            myDump2 all dcd 500 dump.dcd
dump_modify     myDump append yes
dump_modify     myDump2 append yes


timer           timeout 04:55:00 every 1000
New timer settings: style=normal  mode=nosync  timeout=04:55:00

fix             2 all nph aniso ${pressure} ${pressure} ${pressureDamp}
fix             2 all nph aniso 3039.75 ${pressure} ${pressureDamp}
fix             2 all nph aniso 3039.75 3039.75 ${pressureDamp}
fix             2 all nph aniso 3039.75 3039.75 1
fix             3 all temp/csvr ${temperature} ${temperature} ${tempDamp} ${seed}
fix             3 all temp/csvr 235 ${temperature} ${tempDamp} ${seed}
fix             3 all temp/csvr 235 235 ${tempDamp} ${seed}
fix             3 all temp/csvr 235 235 0.1 ${seed}
fix             3 all temp/csvr 235 235 0.1 745823
velocity 	all create ${temperature} ${seed} dist gaussian
velocity 	all create 235 ${seed} dist gaussian
velocity 	all create 235 745823 dist gaussian

run             400000

CITE-CITE-CITE-CITE-CITE-CITE-CITE-CITE-CITE-CITE-CITE-CITE-CITE

Your simulation uses code contributions which should be cited:

- USER-DEEPMD package:

@article{Wang_ComputPhysCommun_2018_v228_p178,
  author = {Wang, Han and Zhang, Linfeng and Han, Jiequn and E, Weinan},
  doi = {10.1016/j.cpc.2018.03.016},
  url = {https://doi.org/10.1016/j.cpc.2018.03.016},
  year = 2018,
  month = {jul},
  publisher = {Elsevier {BV}},
  volume = 228,
  journal = {Comput. Phys. Commun.},
  title = {{DeePMD-kit: A deep learning package for many-body potential energy representation and molecular dynamics}},
  pages = {178--184}
}

CITE-CITE-CITE-CITE-CITE-CITE-CITE-CITE-CITE-CITE-CITE-CITE-CITE

Neighbor list info ...
  update every 10 steps, delay 0 steps, check no
  max neighbors/atom: 2000, page size: 100000
  master list distance cutoff = 8
  ghost atom cutoff = 8
  binsize = 4, bins = 5 5 6
  1 neighbor lists, perpetual/occasional/extra = 1 0 0
  (1) pair deepmd, perpetual
      attributes: full, newton on
      pair build: full/bin
      stencil: full/bin/3d
      bin: standard
Per MPI rank memory allocation (min/avg/max) = 7.648 | 7.648 | 7.648 Mbytes
Step Temp PotEng TotEng E_pair E_mol Press Lx Ly Lz Xy Xz Yz Volume Pxx Pyy Pzz Pxy Pxz Pyz Cella Cellb Cellc CellAlpha CellBeta CellGamma 
       0          235   -175.65013   -146.15491   -175.65013            0    37308.316    19.991053    19.991053    20.800772            0            0            0    8312.8663    41099.163    41514.321    29311.463   -62.602311   -1048.5914   -440.72363    19.991053    19.991053    20.800772           90           90           90 
     500    234.13545    -165.1655   -135.77878    -165.1655            0   -372.81685    20.061657    19.969087    20.509615            0            0            0    8216.4177   -223.85028    487.73722   -1382.3375   -357.59183   -768.04209   -1010.8065    20.061657    19.969087    20.509615           90           90           90 
    1000    245.69116     -164.679   -133.84191     -164.679            0   -265.85099     20.18617    20.080747    20.266518            0            0            0    8215.1018    7.7563856    60.870143   -866.17949   -1056.1865   -581.26026   -1090.0938     20.18617    20.080747    20.266518           90           90           90 
    1500    234.95578   -164.89032   -135.40065   -164.89032            0    8328.6336    20.220919    20.136548    20.254883            0            0            0    8247.3731    5041.5313     10556.17    9388.1992    1903.2953    -2574.912    1388.4182    20.220919    20.136548    20.254883           90           90           90 
    2000    228.42834   -162.15281   -133.48241   -162.15281            0   -4797.5722    20.169511    20.105773    20.363337            0            0            0    8257.8142   -6380.6591   -2247.4091   -5764.6485    650.10435   -559.37165    1263.5532    20.169511    20.105773    20.363337           90           90           90 
    2500    235.37273   -161.92958   -132.38757   -161.92958            0    4564.5922    19.972846    20.138931    20.493531            0            0            0    8243.1495    5093.6751    3526.6663    5073.4352    2549.8616    2386.8422    1488.9174    19.972846    20.138931    20.493531           90           90           90 
    3000    232.49167   -161.75006   -132.56966   -161.75006            0    3971.4189    19.994921    20.134145    20.644208            0            0            0    8310.9584    4688.4531    1852.6908    5373.1128    479.14773   -2093.4814    973.45051    19.994921    20.134145    20.644208           90           90           90 
    3500     230.4173   -162.40172   -133.48167   -162.40172            0    1390.0276    20.174497    19.976591    20.438746            0            0            0    8237.1759   -1712.0723    4741.0643    1141.0908     77.13855    192.60435    124.42503    20.174497    19.976591    20.438746           90           90           90 
    4000    236.41697   -163.70305   -134.02998   -163.70305            0     4395.781    20.323415    19.999297    20.320714            0            0            0     8259.436    1181.4377    7429.6832     4576.222    1000.3273    154.67273    -1235.302    20.323415    19.999297    20.320714           90           90           90 
    4500    234.28326   -163.29421   -133.88894   -163.29421            0    5834.7864    20.166215    20.084053    20.310877            0            0            0    8226.2975    9341.2569    4614.2688    3548.8333    164.16609     -1831.06    4111.8999    20.166215    20.084053    20.310877           90           90           90 
    5000    227.99798   -162.41242   -133.79603   -162.41242            0    2561.0515    20.101744    20.130382    20.516229            0            0            0    8302.0107   -198.06934    5795.6025    2085.6213   -609.68173    128.74588    1263.1692    20.101744    20.130382    20.516229           90           90           90 
    5500    227.70285   -163.54226   -134.96292   -163.54226            0    4772.9166    19.984621    20.072334    20.654392            0            0            0    8285.2616    6013.2924    3731.3982    4574.0593   -92.634774   -292.36837   -1094.2173    19.984621    20.072334    20.654392           90           90           90 
    6000    239.67177   -163.51616   -133.43458   -163.51616            0    1507.0282    19.932188    20.110734    20.594852            0            0            0    8255.4656    1967.3147    1804.1939    749.57596   -1307.9549    316.63298   -485.52545    19.932188    20.110734    20.594852           90           90           90 
    6500    232.76215   -163.93916   -134.72481   -163.93916            0    2766.4874    20.026598    20.184276    20.261367            0            0            0    8190.0979    3430.1955    2910.5978    1958.6689    1141.0023    1319.1479    945.80561    20.026598    20.184276    20.261367           90           90           90 
    7000    236.06107   -161.83239   -132.20399   -161.83239            0    617.74341    20.323717    20.238736    20.189269            0            0            0     8304.378    2769.7147   -2374.3593    1457.8748   -275.02859   -945.54133   -1957.3008    20.323717    20.238736    20.189269           90           90           90 
    7500    234.93077   -161.88397   -132.39744   -161.88397            0    2229.2439    20.266117    20.025395    20.321649            0            0            0     8247.277    737.25607    3591.6148    2358.8609    2834.0419    1882.9275    303.92119    20.266117    20.025395    20.321649           90           90           90 
    8000    232.43203   -162.94699   -133.77408   -162.94699            0    1143.7356    20.080615    19.903066    20.677396            0            0            0    8264.0481    2010.7873   -1674.3071    3094.7266   -852.19242   -623.36042   -1961.3661    20.080615    19.903066    20.677396           90           90           90 
    8500    231.12741    -163.7528   -134.74363    -163.7528            0    4848.9663    19.979308    20.014294    20.675216            0            0            0    8267.4351     4165.948    6974.5936    3406.3572    1591.6904   -633.97655    -16.25521    19.979308    20.014294    20.675216           90           90           90 
    9000    241.59119   -162.32279   -132.00029   -162.32279            0    3129.5901    20.077669    20.122701    20.401282            0            0            0    8242.4635    1905.3384   -611.03699     8094.469   -265.75484    1061.3172   -130.16904    20.077669    20.122701    20.401282           90           90           90 
    9500    237.83823    -162.6224   -132.77095    -162.6224            0    3184.6948    20.213596    20.162781    20.284897            0            0            0    8267.3595    4025.4701    1900.3544    3628.2599   -745.43158   -1168.5053   -1951.6082    20.213596    20.162781    20.284897           90           90           90 
   10000    233.92334   -161.07367   -131.71358   -161.07367            0    2231.9652    20.211304    20.119695    20.310455            0            0            0    8259.1503    970.91661    2822.3495    2902.6294    225.72714    142.29219    2447.0995    20.211304    20.119695    20.310455           90           90           90 
   10500     252.0667    -162.4882   -130.85091    -162.4882            0    3867.6986    20.115767    20.058165    20.419923            0            0            0    8239.1406    1416.9259     6240.532    3945.6377   -1179.4014   -2038.9782    636.13625    20.115767    20.058165    20.419923           90           90           90 
   11000    235.96078   -162.00404   -132.38822   -162.00404            0    3455.4588    20.120917     20.12286    20.611854            0            0            0    8345.5417    3448.7333    2814.4908    4103.1521   -627.96064    194.01711   -2002.4062    20.120917     20.12286    20.611854           90           90           90 
   11500    228.84741   -162.53305   -133.81005   -162.53305            0    781.19435    20.035982    19.961655    20.476307            0            0            0    8189.5267   -664.65112    3893.5921   -885.35796   -1231.6966    68.851822    1165.5562    20.035982    19.961655    20.476307           90           90           90 
   12000    232.69228   -161.88071   -132.67513   -161.88071            0    2530.7829    20.220577    20.025574    20.431563            0            0            0    8273.3253    555.42397    3370.9406    3665.9842    2522.9581    401.71691    413.90452    20.220577    20.025574    20.431563           90           90           90 
   12500    236.88186   -162.04409   -132.31267   -162.04409            0    3769.5051    20.213849    20.213206    20.390008            0            0            0    8331.0857     6769.919    1865.2064    2673.3901     18.76996   -1422.7342    1514.8161    20.213849    20.213206    20.390008           90           90           90 
   13000    241.18226   -161.93079   -131.65962   -161.93079            0     4841.111     19.97424    20.183862    20.282367            0            0            0    8176.9845    5145.4315    4765.3013    4612.6001    716.90016   -2395.0254    839.53703     19.97424    20.183862    20.282367           90           90           90 
   13500    237.38886   -163.62431   -133.82925   -163.62431            0    3200.3769    20.063623    20.153416    20.403721            0            0            0    8250.2555    4158.8349    3135.1216    2307.1744   -202.02416   -1278.3595      562.141    20.063623    20.153416    20.403721           90           90           90 
   14000    226.78139   -163.13446   -134.67077   -163.13446            0    2389.6922    20.224783    20.032571    20.508562            0            0            0    8309.1341   -847.71324    5642.9432    2373.8467   -707.26192    27.497729   -1368.9925    20.224783    20.032571    20.508562           90           90           90 
   14500     218.1066   -162.87044   -135.49553   -162.87044            0    3041.0382    20.189324    19.985102    20.477507            0            0            0    8262.3814    2770.3576    4422.9178    1929.8392    1414.7234   -1420.3635    813.63649    20.189324    19.985102    20.477507           90           90           90 
   15000    231.82424   -161.99296   -132.89633   -161.99296            0    2664.4567    20.040719    20.236755    20.422705            0            0            0    8282.6141    2335.5677    4190.1292    1467.6733    740.72277      593.274   -898.52243    20.040719    20.236755    20.422705           90           90           90 
   15500    232.86674   -162.03547   -132.80799   -162.03547            0    3699.9001    20.059284    20.298385      20.3264            0            0            0    8276.3219    6563.3747   -449.48899    4985.8145    197.25758   -789.29042   -679.11973    20.059284    20.298385      20.3264           90           90           90 
   16000     237.9755   -162.71047   -132.84178   -162.71047            0    2915.1019    20.230234    20.035979     20.31113            0            0            0    8232.7622    2501.2292     3189.535    3054.5414   -2495.6726    -294.1688   -524.99437    20.230234    20.035979     20.31113           90           90           90 
   16500    237.99084   -162.68611    -132.8155   -162.68611            0    3290.2765    20.301423    19.870596    20.469884            0            0            0    8257.5793    2381.0571    4071.3005    3418.4718   -14.153885   -1072.6848    1695.8836    20.301423    19.870596    20.469884           90           90           90 
   17000    239.29506   -162.96157   -132.92727   -162.96157            0    1489.8144    20.166345    20.133352    20.659886            0            0            0     8388.247    1780.3041    2219.0833    470.05572    1022.3334   -1629.4984    53.662662    20.166345    20.133352    20.659886           90           90           90 
   17500    231.29857    -162.2327   -133.20205    -162.2327            0    2411.5814    19.939239     20.17944    20.555738            0            0            0    8270.8616    30.147433    6219.3952    985.20164   -300.99913   -235.66534    1714.7974    19.939239     20.17944    20.555738           90           90           90 
   18000    227.08583    -163.3154   -134.81349    -163.3154            0    568.80983    20.075345    20.162395    20.473103            0            0            0    8286.8373   -217.70404    1681.1046    243.02888   -470.93583   -63.401475    242.74835    20.075345    20.162395    20.473103           90           90           90 
   18500    222.38692   -162.21628   -134.30414   -162.21628            0    1574.2082    20.221047    20.059392    20.312152            0            0            0    8239.0536   -166.72577    2507.4606    2381.8897    1275.6442   -469.35011    1887.1393    20.221047    20.059392    20.312152           90           90           90 
   19000    242.06288    -164.3275    -133.9458    -164.3275            0    1544.1756    20.261312    20.110343    20.335751            0            0            0    8286.0446    1748.2984    168.09867    2716.1298   -1137.6085   -695.07854    -56.05341    20.261312    20.110343    20.335751           90           90           90 
   19500    232.13718   -162.59886   -133.46295   -162.59886            0     4634.609    20.144128    20.072731    20.440277            0            0            0    8264.9784    4291.2908    2350.4397    7262.0964   -1075.7728    1554.2857      433.361    20.144128    20.072731    20.440277           90           90           90 
   20000    237.49941   -164.93917   -135.13024   -164.93917            0    2561.2868    20.063384    20.042462    20.527514            0            0            0    8254.5159    2282.5211    1570.5677    3830.7716   -124.76813    1530.5825    3081.8151    20.063384    20.042462    20.527514           90           90           90 
   20500    234.61697   -163.84753   -134.40038   -163.84753            0    2475.8184    20.073722    20.061845    20.450155            0            0            0    8235.6027    3182.8809      5634.34   -1389.7657    513.86118   -1745.2448   -17.694876    20.073722    20.061845    20.450155           90           90           90 
   21000    235.70308   -163.81878   -134.23531   -163.81878            0    2497.7378     20.19254    20.228928    20.249728            0            0            0    8271.4759    2752.4956    1484.5521    3256.1655   -240.72393   -2857.4352    2277.9403     20.19254    20.228928    20.249728           90           90           90 
   21500    224.46536   -163.85494   -135.68193   -163.85494            0    6131.1972    20.225016    20.253078    20.121332            0            0            0    8242.0766    6439.7382    5075.9853    6877.8682   -520.50469   -2278.3622   -479.41333    20.225016    20.253078    20.121332           90           90           90 
   22000    241.09162   -163.80038   -133.54059   -163.80038            0    2249.2695    20.078808    20.065788    20.353132            0            0            0     8200.218    4146.9394    1786.4953    814.37363    1098.0081   -889.35999   -105.73584    20.078808    20.065788    20.353132           90           90           90 
   22500    237.85892   -163.55333   -133.69927   -163.55333            0    3103.3849    20.054854    20.058446    20.769327            0            0            0    8354.8608    2015.5781     5244.524    2050.0525   -811.52359   -4202.5801    991.16242    20.054854    20.058446    20.769327           90           90           90 
   23000     235.8917   -164.55469   -134.94754   -164.55469            0    1147.3419    20.060439    20.131279    20.889329            0            0            0    8435.9944    2486.1051    2030.4211   -1074.5004    863.87597    477.45123   -215.76682    20.060439    20.131279    20.889329           90           90           90 
   23500    233.69242    -162.2715   -132.94039    -162.2715            0    3062.3375     19.99956    19.981709     20.43668            0            0            0    8167.0163    4698.4126   -19.870941    4508.4709    -1866.172    287.76839   -1071.8143     19.99956    19.981709     20.43668           90           90           90 
   24000    241.27459   -162.28037   -131.99761   -162.28037            0       3267.2    20.240176    20.154388    20.276549            0            0            0    8271.3793   -2487.5894    6975.8373    5313.3521    1743.3856   -538.91795   -1067.8365    20.240176    20.154388    20.276549           90           90           90 
   24500    234.33737   -161.99406   -132.58201   -161.99406            0    4408.4342    20.237564    20.222259    20.356588            0            0            0    8330.9185     7102.116    2393.6188    3729.5677      863.495   -1304.1206    4425.8757    20.237564    20.222259    20.356588           90           90           90 
   25000     237.6417   -162.27671   -132.44992   -162.27671            0    1997.5741    20.025454     20.07941    20.486749            0            0            0    8237.7077    1374.6046    2051.4741    2566.6435    466.49091    554.14392   -836.93267    20.025454     20.07941    20.486749           90           90           90 
   25500    228.47874   -161.06353   -132.38679   -161.06353            0    236.52042    20.051542    20.121709    20.680426            0            0            0    8343.9583    2000.7438   -1107.7189   -183.46363    1462.7564    3833.7921    355.18779    20.051542    20.121709    20.680426           90           90           90 
   26000    239.83158   -161.70814   -131.60649   -161.70814            0    2492.7121     20.15314    20.053081    20.555041            0            0            0     8306.961    2035.7026    3437.2415    2005.1923   -399.66219    -747.5081   -1392.9184     20.15314    20.053081    20.555041           90           90           90 
   26500      221.876    -161.9152   -134.06718    -161.9152            0    2253.4891    20.261735    20.064157    20.329387            0            0            0    8264.5999    1908.1732    2781.9289    2070.3653    1378.9299    127.54137   -2103.7527    20.261735    20.064157    20.329387           90           90           90 
   27000    245.32437   -162.21297   -131.42191   -162.21297            0    2558.0592    20.184805    20.157867    20.191218            0            0            0    8215.4553    605.45911    2722.0572    4346.6613    1509.6072   -909.65328    159.96185    20.184805    20.157867    20.191218           90           90           90 
   27500    232.14721   -162.37653   -133.23937   -162.37653            0    3507.0748    20.086454    20.274262    20.385802            0            0            0    8301.8738    4607.8245    1053.9803    4859.4195    44.330151    1884.4173   -1203.3136    20.086454    20.274262    20.385802           90           90           90 
   28000    230.38986   -162.84639   -133.92979   -162.84639            0    2031.1626    20.043488     20.09979    20.676239            0            0            0    8329.8345    2518.0728    1117.6866    2457.7283   -716.97968    1151.1922   -275.23029    20.043488     20.09979    20.676239           90           90           90 
   28500    231.04184   -161.12101   -132.12258   -161.12101            0    6389.4745    20.044611    19.834288    20.663955            0            0            0    8215.3811    5699.9843    9365.1718    4103.2676    211.39009   -1632.2065    -1163.312    20.044611    19.834288    20.663955           90           90           90 
   29000    232.47755   -162.10273    -132.9241   -162.10273            0    2575.3297    20.215252    20.051161    20.538691            0            0            0     8325.138    3803.1045   -1234.8464    5157.7311     399.2988   -2500.9521   -387.36271    20.215252    20.051161    20.538691           90           90           90 
   29500    237.36039   -161.41131   -131.61983   -161.41131            0    2547.6229    20.156228    20.210344    20.354916            0            0            0    8291.8664    6143.9186   -1874.2556    3373.2058   -1443.4522    939.28035   -310.05654    20.156228    20.210344    20.354916           90           90           90 
   30000    243.60857   -161.05262   -130.47691   -161.05262            0    2720.2279    20.127961    20.157254    20.366458            0            0            0    8263.1698    4854.8058   -1042.6117    4348.4895    1205.2338   -1056.1283    621.87736    20.127961    20.157254    20.366458           90           90           90 
   30500    233.60603   -161.16919   -131.84892   -161.16919            0    1059.5798    20.211861    20.137658    20.540342            0            0            0    8360.3206   -777.91496    1796.1533     2160.501   -95.508702   -2200.3776   -830.90708    20.211861    20.137658    20.540342           90           90           90 
   31000    244.29232   -161.99286   -131.33134   -161.99286            0    5474.0204    19.997613    20.065944    20.581881            0            0            0    8258.9116    1769.9506    9448.9246     5203.186    118.31835    585.48221   -887.54412    19.997613    20.065944    20.581881           90           90           90 
   31500    232.88478   -161.68705    -132.4573   -161.68705            0    5000.5343    19.972356    20.196574    20.588911            0            0            0    8305.0142    5753.5618    6126.5778    3121.4634    -907.4762    626.64101    936.66891    19.972356    20.196574    20.588911           90           90           90 
   32000    235.67635   -163.28334   -133.70322   -163.28334            0     4696.712    20.136078    20.149832    20.427043            0            0            0    8288.0396    6145.3667    2992.0098    4952.7593    162.93918    1489.1027    1928.0202    20.136078    20.149832    20.427043           90           90           90 
   32500    241.65769   -162.83873   -132.50788   -162.83873            0    3089.1759    20.341787    19.986311    20.375415            0            0            0    8283.7736   -987.17191     7509.926    2744.7736   -179.53621   -38.105372    1748.9748    20.341787    19.986311    20.375415           90           90           90 
   33000    247.95074   -163.35513   -132.23444   -163.35513            0    5830.5696     20.20759    19.927478    20.474262            0            0            0    8244.7049     5170.318     5474.457     6846.934    681.27303    823.94177    1460.8668     20.20759    19.927478    20.474262           90           90           90 
   33500    231.21637   -162.55576   -133.53542   -162.55576            0    3870.4911    19.995584    20.102882    20.568201            0            0            0    8267.7766    3988.1971    3065.9524    4557.3238    765.25028     794.4369    1000.1354    19.995584    20.102882    20.568201           90           90           90 
   34000    230.27244   -164.06234   -135.16048   -164.06234            0    286.74361    20.016998    20.207707     20.52708            0            0            0     8303.155    994.51976   -1458.5788    1324.2899    545.15513    4335.3594   -1577.1795    20.016998    20.207707     20.52708           90           90           90 
   34500    219.80221   -163.16432    -135.5766   -163.16432            0    1116.7543    20.097502    20.099559    20.357567            0            0            0    8223.4581    3111.2037    673.15606   -434.09694    486.98178    884.78048   -386.33268    20.097502    20.099559    20.357567           90           90           90 
   35000    219.21833   -163.86182   -136.34737   -163.86182            0   -341.67272    20.247725    20.036082     20.32613            0            0            0    8246.0077    5054.3295   -5746.8184   -332.52926   -228.70601     1643.683   -1495.9321    20.247725    20.036082     20.32613           90           90           90 
   35500    225.99645   -163.30019   -134.93502   -163.30019            0      3379.79    20.164703    20.137267     20.37797            0            0            0    8274.7193    4146.1017    3719.9884    2273.2798   -584.41318    -2057.562   -876.72074    20.164703    20.137267     20.37797           90           90           90 
   36000    228.92006   -162.65098   -133.91886   -162.65098            0    3956.1588    20.097716     20.14851    20.488264            0            0            0    8296.4975    6913.6827   -316.63318    5271.4269    1336.7769       131.52   -3.4802602    20.097716     20.14851    20.488264           90           90           90 
   36500    233.47278   -162.59171   -133.28816   -162.59171            0    3095.8577    20.077933    19.925215    20.526792            0            0            0    8211.8895    2804.8445    5708.5654    774.16319    411.18821   -1097.9227   -1277.0566    20.077933    19.925215    20.526792           90           90           90 
   37000    240.84633   -163.77082   -133.54181   -163.77082            0     3831.503    20.229513    20.001214    20.491241            0            0            0    8291.0593    6959.0227   -2081.4387     6616.925    -867.8448   -412.14483    693.93856    20.229513    20.001214    20.491241           90           90           90 
   37500    230.89066   -162.67285   -133.69339   -162.67285            0    3431.8726    20.210432     20.28798    20.252181            0            0            0    8303.9785    2158.0182    5126.1457    3011.4538    537.11205   -1558.3011   -1386.8174    20.210432     20.28798    20.252181           90           90           90 
   38000    241.68545   -162.22187   -131.88754   -162.22187            0    2173.9326    20.002428    20.377316    20.139747            0            0            0    8208.8761     1148.684      2280.78    3092.3337    -1340.841    673.28226   -820.89556    20.002428    20.377316    20.139747           90           90           90 
   38500    236.18578   -162.53752   -132.89346   -162.53752            0    4620.4779    20.123085    20.209718     20.47961            0            0            0    8328.6863    4932.0085    4886.1018    4043.3235    -326.6761   -2358.4194   -659.33967    20.123085    20.209718     20.47961           90           90           90 
   39000    230.46044   -162.79888   -133.87342   -162.79888            0    1705.4081    20.227952    19.867306    20.669559            0            0            0    8306.5774    2547.4968    4804.4369   -2235.7093    776.43804   -593.93438    2176.5943    20.227952    19.867306    20.669559           90           90           90 
   39500    234.71983   -162.54742   -133.08736   -162.54742            0    4321.7146    20.192833    19.831779     20.56214            0            0            0    8234.3106    3376.3116    5228.8956    4359.9365   -2649.9869   -2452.5154   -2091.4575    20.192833    19.831779     20.56214           90           90           90 
   40000    236.95158   -163.46395   -133.72378   -163.46395            0    2906.2061     20.12322    20.111842    20.416188            0            0            0    8262.7379   -114.63425    4124.2874    4708.9652    1441.8111    595.21405    1045.3017     20.12322    20.111842    20.416188           90           90           90 
   40500    235.40932   -163.88645   -134.33985   -163.88645            0    553.43828    20.143643    20.260075    20.397451            0            0            0    8324.4393   -617.47636    -813.8964    3091.6876    549.78778   -449.54631   -1105.8477    20.143643    20.260075    20.397451           90           90           90 
   41000    226.87972   -162.71757   -134.24153   -162.71757            0    2753.3919    20.141071    20.125683    20.434546            0            0            0    8283.2011    1782.3339    5278.3733    1199.4686    522.73923   -1061.1616    680.02159    20.141071    20.125683    20.434546           90           90           90 
   41500    240.88674   -163.12404   -132.88996   -163.12404            0    2921.1557     20.13153    19.999113     20.48257            0            0            0    8246.5437    1860.6837    3709.2997    3193.4838     1157.012    395.87969   -3530.1168     20.13153    19.999113     20.48257           90           90           90 
   42000    232.04791   -162.87636   -133.75166   -162.87636            0    1812.8048     20.19916    20.168555    20.629641            0            0            0    8404.2653      4624.29   -1434.6611    2248.7856    983.90944   -2104.5817    2191.4059     20.19916    20.168555    20.629641           90           90           90 
   42500    243.58192   -162.74425   -132.17189   -162.74425            0    5587.7181    20.010422    20.117197    20.433979            0            0            0    8225.7719    7179.3297    6119.1843    3464.6402    416.50256    1020.0916   -3985.9723    20.010422    20.117197    20.433979           90           90           90 
   43000       237.54     -162.429   -132.61497     -162.429            0    2299.6419     20.12973    20.163264    20.366819            0            0            0    8266.5065    2053.5491    1514.9417    3330.4348   -219.62302    2509.4896   -478.80578     20.12973    20.163264    20.366819           90           90           90 
   43500    233.84614   -162.39188   -133.04147   -162.39188            0    3553.1995    20.306779    20.146786    20.432647            0            0            0    8359.3294   -291.40421    5362.8775    5588.1253   -1016.3271    971.36605   -916.30032    20.306779    20.146786    20.432647           90           90           90 
   44000    238.82155   -163.47157   -133.49669   -163.47157            0    4613.7406    20.167858    19.971029    20.428421            0            0            0     8228.014    2621.7638    6088.6953    5130.7628   -1019.9557   -1471.8052    -677.7367    20.167858    19.971029    20.428421           90           90           90 
   44500    236.18466   -162.95187   -133.30795   -162.95187            0    4260.1435    20.049341    20.071129    20.466968            0            0            0    8236.1723    2317.8274    5633.9813    4828.6218    334.97889   -1625.1031   -1004.6642    20.049341    20.071129    20.466968           90           90           90 
   45000    225.89364   -163.73287   -135.38059   -163.73287            0    4623.4882    20.108084      20.1964    20.471692            0            0            0    8313.7772    8068.6948      3450.24    2351.5297    249.84947    729.81362    1298.0296    20.108084      20.1964    20.471692           90           90           90 
   45500    234.36544   -163.82194   -134.40636   -163.82194            0     3711.496    20.320865     20.07222    20.369337            0            0            0     8308.345    2640.5547     3116.009    5377.9243   -443.03109     -84.7836   -1911.9075    20.320865     20.07222    20.369337           90           90           90 
   46000     225.7182   -162.24201   -133.91176   -162.24201            0    4523.2416    20.252424    19.863624    20.351532            0            0            0    8187.1476    7600.6181    2639.0227    3330.0841   -100.89526     1869.984    598.80533    20.252424    19.863624    20.351532           90           90           90 
   46500    233.34373   -162.80712   -133.51977   -162.80712            0    3616.6027    20.082427    20.156523    20.584703            0            0            0    8332.5213     5441.235    1309.9852    4098.5878    -129.7256    1252.9427    995.99731    20.082427    20.156523    20.584703           90           90           90 
   47000    242.98426   -163.80284    -133.3055   -163.80284            0    5317.7584    19.993607    20.226147    20.562594            0            0            0    8315.3822    4947.2839    4279.3678    6726.6234    1078.6713    2763.2967    673.10514    19.993607    20.226147    20.562594           90           90           90 
   47500     250.6912   -163.50044   -132.03579   -163.50044            0    3077.1499    20.174923    20.130175    20.419243            0            0            0    8292.7592    5500.4191    382.83413    3348.1967     515.3047   -319.52604   -816.20293    20.174923    20.130175    20.419243           90           90           90 
   48000    236.63897   -161.95473   -132.25379   -161.95473            0    3797.5832    20.261545     19.95727    20.224488            0            0            0    8178.0776   -693.24807    7356.5888    4729.4088   -1421.9086   -329.34659     3335.718    20.261545     19.95727    20.224488           90           90           90 
   48500    236.28046   -162.82145   -133.16551   -162.82145            0    4693.1067    20.314967    20.187114    20.438553            0            0            0    8381.8618    786.22576    6697.7652    6595.3292     -310.991    917.08522    1320.1281    20.314967    20.187114    20.438553           90           90           90 
   49000    242.22524   -161.64105   -131.23897   -161.64105            0    4603.9754    20.075112    20.230288     20.61852            0            0            0    8373.7025    5300.2834    4777.8295    3733.8132    26.246537   -41.410799   -635.27261    20.075112    20.230288     20.61852           90           90           90 
   49500    252.24576   -160.43025   -128.77048   -160.43025            0    4725.5329    19.915704    20.031684    20.525308            0            0            0    8188.4706    3694.5486    5074.2805    5407.7698   -470.86724    2280.8741    23.961189    19.915704    20.031684    20.525308           90           90           90 
   50000    242.39869   -162.03049   -131.60665   -162.03049            0     1951.697    20.249575     20.10367    20.515876            0            0            0    8351.8236   -1384.4489    4857.9813    2381.5585    859.80771   -472.55616    140.71846    20.249575     20.10367    20.515876           90           90           90 
   50500    231.69233    -161.9436   -132.86353    -161.9436            0    1466.3292    20.309098     20.13732    20.317156            0            0            0    8309.1234    2811.7514    1038.3221    548.91431   -421.71654    296.76492    -1100.339    20.309098     20.13732    20.317156           90           90           90 
   51000    237.68968   -162.08684   -132.25403   -162.08684            0    582.31954    20.132922    20.187814    20.288436            0            0            0    8246.0252   -1142.1321    610.28265    2278.8081   -1109.5672    438.26399    1819.8649    20.132922    20.187814    20.288436           90           90           90 
   51500    237.09993   -163.12432   -133.36553   -163.12432            0    5366.1229    20.004026    20.160123    20.421213            0            0            0    8235.5411    3228.1414    9206.6318    3663.5955    937.73585    2106.6134    1230.0572    20.004026    20.160123    20.421213           90           90           90 
   52000    229.39664   -163.73327   -134.94133   -163.73327            0    -2270.779    20.189633     20.18003     20.63252            0            0            0    8406.2541   -2401.8386   -2177.7014    -2232.797   -118.71727    523.81044   -730.07134    20.189633     20.18003     20.63252           90           90           90 
   52500    246.01037   -163.13916   -132.26201   -163.13916            0    5446.4207    20.142371    19.968847    20.434858            0            0            0     8219.307     6455.508    5479.5071     4404.247    991.27479   -4517.6601    902.49667    20.142371    19.968847    20.434858           90           90           90 
   53000    233.32884   -163.12386   -133.83838   -163.12386            0    4992.5798    20.165901    20.118833    20.380376            0            0            0    8268.6117    5333.4343    5558.0899    4086.2153    40.327421    2530.6826    -801.8793    20.165901    20.118833    20.380376           90           90           90 
   53500     235.2764   -163.04893   -133.51901   -163.04893            0    657.45814    20.141996    20.337671    20.426102            0            0            0    8367.3748     -558.522    1143.1029    1387.7935   -363.49359   -1702.3025   -2334.1119    20.141996    20.337671    20.426102           90           90           90 
   54000    241.72994   -162.36787   -132.02795   -162.36787            0    5296.5249    19.971081    20.121615    20.389049            0            0            0    8193.3475    8579.9315    3504.5339    3805.1095     1027.055    963.06999    24.871262    19.971081    20.121615    20.389049           90           90           90 
   54500    224.74719   -163.50808    -135.2997   -163.50808            0    3053.8486     20.14533    20.094849    20.567062            0            0            0    8325.9036    1486.5157    5528.3488    2146.6812     431.8823      994.067   -816.86269     20.14533    20.094849    20.567062           90           90           90 
   55000    236.26741    -163.2816    -133.6273    -163.2816            0    2191.1195    20.144428    20.052822    20.424421            0            0            0    8250.4987    4548.8369   -401.15169    2425.6733   -457.44456     214.2681    1003.4167    20.144428    20.052822    20.424421           90           90           90 
   55500     232.7151   -164.01199   -134.80354   -164.01199            0    4620.5442    20.187896    20.120919    20.357996            0            0            0    8269.3981    3244.2751    5007.6257    5609.7317   -1151.4813    -3674.887   -2340.1565    20.187896    20.120919    20.357996           90           90           90 
   56000    238.55271   -161.93403   -131.99289   -161.93403            0    1174.1419    20.251637    20.093567    20.363349            0            0            0    8286.4092   -1600.2462    2082.0195    3040.6525    71.715605   -1502.4322   -2439.4612    20.251637    20.093567    20.363349           90           90           90 
   56500    237.58611   -162.72813   -132.90832   -162.72813            0    888.07745    20.222802    20.057818    20.487969            0            0            0    8310.4379    1886.7822    1436.8083   -659.35807    161.70222   -523.52329   -1428.4456    20.222802    20.057818    20.487969           90           90           90 
   57000    235.46302   -162.12183   -132.56849   -162.12183            0    229.40321    20.013111    20.128702    20.504516            0            0            0    8259.9969    3855.4546   -2550.1189   -617.12602   -1284.9892    2206.8082   -237.06751    20.013111    20.128702    20.504516           90           90           90 
   57500    234.61302   -163.40202   -133.95537   -163.40202            0    2607.4086    20.003793    20.298893    20.432717            0            0            0    8296.8041    2395.8558    190.62406     5235.746    1075.8182    2218.2756   -326.62748    20.003793    20.298893    20.432717           90           90           90 
   58000    235.27823   -163.22909   -133.69894   -163.22909            0    5630.1784    20.186727    20.226145    20.324829            0            0            0     8298.621     5362.055    4859.5098    6668.9706   -320.02056    2556.5752   -1280.9506    20.186727    20.226145    20.324829           90           90           90 
   58500    238.80229   -162.97676    -133.0043   -162.97676            0    2991.5139    20.244131    20.045427    20.413832            0            0            0    8283.9789    2004.7035    2687.2827    4282.5555   -1131.8805    2783.0595    1429.4579    20.244131    20.045427    20.413832           90           90           90 
   59000    240.86874   -162.32855   -132.09673   -162.32855            0    5093.0868    20.103257     19.98278    20.476066            0            0            0    8225.6237    5836.9288    2067.5787    7374.7528    -1443.486    1094.0309     -972.072    20.103257     19.98278    20.476066           90           90           90 
   59500    238.94662   -162.28926   -132.29869   -162.28926            0    3984.5667    20.087695    20.172913    20.586154            0            0            0    8342.0722    6445.6131    2456.6891     3051.398   -121.84943    2001.1484    2184.4205    20.087695    20.172913    20.586154           90           90           90 
   60000    220.17357   -161.13964   -133.50531   -161.13964            0    2432.8621    20.127917    20.170337    20.440095            0            0            0    8298.4101   -233.90697    4743.2507    2789.2427   -2155.4117   -1586.2308    520.13426    20.127917    20.170337    20.440095           90           90           90 
   60500    237.20087   -163.80071   -134.02925   -163.80071            0     2243.802    20.232739     20.10385    20.372111            0            0            0    8286.4771    3630.1127    864.05105    2237.2423    905.42743   -45.995596    440.32984    20.232739     20.10385    20.372111           90           90           90 
   61000    241.04967    -162.8905   -132.63597    -162.8905            0    3585.9651    20.155321    20.029059    20.335093            0            0            0    8209.1168    2423.1618    5189.9636    3144.7698    789.94435   -1760.5831   -483.26246    20.155321    20.029059    20.335093           90           90           90 
   61500    237.75235   -162.54882   -132.70814   -162.54882            0    941.11817    20.139833    20.259385    20.557473            0            0            0    8387.8729    1910.2364    3074.3975   -2161.2793    259.28138     2322.126   -15.781584    20.139833    20.259385    20.557473           90           90           90 
   62000    241.25617   -162.10594   -131.82549   -162.10594            0    2601.1336     19.97071    20.206094    20.539351            0            0            0    8288.2456    5372.8051   -458.99697    2889.5925   -648.02807    828.61855   -833.06885     19.97071    20.206094    20.539351           90           90           90 
   62500    235.87217   -162.90661   -133.30192   -162.90661            0    3263.2298    20.122086      20.0023    20.457475            0            0            0    8233.8882    3457.9856    2356.4723    3975.2316    645.26095    2082.0293   -687.17422    20.122086      20.0023    20.457475           90           90           90 
   63000    243.57429   -161.62966   -131.05827   -161.62966            0    3402.6304    20.340459    19.996318    20.476991            0            0            0    8328.6943    2292.8782    2424.2566    5490.7562     32.44826    834.10011    377.32702    20.340459    19.996318    20.476991           90           90           90 
   63500    228.64237   -162.10383   -133.40656   -162.10383            0    4254.9042    20.152959    20.180632    20.407195            0            0            0    8299.5952    4708.6514    4153.3007    3902.7606   -1580.7195    2550.4064    154.29242    20.152959    20.180632    20.407195           90           90           90 
   64000    241.09183   -162.52643   -132.26661   -162.52643            0    2652.7161    19.963108    20.335146    20.407355            0            0            0    8284.4211    5856.6798   -932.88412    3034.3526    339.82876    349.83742   -801.54817    19.963108    20.335146    20.407355           90           90           90 
   64500    234.38385   -162.42137   -133.00348   -162.42137            0    4603.0832    20.001905    20.198702    20.473696            0            0            0      8271.63    5152.1622    6527.6977    2129.3897   -515.15663   -1887.6085     1613.535    20.001905    20.198702    20.473696           90           90           90 
   65000    235.23467   -164.54537   -135.02069   -164.54537            0    2495.1966    20.245809    19.986877    20.475869            0            0            0    8285.5707    2505.9851    891.22625    4088.3783    674.66938   -98.057852    1524.1813    20.245809    19.986877    20.475869           90           90           90 
   65500    224.24742   -161.90012   -133.75447   -161.90012            0    2204.6725    20.281628    19.957094    20.468938            0            0            0    8285.0557    1789.3111    3465.5726    1359.1337   -1256.9607    -2168.044   -1106.2648    20.281628    19.957094    20.468938           90           90           90 
   66000    243.79528   -162.04928   -131.45014   -162.04928            0     1778.724    20.176397    20.167857    20.466376            0            0            0     8328.069    2521.9496     3116.488   -302.26549    900.45596    400.70867   -861.85491    20.176397    20.167857    20.466376           90           90           90 
   66500    235.30751   -161.55193   -132.01811   -161.55193            0    3305.8141    20.038879    20.252481    20.432554            0            0            0     8292.287    5564.8211    847.21125    3505.4101   -231.25262   -1631.6262    390.22839    20.038879    20.252481    20.432554           90           90           90 
   67000    226.53464   -162.50056   -134.06783   -162.50056            0    2248.5721    20.061139    20.151122    20.361713            0            0            0    8231.3133    4048.3155    2731.6458   -34.245079    702.27335    2745.3983   -3270.3334    20.061139    20.151122    20.361713           90           90           90 
   67500    231.82979   -162.70992    -133.6126   -162.70992            0    3164.7573    20.367797    20.054647    20.397586            0            0            0    8331.7814    1480.2987    4646.7493     3367.224   -320.02626    2226.6895    2968.1369    20.367797    20.054647    20.397586           90           90           90 
   68000    231.34099   -163.09955   -134.06357   -163.09955            0    2381.0682    20.321274    19.999439     20.48268            0            0            0    8324.4492    2853.1014    3046.9633      1243.14    1734.1746    2611.7483    61.269115    20.321274    19.999439     20.48268           90           90           90 
   68500    246.64877    -163.6776   -132.72032    -163.6776            0    1805.3284    19.980926    20.084727    20.576674            0            0            0     8257.655    2958.7567     1572.595    884.63339      1439.61     92.19147   -1644.9925    19.980926    20.084727    20.576674           90           90           90 
   69000    230.75457   -163.45343   -134.49105   -163.45343            0    3594.8749    19.972079    20.245086    20.532906            0            0            0    8302.2024    5738.9041    265.22604    4780.4945   -322.88173   -910.51061    613.87771    19.972079    20.245086    20.532906           90           90           90 
   69500    237.41658   -164.18261   -134.38408   -164.18261            0    4199.3888    20.239909    20.227161    20.424479            0            0            0    8361.6978    6785.6948    1626.9495    4185.5221    1494.3604    1693.4964    1349.2706    20.239909    20.227161    20.424479           90           90           90 
   70000    232.61184   -162.89923   -133.70374   -162.89923            0    1629.9024    20.265019    20.017844    20.300339            0            0            0    8235.0758    1315.4322    245.70469    3328.5704    -1009.671   -2323.8757    2462.6285    20.265019    20.017844    20.300339           90           90           90 
   70500    236.44974   -164.01336   -134.33618   -164.01336            0    1351.0155    20.185372    20.119014    20.393243            0            0            0    8281.8952    4292.1327    -1461.725    1222.6389   -213.22026   -1426.6596    -277.4608    20.185372    20.119014    20.393243           90           90           90 
   71000    235.62026   -163.65072   -134.07765   -163.65072            0    3376.1185    20.026967    20.225525    20.607586            0            0            0    8347.2244     4003.002    2864.7126    3260.6408   -1751.2283   -166.59808    -2131.197    20.026967    20.225525    20.607586           90           90           90 
   71500    237.03975   -163.41226   -133.66102   -163.41226            0    2955.3875    20.076015    20.089657    20.721115            0            0            0    8357.2451    1945.0522    3413.0217    3508.0885    40.318941   -1135.9418   -1081.2393    20.076015    20.089657    20.721115           90           90           90 
   72000    238.90195   -160.31241   -130.32745   -160.31241            0    5601.8357    20.098544     19.91052    20.405999            0            0            0    8165.9191    1941.5833    9877.5084    4986.4153   -301.63325    1833.1116    377.04066    20.098544     19.91052    20.405999           90           90           90 
   72500    225.13967    -161.2673   -133.00966    -161.2673            0    1128.1389    20.299696    20.298634    20.393433            0            0            0    8403.2386    476.06768    2877.4806    30.868341    788.46961    355.69184   -1034.8489    20.299696    20.298634    20.393433           90           90           90 
   73000    227.62663   -162.39162   -133.82184   -162.39162            0    2840.2846    20.130446    20.302723    20.284708            0            0            0    8290.4182    3635.3217    1915.5062    2970.0258   -146.84295    821.65286    249.87437    20.130446    20.302723    20.284708           90           90           90 
   73500    240.79432   -163.20523   -132.98275   -163.20523            0    2288.4965    20.029911    20.132865    20.332343            0            0            0    8199.2103    2915.3808    427.29038    3522.8184    573.81949    507.75837   -1030.3906    20.029911    20.132865    20.332343           90           90           90 
   74000     230.8411   -162.87664   -133.90341   -162.87664            0    1991.0032    20.220106    20.136206    20.563253            0            0            0    8372.4561   -50.703406    3948.8784    2074.8345    1154.3116      159.584    -1155.956    20.220106    20.136206    20.563253           90           90           90 
   74500    229.80912   -162.43758   -133.59387   -162.43758            0    2918.4561    20.256781    20.066546     20.56687            0            0            0    8360.0957    3132.2134    3561.5163    2061.6386    -406.7876    -542.1718    1687.2864    20.256781    20.066546     20.56687           90           90           90 
   75000    241.75471    -162.4786   -132.13558    -162.4786            0    3950.7086    20.106542    20.075656    20.377123            0            0            0    8225.2665    3055.0769     3444.872     5352.177    137.65459    3439.8611   -1084.8733    20.106542    20.075656    20.377123           90           90           90 
   75500    233.29285   -163.10311   -133.82215   -163.10311            0    1698.0199    20.085213     20.27041    20.414027            0            0            0    8311.2748    4486.6764    508.47706    98.906293   -869.49195   -523.77246   -987.79668    20.085213     20.27041    20.414027           90           90           90 
   76000    239.66464   -163.29616   -133.21547   -163.29616            0    7868.6456     20.17641    20.183417    20.414977            0            0            0    8313.5684    5304.6293     10154.32    8146.9881    906.17542   -2564.8442   -331.16846     20.17641    20.183417    20.414977           90           90           90 
   76500    218.99961   -163.80353   -136.31654   -163.80353            0    316.75941    20.269936    20.054036    20.499949            0            0            0    8333.1066    871.86554    1622.1809   -1543.7682    71.301644    1476.1876   -2308.2789    20.269936    20.054036    20.499949           90           90           90 
   77000    231.14334   -165.33025   -136.31908   -165.33025            0    2937.1234    20.057475    19.951794    20.475284            0            0            0    8193.8527    2987.9948    1941.3968    3881.9787   -848.85926   -657.27105   -679.74793    20.057475    19.951794    20.475284           90           90           90 
   77500    232.83857   -162.63413   -133.41019   -162.63413            0    482.43653    20.140948    20.274053    20.623903            0            0            0    8421.5369   -1214.5276    940.88658    1720.9506    547.57255   -1507.7333    1466.7313    20.140948    20.274053    20.623903           90           90           90 
   78000    240.59496   -160.86357   -130.66611   -160.86357            0    3830.5919    20.151752    20.182202    20.461017            0            0            0    8321.6333    1602.1839    7279.3512    2610.2406   -715.35842    390.23463    212.06749    20.151752    20.182202    20.461017           90           90           90 
   78500     228.7079   -163.45908   -134.75358   -163.45908            0    2775.3866    20.189704    20.025051    20.377473            0            0            0    8238.6092    4229.1156    747.15574    3349.8885   -556.40842   -1065.7121    2739.8149    20.189704    20.025051    20.377473           90           90           90 
   79000    234.52763   -164.17226   -134.73632   -164.17226            0      2860.37    20.207132    20.094795    20.439927            0            0            0    8299.7995    5672.5562    1629.1284    1279.4253   -1126.6337   -424.27728   -578.73905    20.207132    20.094795    20.439927           90           90           90 
   79500    231.04162   -161.76717   -132.76876   -161.76717            0    5209.5629    20.051488    20.127859    20.455165            0            0            0    8255.5723     5708.357    2643.9105    7276.4213    1220.0319    2907.1972    279.73331    20.051488    20.127859    20.455165           90           90           90 
   80000    239.63075   -162.12068   -132.04424   -162.12068            0    210.68427    20.087673    20.178729     20.64405            0            0            0    8367.9359   -1922.3999     3065.525   -511.07231   -373.25886   -956.71894    809.88565    20.087673    20.178729     20.64405           90           90           90 
   80500    234.73317   -162.52745   -133.06572   -162.52745            0    3686.4976    20.063431    19.908226    20.551465            0            0            0    8208.8168   -128.55417    8109.7332    3078.3137   -235.76482    2129.3044   -13.660186    20.063431    19.908226    20.551465           90           90           90 
   81000    236.34859   -163.05177   -133.38728   -163.05177            0    1344.9194    20.336152    19.985537    20.584126            0            0            0    8365.9839   -1049.5328    3824.2436    1260.0474   -241.75913    317.71384   -295.88834    20.336152    19.985537    20.584126           90           90           90 
   81500    234.17706   -162.60932   -133.21738   -162.60932            0    1245.3059    20.327943     20.11523    20.396341            0            0            0    8340.0891    394.46197    1385.4686    1955.9872   -897.68715    730.44282   -189.39928    20.327943     20.11523    20.396341           90           90           90 
   82000    226.22783   -162.35355   -133.95933   -162.35355            0    3692.1835    20.069488    20.152795    20.212948            0            0            0    8175.2539    7565.5258    290.01508    3221.0097    975.03783     -229.213   -1794.0698    20.069488    20.152795    20.212948           90           90           90 
   82500    241.44216   -161.84565   -131.54186   -161.84565            0    1653.1579    20.188464     20.26996    20.414159            0            0            0    8353.8691   -3468.6215    6323.7444    2104.3506   -1318.1047   -745.11622    255.90976    20.188464     20.26996    20.414159           90           90           90 
   83000    237.55402   -162.16952   -132.35373   -162.16952            0    1642.1519    20.082977     20.10207    20.486163            0            0            0    8270.4566    876.87542    496.47498    3553.1052   -957.61862    228.72975   -2000.4952    20.082977     20.10207    20.486163           90           90           90 
   83500    233.21827   -162.08875   -132.81715   -162.08875            0    347.80392    20.089816    20.161235    20.676179            0            0            0     8374.587    -1526.512    5125.3731   -2555.4494     74.41456     1005.805     596.2377    20.089816    20.161235    20.676179           90           90           90 
   84000    241.67426   -161.48092     -131.148   -161.48092            0    2587.8752    20.033332    20.123426    20.473785            0            0            0    8253.7869      3466.43    1932.4441    2364.7515    951.06483     684.4279    1833.9134    20.033332    20.123426    20.473785           90           90           90 
   84500    235.57157   -162.61848   -133.05152   -162.61848            0    2609.9476    20.268618    20.150938    20.351085            0            0            0    8312.0274   -2415.0496    5625.5158    4619.3766   -1130.9593    986.37985   -1880.6687    20.268618    20.150938    20.351085           90           90           90 
   85000    232.91068   -162.84364   -133.61065   -162.84364            0    1169.3147    20.319969    20.125913    20.355524            0            0            0    8324.5528   -1385.6545    3587.5436    1306.0549    851.38966    1048.1761   -729.88735    20.319969    20.125913    20.355524           90           90           90 
   85500    234.63386   -161.06232   -131.61305   -161.06232            0    2712.7461    20.102723    20.003709    20.416714            0            0            0    8210.1532    4339.5586    3240.3805    558.29907   -1169.2869     1172.222    1529.8461    20.102723    20.003709    20.416714           90           90           90 
   86000    233.12918   -162.31165   -133.05123   -162.31165            0    496.62338    20.045438    20.171947    20.710465            0            0            0    8374.3904    1393.1154   -1084.3064    1181.0612   -967.72643    -672.6599    215.90858    20.045438    20.171947    20.710465           90           90           90 
   86500    234.92849   -163.72148   -134.23523   -163.72148            0    2133.6633    19.976555    20.164699    20.566126            0            0            0    8284.4721    3933.5684    2362.4751     104.9463    1584.1488   -1225.8741   -913.05835    19.976555    20.164699    20.566126           90           90           90 
   87000    224.25672   -162.72402    -134.5772   -162.72402            0   -620.67273    20.229531    20.226523    20.362613            0            0            0    8331.8329   -942.03217   -2060.1506    1140.1646   -594.71201   -560.61745    1885.2629    20.229531    20.226523    20.362613           90           90           90 
   87500     234.9108   -163.22033    -133.7363   -163.22033            0    884.69484    20.323734    20.079202     20.14047            0            0            0    8219.0109    296.26253   -1494.1414    3851.9633    1950.8591   -555.70652   -1444.9994    20.323734    20.079202     20.14047           90           90           90 
   88000    234.33947    -162.0193   -132.60698    -162.0193            0     87.91165    20.296293     20.08693    20.390055            0            0            0     8312.826   -2278.3704    645.30059    1896.8047   -812.46546   -1146.4605   -2458.4777    20.296293     20.08693    20.390055           90           90           90 
   88500    231.17391   -162.90945   -133.89444   -162.90945            0    1309.0086    20.029319    20.020095    20.781117            0            0            0    8332.9967    152.30893    2771.9837    1002.7331   -1306.4434    1512.3281    803.73581    20.029319    20.020095    20.781117           90           90           90 
   89000    218.58874   -162.95387   -135.51845   -162.95387            0    5554.4852    19.951055    19.980504    20.771835            0            0            0    8280.3207    6300.4345     4467.186     5895.835    311.46597    2223.4954    7.7277288    19.951055    19.980504    20.771835           90           90           90 
   89500    224.03311   -164.08475     -135.966   -164.08475            0    3495.3729    20.151366    20.137812    20.581119            0            0            0     8351.909    3382.1397    4632.1294    2471.8495   -622.88309    1414.8993   -1304.5183    20.151366    20.137812    20.581119           90           90           90 
   90000    230.12284   -164.21288    -135.3298   -164.21288            0    2985.0143    20.153567    20.110228    20.373872            0            0            0    8257.3841    4033.8921   -825.92476    5747.0757    2098.9263    1986.8041   -3676.6259    20.153567    20.110228    20.373872           90           90           90 
   90500    236.99162   -163.15247   -133.40727   -163.15247            0    2253.3387    20.144617    20.155295    20.384977            0            0            0    8276.7228    2704.2892    1167.9539    2887.7731   -1240.7491     1070.102   -1034.4578    20.144617    20.155295    20.384977           90           90           90 
   91000    241.50553   -163.51089   -133.19915   -163.51089            0     2575.276    20.052585    20.183866    20.442348            0            0            0     8273.809    5048.3965    653.58166    2023.8499    -648.4021   -2001.2697   -932.62209    20.052585    20.183866    20.442348           90           90           90 
   91500    219.88328   -163.99211   -136.39421   -163.99211            0    3804.5293    20.084097    20.137904    20.555339            0            0            0      8313.64    3762.1783    2020.3312    5631.0785    -288.4354    102.96422   -1006.6151    20.084097    20.137904    20.555339           90           90           90 
   92000    232.87372   -163.70402   -134.47566   -163.70402            0      4861.31    20.141864    20.014796    20.516178            0            0            0    8270.7957    4616.3479    6328.6416    3638.9406    589.94802    597.48984    839.10507    20.141864    20.014796    20.516178           90           90           90 
   92500    234.90304   -163.68404   -134.20099   -163.68404            0    2989.8845    20.219283    20.038074    20.518669            0            0            0    8313.2517    1256.3414    1861.5203    5851.7917     210.1814   -232.75806    2846.3174    20.219283    20.038074    20.518669           90           90           90 
   93000    228.32452   -162.14715   -133.48978   -162.14715            0    3474.9238    20.195874    20.150273    20.553248            0            0            0    8364.1932    2572.5463    5716.3893    2135.8357    359.08261    201.65446    1472.2052    20.195874    20.150273    20.553248           90           90           90 
   93500    227.05803    -162.5125   -134.01408    -162.5125            0    774.92462    20.011172    20.091891    20.399135            0            0            0    8201.7227    2953.6705   -1484.4398    855.54321    558.42558    399.51904   -1375.7174    20.011172    20.091891    20.399135           90           90           90 
   94000    231.14797   -163.49379   -134.48204   -163.49379            0    4968.0017    20.093928    20.173787    20.381438            0            0            0    8262.0363    4518.3818    9026.7166    1358.9067   -756.96565   -450.39351   -4000.9094    20.093928    20.173787    20.381438           90           90           90 
   94500    237.16901   -164.09243   -134.32496   -164.09243            0    5583.8747     20.23504    20.166005    20.452504            0            0            0    8345.8473    3396.3584    6941.1134    6414.1522    821.91483    369.45039    447.69632     20.23504    20.166005    20.452504           90           90           90 
   95000    225.89631   -164.09262   -135.74001   -164.09262            0    2650.2084    20.133234    20.002168    20.607468            0            0            0    8298.7993    3793.0175    1095.0223    3062.5853   -156.26888    1988.6794    -257.8234    20.133234    20.002168    20.607468           90           90           90 
   95500    239.29441   -163.30719   -133.27297   -163.30719            0    4210.2511    19.927799    19.977776    20.638173            0            0            0    8216.3271    5565.3982    4653.1794    2412.1758    -2258.381   -837.77062     -929.851    19.927799    19.977776    20.638173           90           90           90 
   96000    235.23149   -161.98378    -132.4595   -161.98378            0    2098.7587    20.132504    20.247073    20.653615            0            0            0     8418.915    2707.0898    2240.3584    1348.8279    147.04235    55.268341   -1251.3053    20.132504    20.247073    20.653615           90           90           90 
   96500    227.52981   -161.30093    -132.7433   -161.30093            0    3063.3136    20.230594    20.122046    20.357479            0            0            0    8287.1418    2503.3293    5395.9709    1290.6405   -116.75989    1100.7904    999.60762    20.230594    20.122046    20.357479           90           90           90 
   97000    233.35266   -162.72227    -133.4338   -162.72227            0    5002.5723    20.285083    20.022766    20.389496            0            0            0    8281.4683    7021.8928    2908.0439    5077.7803    646.03865   -2148.1148    1800.8273    20.285083    20.022766    20.389496           90           90           90 
   97500    232.61454   -162.72724   -133.53142   -162.72724            0   -1310.1396    20.217206    20.017236    20.515025            0            0            0    8302.2787   -2106.7492   -36.128851   -1787.5408   -1122.9127    370.42222    675.67915    20.217206    20.017236    20.515025           90           90           90 
   98000    227.99146   -163.19696   -134.58138   -163.19696            0    1465.5082    20.054064    20.111263    20.674161            0            0            0    8338.1486    2904.9561    634.95079    856.61771    1059.1007    676.73467    829.49514    20.054064    20.111263    20.674161           90           90           90 
   98500    240.59185   -163.79731   -133.60024   -163.79731            0    5470.6071    19.979114    20.154843    20.585304            0            0            0    8289.2061    4793.2052    6205.3719    5413.2443    630.18989    212.62768   -1252.8087    19.979114    20.154843    20.585304           90           90           90 
   99000    242.14613   -164.53861   -134.14646   -164.53861            0    3246.4198    20.180905    20.183344    20.408536            0            0            0    8312.7668    562.95061    4175.1408    5001.1681    99.134784   -1212.3687   -1083.0586    20.180905    20.183344    20.408536           90           90           90 
   99500     243.1402   -162.15337   -131.63645   -162.15337            0    2427.3074    20.347727    20.120567    20.308035            0            0            0    8314.2678    3113.2327    1512.6215    2656.0681   -401.91012  -0.31985999     51.39458    20.347727    20.120567    20.308035           90           90           90 
  100000    236.92177   -162.94048   -133.20405   -162.94048            0    7130.7258    20.197099    20.039167    20.364423            0            0            0    8242.1545    5155.8801    9804.7168    6431.5805    1207.2916    2095.6151    1493.9921    20.197099    20.039167    20.364423           90           90           90 
  100500    236.58006   -162.77521   -133.08166   -162.77521            0    338.03221    20.070282    20.127468    20.673662            0            0            0    8351.4144     1327.331   -158.82038   -154.41397   -159.18962    -56.59283     899.2489    20.070282    20.127468    20.673662           90           90           90 
  101000    232.97026   -163.36603   -134.12556   -163.36603            0    2227.2425    20.010117    20.053412    20.681429            0            0            0    8298.8601    2112.5184    3716.5676    852.64135    906.71786   -2670.7475    229.29055    20.010117    20.053412    20.681429           90           90           90 
  101500    235.61899   -163.19342    -133.6205   -163.19342            0    2941.4993    20.171294    20.073358    20.402472            0            0            0    8261.0757    1310.8165    3439.7977    4073.8838   -478.47579   -1626.1985    219.70739    20.171294    20.073358    20.402472           90           90           90 
  102000    234.31058   -163.04514   -133.63645   -163.04514            0    4183.0432    20.445793    20.218899    20.216494            0            0            0    8357.3254    4217.5788     4709.877    3621.6739   -1066.3874   -420.99891     1502.929    20.445793    20.218899    20.216494           90           90           90 
  102500    228.24858   -162.41836   -133.77052   -162.41836            0    1153.9946    20.200021    20.186976     20.22796            0            0            0    8248.5038    -2045.709    1237.5344    4270.1585    1563.8923   -556.75801   -1595.5618    20.200021    20.186976     20.22796           90           90           90 
  103000    230.10668   -162.11339   -133.23234   -162.11339            0    1201.7588    19.943202    20.208037    20.510854            0            0            0    8266.1401    1891.0042    1331.2205    383.05177    -1792.075    1067.0493    379.21122    19.943202    20.208037    20.510854           90           90           90 
  103500     226.6352   -163.39538   -134.95003   -163.39538            0    1374.2281    20.038983     20.16754    20.689083            0            0            0    8361.2235    3955.0214    457.58954   -289.92669    1604.7038    958.19253   -1085.1358    20.038983     20.16754    20.689083           90           90           90 
  104000    235.77876   -162.44744   -132.85447   -162.44744            0   -1559.3695    20.260881    20.062534    20.675849            0            0            0    8404.4146   -2854.3879    222.06989   -2045.7905   -1003.4543    411.47102    927.67121    20.260881    20.062534    20.675849           90           90           90 
  104500    231.88259   -163.41028   -134.30632   -163.41028            0    1773.2635    20.079236    20.004058    20.417301            0            0            0    8200.9394    92.375303    2273.0919    2954.3233    301.31509   -246.93844   -1058.9929    20.079236    20.004058    20.417301           90           90           90 
  105000    244.30724   -162.70006   -132.03667   -162.70006            0    1932.9802    20.049007    20.278625    20.435625            0            0            0    8308.4361     3309.928     2508.462   -19.449404    117.94925    2859.3085    1334.6491    20.049007    20.278625    20.435625           90           90           90 
  105500    244.97065   -162.90869   -132.16203   -162.90869            0    3198.9305    20.112318    20.335684    20.416774            0            0            0    8350.4143    1450.7775      2578.01    5568.0041    1948.4041   -689.42405   -1182.5316    20.112318    20.335684    20.416774           90           90           90 
  106000     240.0318   -163.29708   -133.17031   -163.29708            0    4059.5918    20.178095    19.974428      20.4474            0            0            0    8241.2408    2537.6194    5474.8317    4166.3244   -1088.5469   -1030.4679    1716.4132    20.178095    19.974428      20.4474           90           90           90 
  106500    231.41226   -162.34825   -133.30333   -162.34825            0    3895.7933    20.264412    19.939273    20.589559            0            0            0    8319.3685    2745.3706    3857.9681    5084.0412    736.51586   -1189.5229    1378.2937    20.264412    19.939273    20.589559           90           90           90 
  107000    230.77288   -162.76612   -133.80145   -162.76612            0    6225.8513    20.164908    20.091148    20.470727            0            0            0    8293.4315    6957.5696    3852.5385    7867.4457    1222.9678   -752.02487    1750.2886    20.164908    20.091148    20.470727           90           90           90 
  107500    236.43464   -162.98896   -133.31367   -162.98896            0    101.39323    20.044093    20.352843    20.386737            0            0            0    8316.8569   -941.50551    2699.5155   -1453.8304   -529.30712    1707.3736   -584.45609    20.044093    20.352843    20.386737           90           90           90 
  108000    236.43296   -161.85545   -132.18037   -161.85545            0    159.45098    20.022382    20.312874    20.394223            0            0            0     8294.578    -1286.813    974.26366    790.90225    83.009375   -2865.2451   -857.55426    20.022382    20.312874    20.394223           90           90           90 
  108500    244.31883   -162.62517   -131.96033   -162.62517            0    2418.7611    20.199686    20.019026      20.4742            0            0            0    8279.3166    2227.6141    3094.3671     1934.302   -331.41476   -1416.1929    -443.3287    20.199686    20.019026      20.4742           90           90           90 
  109000    237.93965    -163.0514   -133.18722    -163.0514            0    2837.1357    20.286642    19.840891    20.572784            0            0            0    8280.6496    1642.5228    2585.6421    4283.2423    713.21298    3287.6322    -344.4371    20.286642    19.840891    20.572784           90           90           90 
  109500    237.52038   -162.76064   -132.94908   -162.76064            0      4195.65    20.130422    20.019708    20.554076            0            0            0    8283.3985     8137.762    2027.2511    2421.9368   -578.80786   -548.38084    1102.8882    20.130422    20.019708    20.554076           90           90           90 
  110000    231.51218    -162.4769   -133.41944    -162.4769            0    1329.9627    20.000353     20.24791    20.447314            0            0            0    8280.4533    2402.4522   -311.92717     1899.363    560.44709   -1192.5932    513.31814    20.000353     20.24791    20.447314           90           90           90 
  110500    231.31207    -163.5146   -134.48225    -163.5146            0    3533.5928    20.050184    20.201938    20.291553            0            0            0    8219.1458    2248.5124    5478.3108    2873.9551    856.13786    548.03056   -2422.9617    20.050184    20.201938    20.291553           90           90           90 
  111000    233.66794   -162.41833   -133.09029   -162.41833            0    87.364386    20.229864    20.162366    20.426558            0            0            0    8331.6234    514.09566   -1983.2306    1731.2281   -416.68868   -313.63191    1108.9738    20.229864    20.162366    20.426558           90           90           90 
  111500     237.3531   -163.17804   -133.38748   -163.17804            0    1517.3985    20.130454    20.081181     20.57954            0            0            0    8319.1409    1705.9714    693.14248    2153.0816    1972.0054    2388.4624    1910.8455    20.130454    20.081181     20.57954           90           90           90 
  112000    230.23086   -162.29087   -133.39423   -162.29087            0    4012.5877    20.037578    19.988719    20.584698            0            0            0    8244.6965    9242.3272    2124.1394    671.29646   -659.62659   -4004.3154    925.69965    20.037578    19.988719    20.584698           90           90           90 
[...]
  373000    231.68086   -165.49362   -136.41499   -165.49362            0    5385.8104    20.090648    20.135936    20.208516            0            0            0    8175.2339    9112.2273    1584.3637    5460.8404     485.5598    1320.5057    2060.5854    20.090648    20.135936    20.208516           90           90           90 
  373500    225.84467   -162.95838   -134.61225   -162.95838            0    3415.3948    20.258492    20.043628    20.356594            0            0            0    8265.8704    3009.8383    2747.5503    4488.7957   -471.18887    240.32393    438.71256    20.258492    20.043628    20.356594           90           90           90 
  374000      237.856   -161.98766   -132.13397   -161.98766            0    1972.5652    20.174315    20.085045    20.643033            0            0            0    8364.5987   -21.070889    3492.4668    2446.2997     775.5712    422.74941   -1183.0894    20.174315    20.085045    20.643033           90           90           90 
  374500    247.86503    -161.7626   -130.65266    -161.7626            0    2591.0345    19.994707    20.156535    20.779323            0            0            0    8374.5665    5777.7506    563.91702     1431.436     1155.727   -745.72235    1096.2023    19.994707    20.156535    20.779323           90           90           90 
  375000    242.17491   -161.23671   -130.84095   -161.23671            0    3736.8997    19.956818    20.153673    20.538209            0            0            0     8260.533    3834.1439    2917.2856    4459.2697   -1409.0466    1163.0589   -1899.7693    19.956818    20.153673    20.538209           90           90           90 
  375500    238.67269   -163.14866   -133.19247   -163.14866            0    3332.4251    20.235707    20.109885    20.203837            0            0            0    8221.7041    3049.6972    2485.0692    4462.5089    3012.9615   -188.26369   -606.58108    20.235707    20.109885    20.203837           90           90           90 
  376000    237.34893   -162.37028   -132.58024   -162.37028            0    4059.1908    20.397152    20.141542    20.226773            0            0            0    8309.7673     7292.633    2521.1665    2363.7729    71.630505    635.66578   -126.29226    20.397152    20.141542    20.226773           90           90           90 
  376500    235.15236   -161.20555    -131.6912   -161.20555            0    2766.2442    20.176116    20.067881    20.385038            0            0            0    8253.7366    2314.8898    2966.6019    3017.2409    629.45425    268.60429   -1618.6889    20.176116    20.067881    20.385038           90           90           90 
  377000    233.59141   -164.23345   -134.91501   -164.23345            0    608.61415    20.020992     20.14236    20.600132            0            0            0    8307.4161     1661.857    804.60671   -640.62121    -532.8758    2527.2875   -439.65871    20.020992     20.14236    20.600132           90           90           90 
  377500    234.28935   -163.93224   -134.52621   -163.93224            0    2846.8323     19.99148    20.125102    20.543913            0            0            0    8265.4442    3714.3937    1366.7072    3459.3959    1601.4557   -140.07112   -7.1713627     19.99148    20.125102    20.543913           90           90           90 
  378000    230.76598    -162.2502   -133.28639    -162.2502            0    3486.7097    20.126478    20.128146    20.435382            0            0            0    8278.5512    3126.6295    3857.7537    3475.7459   -925.56302   -367.44484    218.13429    20.126478    20.128146    20.435382           90           90           90 
  378500    226.30856   -163.48461   -135.08026   -163.48461            0    3418.7379    20.282406    20.103095    20.347559            0            0            0     8296.496     2620.655    3156.2814    4479.2772    790.20523     1557.286    569.69749    20.282406    20.103095    20.347559           90           90           90 
  379000    231.52508   -162.25183   -133.19275   -162.25183            0    1613.3506    20.285484    20.101861     20.43226            0            0            0     8331.785    3117.9664    2545.9231   -823.83761   -1600.5274    354.38488    122.64323    20.285484    20.101861     20.43226           90           90           90 
  379500     229.7129   -162.98146   -134.14982   -162.98146            0    4802.2338    20.047836    20.035088    20.458921            0            0            0    8217.5339    8002.7789    1492.0549    4911.8676    2333.2368   -258.29712    435.89519    20.047836    20.035088    20.458921           90           90           90 
  380000     229.0557   -162.89301   -134.14386   -162.89301            0    1649.3518     20.10696    20.160451    20.590432            0            0            0    8346.6482    2248.5228    1143.4608    1556.0718   -121.16583   -2329.0052    262.34151     20.10696    20.160451    20.590432           90           90           90 
  380500    233.53485    -164.3976   -135.08627    -164.3976            0    6315.0855    20.039974    20.161742    20.398389            0            0            0    8241.7811    9066.7499    4604.1259    5274.3808   -1403.5495   -1274.9765    1685.1565    20.039974    20.161742    20.398389           90           90           90 
  381000    229.36275   -163.17744   -134.38975   -163.17744            0    2407.7442    20.192447    20.166992    20.224438            0            0            0    8235.8142    2738.7477    344.42387     4140.061    681.65614    2485.9213   -1099.8616    20.192447    20.166992    20.224438           90           90           90 
  381500    237.53016   -160.87998   -131.06719   -160.87998            0    1282.5068    20.392691    20.204177    20.317243            0            0            0    8371.0605   -1046.1305    1955.7362    2937.9147    1273.6543     251.5049   -750.91474    20.392691    20.204177    20.317243           90           90           90 
  382000    235.06257   -162.24123   -132.73815   -162.24123            0    2841.6256    20.203915    19.993766    20.561538            0            0            0     8305.882    1864.0793    4948.9882    1711.8092    536.31228   -567.75106    3277.5755    20.203915    19.993766    20.561538           90           90           90 
  382500    236.00691   -160.51299   -130.89138   -160.51299            0    6854.9606    19.877296    19.892679    20.771545            0            0            0    8213.3318    10925.246    8276.0347     1363.601   -510.86078   -488.11806    1023.9695    19.877296    19.892679    20.771545           90           90           90 
  383000    230.62553   -161.21158    -132.2654   -161.21158            0     4572.983    19.999609    20.216845    20.700558            0            0            0    8369.8357    3034.1452    5419.4175    5265.3864   -246.46747   -550.56429    784.03004    19.999609    20.216845    20.700558           90           90           90 
  383500    246.11623   -161.28066   -130.39021   -161.28066            0   -539.19171    20.148012    20.325361    20.445843            0            0            0    8372.8921   -4.3013637    -1804.941    191.66726    814.42663    306.68022     902.5296    20.148012    20.325361    20.445843           90           90           90 
  384000    230.06104    -162.4856   -133.61027    -162.4856            0    6566.9846    20.193415    20.083383    20.268839            0            0            0      8220.07    2332.5936     11662.07    5706.2905   -1349.8826    491.12531     857.1291    20.193415    20.083383    20.268839           90           90           90 
  384500    234.01409   -163.36631   -133.99482   -163.36631            0    1832.0729    20.222794    20.052719    20.394914            0            0            0    8270.5865    2672.9254    1480.2201    1343.0733    2185.6663   -2031.0082    1304.5295    20.222794    20.052719    20.394914           90           90           90 
  385000    231.20437   -164.02891   -135.01008   -164.02891            0    238.77142    20.096555     20.12826    20.540974            0            0            0    8309.0024     -272.973    434.02942    555.25785    792.02807   -580.12907    1002.7189    20.096555     20.12826    20.540974           90           90           90 
  385500    231.64746   -163.71455   -134.64011   -163.71455            0    4725.7304    20.015164    20.148255    20.487961            0            0            0    8262.1928    3789.1447    4966.5725     5421.474    443.90982   -1494.8255    596.72522    20.015164    20.148255    20.487961           90           90           90 
  386000    241.24916    -164.2572   -133.97763    -164.2572            0    4463.1841    20.149278    20.144312    20.477312            0            0            0     8311.605    6235.1977    4117.3493    3037.0053    543.33902    2208.1848    1392.6586    20.149278    20.144312    20.477312           90           90           90 
  386500    240.92048   -162.62451    -132.3862   -162.62451            0    6085.2064    20.160849    20.090286    20.513306            0            0            0    8308.6525    6336.3798    5430.9408    6488.2985    1056.9926   -1334.0805   -26.863826    20.160849    20.090286    20.513306           90           90           90 
  387000    235.92568   -163.32538   -133.71397   -163.32538            0    4928.2476    20.133793    20.062144    20.642389            0            0            0    8338.0191    4219.3239    5441.2139    5124.2051    1721.8722    54.163218    1552.6415    20.133793    20.062144    20.642389           90           90           90 
  387500    236.64771   -162.70117   -132.99913   -162.70117            0    2864.2991    20.024286     19.98406    20.559749            0            0            0    8227.3239    4315.0593    3335.8651    941.97288   -140.73284   -981.48144   -308.64009    20.024286     19.98406    20.559749           90           90           90 
  388000    235.02744   -164.85165   -135.35298   -164.85165            0    3162.7925    20.256575    20.096341    20.381342            0            0            0    8296.8987    4245.4882    2132.7913    3110.0981    589.38364    635.71766     2177.999    20.256575    20.096341    20.381342           90           90           90 
  388500    221.47582   -163.30931   -135.51152   -163.30931            0     4911.379    20.306013    20.203691    20.115585            0            0            0    8252.5476    4190.6269     4447.611    6095.8991   -725.25595   -890.21677   -1999.8684    20.306013    20.203691    20.115585           90           90           90 
  389000    232.59872   -164.53755   -135.34371   -164.53755            0    3896.2789    20.052196     20.26403    20.170193            0            0            0     8195.922     6119.025     1767.547    3802.2645    179.57443   -802.04199    238.80011    20.052196     20.26403    20.170193           90           90           90 
  389500    222.65929   -162.94377   -134.99745   -162.94377            0    2619.0757    19.994642     20.20794    20.644661            0            0            0    8341.4862    4732.5041    1171.4767    1953.2463    -1748.502    1399.7172   -2223.8272    19.994642     20.20794    20.644661           90           90           90 
  390000    221.80421   -163.04411   -135.20511   -163.04411            0    5042.0754    19.974621    19.927902    20.743669            0            0            0    8257.0652    6450.2396    3398.6934    5277.2933     851.9086    337.55414    2042.0474    19.974621    19.927902    20.743669           90           90           90 
  390500    240.20818   -163.72787   -133.57896   -163.72787            0    1851.6162    20.195416    20.007461     20.61609            0            0            0    8330.1162    833.00118    2820.5385    1901.3089    189.68155    3432.1936    2148.2336    20.195416    20.007461     20.61609           90           90           90 
  391000    242.98775   -162.69772   -132.19994   -162.69772            0    5257.6788    20.223778    20.240096    20.309316            0            0            0    8313.2368    9556.3985   -465.51765    6682.1556    1710.1003    -1741.107    934.96115    20.223778    20.240096    20.309316           90           90           90 
  391500    248.86837   -161.27944   -130.04357   -161.27944            0    3019.9853    20.138554    20.284355    20.270673            0            0            0    8280.5205    2757.9623     3349.695    2952.2985    119.99755   -972.36824    580.79264    20.138554    20.284355    20.270673           90           90           90 
  392000    225.55835   -164.02932   -135.71913   -164.02932            0    2178.7153    20.127665     20.16639     20.46989            0            0            0    8308.7765    1449.6474    2294.3468    2792.1518    370.32599   -2012.9345     976.8096    20.127665     20.16639     20.46989           90           90           90 
  392500    227.22405   -163.79599   -135.27674   -163.79599            0     1637.188    20.151585    19.934092    20.553394            0            0            0    8256.3711    5289.6082    815.35799   -1193.4022    274.88485    -1781.656    1148.1792    20.151585    19.934092    20.553394           90           90           90 
  393000    236.76311   -162.61961   -132.90309   -162.61961            0    2233.3715    20.082059     20.10772    20.531206            0            0            0     8290.592    2098.7527    1616.7903    2984.5716    436.63889   -1551.4721   -957.35969    20.082059     20.10772    20.531206           90           90           90 
  393500    245.79306   -161.26003   -130.41015   -161.26003            0    3345.3365    20.088985    20.327533    20.479453            0            0            0    8362.9792    2852.9493     3752.899    3430.1612    371.12782     448.4527    2610.7437    20.088985    20.327533    20.479453           90           90           90 
  394000    232.76339   -163.15389   -133.93938   -163.15389            0    8513.2793    20.150803    20.133284    20.375158            0            0            0    8266.2387    7590.1554    8706.3241    9243.3583    470.00741   -151.11389   -318.56947    20.150803    20.133284    20.375158           90           90           90 
  394500    227.49686   -163.05357   -134.50007   -163.05357            0    2265.2206    20.324041    19.970099     20.55359            0            0            0    8342.1497    2384.7075    2076.3164     2334.638   -596.85975   -1241.2577    324.21527    20.324041    19.970099     20.55359           90           90           90 
  395000    242.78298   -163.70486   -133.23278   -163.70486            0     4100.211    20.138945    19.979558    20.620213            0            0            0     8296.898    4778.7212    4437.3815    3084.5302    865.71448   -1574.8456   -387.64959    20.138945    19.979558    20.620213           90           90           90 
  395500    230.97681   -163.75024   -134.75997   -163.75024            0    4705.0563    19.989472    20.172702    20.576162            0            0            0    8297.1655    8151.1242     3831.031    2133.0137   -1848.4751    1883.3239    -1472.462    19.989472    20.172702    20.576162           90           90           90 
  396000    225.62152   -162.87946   -134.56134   -162.87946            0    3322.3804    20.008514    20.192328    20.457771            0            0            0    8265.3174    5932.2569    1645.4762    2389.4079    7.1362061     460.1596   -1343.2729    20.008514    20.192328    20.457771           90           90           90 
  396500    225.61509   -163.85076   -135.53345   -163.85076            0    2749.4651    20.127741    20.129466    20.428289            0            0            0    8276.7393    1829.7797    2177.0287     4241.587   -201.89853    21.543181     209.4388    20.127741    20.129466    20.428289           90           90           90 
  397000    239.55202   -163.61161   -133.54506   -163.61161            0    5906.6331    20.248549    20.020888    20.462032            0            0            0    8295.1837    6564.0608     3993.943    7161.8956   -934.10477    588.39981    945.03715    20.248549    20.020888    20.462032           90           90           90 
  397500    235.86617   -162.83491   -133.23097   -162.83491            0    5179.6517    20.077586     19.95544    20.428255            0            0            0    8184.7244    5299.6272    6614.2673    3625.0605    1302.2373    307.32028    2506.0883    20.077586     19.95544    20.428255           90           90           90 
  398000    239.15038   -163.40008   -133.38393   -163.40008            0    4458.8459    20.077726    20.159481    20.570672            0            0            0    8326.1139    5675.4054    4642.9912    3058.1412     750.7229   -105.00852   -64.717264    20.077726    20.159481    20.570672           90           90           90 
  398500    241.25839   -162.91715   -132.63642   -162.91715            0     3704.283    20.138137     20.16682    20.511818            0            0            0    8330.3041    6833.6119     1491.005    2788.2322   -75.347264    1106.4543   -1667.8453    20.138137     20.16682    20.511818           90           90           90 
  399000     220.4492   -164.25623    -136.5873   -164.25623            0    4889.9246    20.214162    19.996903     20.30938            0            0            0    8209.4703    3056.3002    6984.9983    4628.4752   -396.96128   -1703.0994    1320.0524    20.214162    19.996903     20.30938           90           90           90 
  399500    224.50438   -162.30898   -134.13107   -162.30898            0    3225.6091     20.21796    20.154705    20.401865            0            0            0    8313.4952    2542.6993    3634.5271    3499.6008    260.51179    2824.0398   -2206.1386     20.21796    20.154705    20.401865           90           90           90 
  400000    233.09958   -164.42494   -135.16824   -164.42494            0    2366.1967    19.949661    20.298497    20.525928            0            0            0    8311.9365    3577.0368    822.66762    2698.8858   -18.843996    672.44851    1520.2343    19.949661    20.298497    20.525928           90           90           90 
Loop time of 2413.84 on 1 procs for 400000 steps with 972 atoms

Performance: 7.159 ns/day, 3.353 hours/ns, 165.711 timesteps/s
70.7% CPU use with 1 MPI tasks x 1 OpenMP threads

MPI task timing breakdown:
Section |  min time  |  avg time  |  max time  |%varavg| %total
---------------------------------------------------------------
Pair    | 2140.9     | 2140.9     | 2140.9     |   0.0 | 88.69
Bond    | 0.051467   | 0.051467   | 0.051467   |   0.0 |  0.00
Neigh   | 244.1      | 244.1      | 244.1      |   0.0 | 10.11
Comm    | 9.6509     | 9.6509     | 9.6509     |   0.0 |  0.40
Output  | 2.0023     | 2.0023     | 2.0023     |   0.0 |  0.08
Modify  | 15.713     | 15.713     | 15.713     |   0.0 |  0.65
Other   |            | 1.397      |            |       |  0.06

Nlocal:        972.000 ave         972 max         972 min
Histogram: 1 0 0 0 0 0 0 0 0 0
Nghost:        4600.00 ave        4600 max        4600 min
Histogram: 1 0 0 0 0 0 0 0 0 0
Neighs:         0.00000 ave           0 max           0 min
Histogram: 1 0 0 0 0 0 0 0 0 0
FullNghs:      244150.0 ave      244150 max      244150 min
Histogram: 1 0 0 0 0 0 0 0 0 0

Total # of neighbors = 244150
Ave neighs/atom = 251.18313
Ave special neighs/atom = 0.0000000
Neighbor list builds = 40000
Dangerous builds not checked

unfix		3
unfix		2

write_data	data.final.${pid}
write_data	data.final.0
System init for write_data ...

write_restart   restart.lmp.${pid}
write_restart   restart.lmp.0
System init for write_restart ...
Total wall time: 0:40:17
