LAMMPS data file via MDAnalysis

        3840  atoms
           0  bonds
           0  angles
           0  dihedrals
           0  impropers

           2  atom types
           0  bond types
           0  angle types
           0  dihedral types
           0  improper types

0.000000 52.789078 xlo xhi
0.000000 24.843569 ylo yhi
0.000000 22.886459 zlo zhi


Masses

1 15.999000
2 1.008000

Atoms

1 0 1 -1.179400 5.660915 22.244579 5.458735
2 0 2 0.589700 5.590858 23.180347 5.621027
3 0 2 0.589700 6.178065 21.913296 6.187923
4 0 1 -1.179400 2.154505 10.573028 13.276337
5 0 2 0.589700 2.076732 10.303491 14.185827
6 0 2 0.589700 2.319133 11.510218 13.317964
7 0 1 -1.179400 20.342388 13.673794 4.787290
8 0 2 0.589700 20.160734 13.726378 5.720202
9 0 2 0.589700 20.285221 12.744952 4.585166
10 0 1 -1.179400 0.794406 1.740503 2.824421
11 0 2 0.589700 -0.044712 1.560016 2.403582
12 0 2 0.589700 1.446896 1.578793 2.147134
13 0 1 -1.179400 -0.617437 2.489261 5.064858
14 0 2 0.589700 -0.083548 2.270324 4.305874
15 0 2 0.589700 -1.324372 3.028763 4.717031
16 0 1 -1.179400 50.959103 1.366772 1.997582
17 0 2 0.589700 50.575558 0.570993 1.640033
18 0 2 0.589700 50.363136 2.059880 1.724056
19 0 1 -1.179400 7.596868 11.964731 9.222402
20 0 2 0.589700 7.636260 11.944608 10.173071
21 0 2 0.589700 8.488070 11.758908 8.942684
22 0 1 -1.179400 -0.469972 4.117636 1.314803
23 0 2 0.589700 -0.917825 3.412980 0.854874
24 0 2 0.589700 -0.637574 4.891492 0.785780
25 0 1 -1.179400 1.420091 22.143486 21.900145
26 0 2 0.589700 1.380498 21.725298 21.046036
27 0 2 0.589700 2.026213 21.604021 22.402021
28 0 1 -1.179400 -0.504784 24.759388 5.367145
29 0 2 0.589700 -0.620323 0.661029 5.488558
30 0 2 0.589700 -1.136438 24.527521 4.690689
31 0 1 -1.179400 20.861223 2.556362 10.821980
32 0 2 0.589700 21.675962 2.461061 11.312315
33 0 2 0.589700 21.127419 2.954279 9.998859
34 0 1 -1.179400 6.627829 8.963192 16.986645
35 0 2 0.589700 7.213500 9.185590 17.705826
36 0 2 0.589700 5.933052 8.447003 17.389647
37 0 1 -1.179400 4.656413 3.547315 13.015177
38 0 2 0.589700 4.006052 4.205429 13.249754
39 0 2 0.589700 5.254001 3.521209 13.758144
40 0 1 -1.179400 14.858161 0.698450 10.562940
41 0 2 0.589700 15.451818 1.428824 10.406232
42 0 2 0.589700 15.095774 0.054208 9.903101
43 0 1 -1.179400 9.708245 24.007607 21.354324
44 0 2 0.589700 10.460000 24.438204 20.952000
45 0 2 0.589700 9.763423 24.244946 22.274347
46 0 1 -1.179400 16.260799 3.030090 10.300135
47 0 2 0.589700 16.712934 3.695965 10.810825
48 0 2 0.589700 15.706404 3.522088 9.700038
49 0 1 -1.179400 6.638611 20.920200 12.194962
50 0 2 0.589700 7.020474 20.897511 11.322584
51 0 2 0.589700 6.630075 20.010160 12.475205
52 0 1 -1.179400 21.408625 20.464102 13.150399
53 0 2 0.589700 20.997351 20.107922 12.368225
54 0 2 0.589700 22.154165 20.965019 12.825377
55 0 1 -1.179400 2.252083 18.598751 16.687323
56 0 2 0.589700 1.371353 18.745726 16.344807
57 0 2 0.589700 2.759821 19.344925 16.379417
58 0 1 -1.179400 11.127789 15.205743 3.872110
59 0 2 0.589700 10.988672 14.917087 2.975806
60 0 2 0.589700 11.816863 14.634037 4.203611
61 0 1 -1.179400 20.258768 22.779242 10.874789
62 0 2 0.589700 20.447250 22.133968 10.200435
63 0 2 0.589700 19.469761 22.453896 11.304422
64 0 1 -1.179400 9.480866 20.447458 13.649662
65 0 2 0.589700 9.293409 20.447041 14.582922
66 0 2 0.589700 8.739902 19.988522 13.259011
67 0 1 -1.179400 11.352970 10.047501 22.806236
68 0 2 0.589700 12.234372 10.134543 0.012265
69 0 2 0.589700 10.921653 9.412792 0.216711
70 0 1 -1.179400 0.647012 19.761932 1.648061
71 0 2 0.589700 0.930567 18.972734 2.099953
72 0 2 0.589700 1.275588 19.866476 0.937988
73 0 1 -1.179400 21.286358 2.834188 18.369038
74 0 2 0.589700 21.013290 2.002455 18.744688
75 0 2 0.589700 22.085947 2.629887 17.887383
76 0 1 -1.179400 17.414761 16.764046 2.300090
77 0 2 0.589700 17.675259 17.339102 3.013089
78 0 2 0.589700 17.705124 15.898877 2.573615
79 0 1 -1.179400 21.290995 0.509370 6.779535
80 0 2 0.589700 21.232731 1.294117 6.243507
81 0 2 0.589700 20.411888 0.133936 6.748699
82 0 1 -1.179400 17.569098 3.694517 3.544893
83 0 2 0.589700 17.803085 4.410780 4.127317
84 0 2 0.589700 17.823538 2.908651 4.019157
85 0 1 -1.179400 12.038623 9.948305 12.207573
86 0 2 0.589700 11.503497 10.732388 12.300471
87 0 2 0.589700 12.330169 9.962798 11.301222
88 0 1 -1.179400 12.550319 18.513918 17.420115
89 0 2 0.589700 13.288657 18.075518 17.001965
90 0 2 0.589700 12.858994 18.706699 18.300116
91 0 1 -1.179400 23.705061 2.666101 0.233453
92 0 2 0.589700 23.888422 3.600713 0.243834
93 0 2 0.589700 24.447495 2.273581 0.688350
94 0 1 -1.179400 13.331396 6.790504 11.028191
95 0 2 0.589700 13.028085 6.987967 10.147383
96 0 2 0.589700 12.567108 6.943340 11.580393
97 0 1 -1.179400 25.042719 4.539299 3.372041
98 0 2 0.589700 25.736376 4.340875 2.746959
99 0 2 0.589700 25.392769 5.256999 3.891801
100 0 1 -1.179400 6.113071 4.652510 5.590268
101 0 2 0.589700 5.604631 4.603281 6.395088
102 0 2 0.589700 5.629282 5.265526 5.043431
103 0 1 -1.179400 14.345393 0.807121 21.674780
104 0 2 0.589700 13.910233 1.655322 21.675100
105 0 2 0.589700 14.186220 0.457893 22.545906
106 0 1 -1.179400 13.728245 4.868507 15.827271
107 0 2 0.589700 13.509709 4.226526 16.495773
108 0 2 0.589700 14.612749 4.634319 15.548825
109 0 1 -1.179400 21.265629 2.845997 1.567149
110 0 2 0.589700 22.122534 2.680902 1.176512
111 0 2 0.589700 21.112278 2.095436 2.132703
112 0 1 -1.179400 15.491619 -0.009316 7.806383
113 0 2 0.589700 14.583891 0.257502 7.664742
114 0 2 0.589700 15.559642 24.177353 7.381012
115 0 1 -1.179400 24.017632 5.441848 0.510541
116 0 2 0.589700 23.097775 5.629702 0.694946
117 0 2 0.589700 24.498066 5.867453 1.215258
118 0 1 -1.179400 20.753939 11.147246 13.029590
119 0 2 0.589700 20.142860 11.766650 13.421252
120 0 2 0.589700 21.168560 10.715631 13.771017
121 0 1 -1.179400 30.114540 1.170345 4.184845
122 0 2 0.589700 29.440516 1.137350 3.509935
123 0 2 0.589700 30.941380 1.159086 3.705535
124 0 1 -1.179400 28.350382 1.138481 2.244553
125 0 2 0.589700 27.393290 1.125994 2.246135
126 0 2 0.589700 28.600704 0.306047 1.855040
127 0 1 -1.179400 31.539164 4.267963 3.284063
128 0 2 0.589700 31.978342 4.340993 2.441620
129 0 2 0.589700 31.752047 3.390510 3.587353
130 0 1 -1.179400 28.692034 4.323896 3.628528
131 0 2 0.589700 29.618692 4.531557 3.511223
132 0 2 0.589700 28.337862 4.293574 2.744906
133 0 1 -1.179400 26.575333 2.533095 4.851545
134 0 2 0.589700 27.261854 2.897613 4.297390
135 0 2 0.589700 25.799278 3.053950 4.653056
136 0 1 -1.179400 25.637442 1.127222 1.999502
137 0 2 0.589700 25.020456 1.280666 2.710752
138 0 2 0.589700 25.251875 0.410320 1.504058
139 0 1 -1.179400 30.111626 2.665847 0.550916
140 0 2 0.589700 30.145798 3.617317 0.530115
141 0 2 0.589700 29.316000 2.465884 1.040809
142 0 1 -1.179400 27.055340 4.159636 1.203053
143 0 2 0.589700 26.915176 4.894643 0.614194
144 0 2 0.589700 27.091492 3.398836 0.631780
145 0 1 -1.179400 30.164005 5.573102 0.400835
146 0 2 0.589700 30.893524 5.955671 0.883977
147 0 2 0.589700 30.266945 5.905001 22.669451
148 0 1 -1.179400 26.678005 24.873049 4.951518
149 0 2 0.589700 25.891970 24.539661 4.522664
150 0 2 0.589700 26.608738 0.783634 4.871716
151 0 1 -1.179400 36.359657 0.734573 4.058407
152 0 2 0.589700 35.659096 0.860081 3.422170
153 0 2 0.589700 37.159142 0.692559 3.536791
154 0 1 -1.179400 34.517715 1.104937 2.022514
155 0 2 0.589700 33.581848 0.913105 2.078382
156 0 2 0.589700 34.558216 2.030987 1.804262
157 0 1 -1.179400 37.655483 4.356679 3.555578
158 0 2 0.589700 38.068977 4.209405 2.709987
159 0 2 0.589700 38.139050 3.795397 4.155512
160 0 1 -1.179400 34.981514 4.064598 3.601480
161 0 2 0.589700 35.937042 4.100999 3.559226
162 0 2 0.589700 34.745029 4.718832 4.251832
163 0 1 -1.179400 32.894260 2.541290 4.771868
164 0 2 0.589700 33.599045 2.942033 4.267602
165 0 2 0.589700 33.008114 1.605463 4.636744
166 0 1 -1.179400 31.729069 0.973045 1.781780
167 0 2 0.589700 31.357662 1.769390 1.412994
168 0 2 0.589700 31.194378 0.272024 1.418057
169 0 1 -1.179400 36.750404 2.981037 0.594743
170 0 2 0.589700 36.585453 2.666310 22.866375
171 0 2 0.589700 36.603439 3.920711 0.544564
172 0 1 -1.179400 33.470192 4.214612 1.369874
173 0 2 0.589700 34.158802 4.414958 1.999842
174 0 2 0.589700 33.553406 4.890690 0.704761
175 0 1 -1.179400 36.281528 5.607499 0.384182
176 0 2 0.589700 37.007111 5.841125 0.959291
177 0 2 0.589700 36.365116 6.200772 22.799137
178 0 1 -1.179400 33.307709 24.908415 4.718421
179 0 2 0.589700 32.496895 24.492012 4.430948
180 0 2 0.589700 33.494282 24.510935 5.563119
181 0 1 -1.179400 42.752338 1.311424 4.020368
182 0 2 0.589700 42.783092 0.504394 4.524672
183 0 2 0.589700 42.070587 1.160296 3.369653
184 0 1 -1.179400 40.947258 1.226172 1.917163
185 0 2 0.589700 41.403221 1.852714 1.362059
186 0 2 0.589700 41.274467 0.377027 1.634751
187 0 1 -1.179400 44.243958 4.200469 3.393512
188 0 2 0.589700 44.646355 4.963301 3.799074
189 0 2 0.589700 44.587814 3.460773 3.885837
190 0 1 -1.179400 41.335918 4.371550 3.306469
191 0 2 0.589700 42.284595 4.266902 3.377673
192 0 2 0.589700 40.975159 3.609464 3.750352
193 0 1 -1.179400 39.828518 2.564184 4.632071
194 0 2 0.589700 39.628746 1.638377 4.733311
195 0 2 0.589700 39.679821 2.936095 5.495616
196 0 1 -1.179400 38.207512 1.201232 2.151339
197 0 2 0.589700 37.812435 1.861130 1.588746
198 0 2 0.589700 39.143391 1.245010 1.956549
199 0 1 -1.179400 42.707676 2.777809 0.392959
200 0 2 0.589700 42.884853 3.705334 0.517419
201 0 2 0.589700 43.467678 2.338364 0.769587
202 0 1 -1.179400 39.458412 4.450000 1.424357
203 0 2 0.589700 40.152763 4.498026 2.077651
204 0 2 0.589700 39.527832 5.269013 0.943698
205 0 1 -1.179400 42.752060 5.599526 0.599072
206 0 2 0.589700 42.025181 5.823164 1.176521
207 0 2 0.589700 43.521534 5.984156 1.014580
208 0 1 -1.179400 39.412975 24.727949 4.842544
209 0 2 0.589700 40.151749 24.250959 4.469799
210 0 2 0.589700 39.324123 24.378998 5.723623
211 0 1 -1.179400 48.858799 1.062165 4.115308
212 0 2 0.589700 49.597904 1.232673 3.535098
213 0 2 0.589700 49.222126 0.511501 4.802602
214 0 1 -1.179400 47.263023 0.951230 1.759055
215 0 2 0.589700 47.614204 1.006383 2.642657
216 0 2 0.589700 46.321995 1.090860 1.863088
217 0 1 -1.179400 50.748856 4.267142 3.543957
218 0 2 0.589700 49.864502 4.350053 3.189411
219 0 2 0.589700 -1.471291 4.255044 2.778724
220 0 1 -1.179400 47.667152 3.947646 3.672129
221 0 2 0.589700 47.375961 4.667618 4.223670
222 0 2 0.589700 47.129967 4.018526 2.887640
223 0 1 -1.179400 45.802429 2.359312 5.034057
224 0 2 0.589700 45.794815 1.407224 5.052935
225 0 2 0.589700 46.609295 2.582588 4.573255
226 0 1 -1.179400 44.436966 0.949996 1.929193
227 0 2 0.589700 43.917015 0.352363 1.398389
228 0 2 0.589700 43.908001 1.091980 2.709561
229 0 1 -1.179400 48.964256 2.835628 0.684970
230 0 2 0.589700 48.960281 2.468144 22.961746
231 0 2 0.589700 48.274807 2.361672 1.144817
232 0 1 -1.179400 46.171078 4.349366 1.534470
233 0 2 0.589700 45.451305 4.384227 2.160847
234 0 2 0.589700 45.956684 3.613456 0.969305
235 0 1 -1.179400 49.250107 5.514130 0.687474
236 0 2 0.589700 49.009590 4.594411 0.626334
237 0 2 0.589700 49.111893 5.855553 22.964489
238 0 1 -1.179400 45.884201 24.622341 4.879067
239 0 2 0.589700 45.904884 24.230989 5.746436
240 0 2 0.589700 45.166145 24.177448 4.433723
241 0 1 -1.179400 17.938450 4.959939 11.150705
242 0 2 0.589700 17.521563 5.749891 11.483403
243 0 2 0.589700 18.037481 5.117464 10.217306
244 0 1 -1.179400 12.949292 2.542089 3.214220
245 0 2 0.589700 13.841815 2.656866 2.890087
246 0 2 0.589700 12.846887 3.219301 3.875523
247 0 1 -1.179400 1.709731 5.943011 21.858791
248 0 2 0.589700 0.762311 5.884971 21.981281
249 0 2 0.589700 2.042568 6.251830 22.696018
250 0 1 -1.179400 12.949442 24.407619 4.539771
251 0 2 0.589700 12.163658 24.456467 3.998541
252 0 2 0.589700 13.576278 -0.049840 4.111801
253 0 1 -1.179400 3.099281 7.279913 16.443659
254 0 2 0.589700 2.551309 8.058349 16.382858
255 0 2 0.589700 3.681663 7.451156 17.179276
256 0 1 -1.179400 50.901855 7.227538 2.202146
257 0 2 0.589700 50.436188 6.490140 1.817058
258 0 2 0.589700 50.482681 7.355548 3.048106
259 0 1 -1.179400 2.561905 1.451917 0.688834
260 0 2 0.589700 3.456479 1.790260 0.672390
261 0 2 0.589700 2.566853 0.736385 0.060852
262 0 1 -1.179400 1.384426 17.941137 3.647398
263 0 2 0.589700 2.077205 18.597263 3.683631
264 0 2 0.589700 0.729541 18.244528 4.271749
265 0 1 -1.179400 6.285728 0.453742 2.435198
266 0 2 0.589700 5.429097 0.288399 2.826325
267 0 2 0.589700 6.847907 24.800930 2.781060
268 0 1 -1.179400 -0.759170 6.021800 5.498649
269 0 2 0.589700 -0.858616 6.963567 5.397858
270 0 2 0.589700 -1.299189 5.649742 4.806424
271 0 1 -1.179400 4.909126 15.161254 18.254848
272 0 2 0.589700 4.135798 15.536215 17.837595
273 0 2 0.589700 5.530367 15.883685 18.309200
274 0 1 -1.179400 3.257674 16.905514 7.636210
275 0 2 0.589700 3.952054 17.380852 7.185205
276 0 2 0.589700 2.735138 16.519684 6.938272
277 0 1 -1.179400 12.552656 24.214609 17.928541
278 0 2 0.589700 11.750301 23.828913 17.581081
279 0 2 0.589700 13.163808 24.206310 17.196144
280 0 1 -1.179400 2.263993 24.562012 5.865109
281 0 2 0.589700 1.341640 24.364943 5.704134
282 0 2 0.589700 2.678737 23.709974 5.968256
283 0 1 -1.179400 1.416795 12.278262 22.044775
284 0 2 0.589700 1.751770 13.043104 22.503643
285 0 2 0.589700 0.471070 12.304194 22.189232
286 0 1 -1.179400 3.928726 18.970345 3.688912
287 0 2 0.589700 4.209806 18.270643 3.106965
288 0 2 0.589700 4.327091 19.756250 3.325619
289 0 1 -1.179400 11.473886 9.970004 17.193268
290 0 2 0.589700 10.861137 10.169174 16.489761
291 0 2 0.589700 11.568595 9.022744 17.166670
292 0 1 -1.179400 7.618382 16.706476 21.774361
293 0 2 0.589700 6.674938 16.843786 21.690874
294 0 2 0.589700 7.739789 15.776270 21.610100
295 0 1 -1.179400 21.704765 7.836433 13.455818
296 0 2 0.589700 20.866144 8.146481 13.794138
297 0 2 0.589700 21.477125 7.089795 12.910165
298 0 1 -1.179400 2.612071 3.470679 6.478509
299 0 2 0.589700 3.286435 3.511017 7.152687
300 0 2 0.589700 1.906330 2.960412 6.870043
301 0 1 -1.179400 8.429284 18.765232 3.731562
302 0 2 0.589700 8.424071 18.670601 4.678524
303 0 2 0.589700 9.270332 18.400753 3.459967
304 0 1 -1.179400 -1.474209 14.850101 10.815218
305 0 2 0.589700 -1.509846 13.909060 10.673637
306 0 2 0.589700 51.071648 15.227336 9.975512
307 0 1 -1.179400 7.514834 15.471569 14.552080
308 0 2 0.589700 6.589929 15.442291 14.795357
309 0 2 0.589700 7.875764 14.651521 14.876618
310 0 1 -1.179400 21.536467 12.322159 1.675812
311 0 2 0.589700 21.637278 13.236915 1.920701
312 0 2 0.589700 22.331367 12.118053 1.186467
313 0 1 -1.179400 2.454272 7.984020 0.694304
314 0 2 0.589700 1.962278 7.655870 1.441884
315 0 2 0.589700 3.364071 8.000219 0.989561
316 0 1 -1.179400 1.996897 9.695228 7.456095
317 0 2 0.589700 2.152583 10.211915 8.240395
318 0 2 0.589700 1.810426 8.819063 7.779617
319 0 1 -1.179400 22.155474 12.364019 7.759416
320 0 2 0.589700 22.782993 12.157819 7.070963
321 0 2 0.589700 22.042599 11.545337 8.232431
322 0 1 -1.179400 18.712557 1.282040 4.055391
323 0 2 0.589700 18.337845 1.091937 3.200513
324 0 2 0.589700 19.630753 1.023684 3.980531
325 0 1 -1.179400 15.333675 20.131802 1.250317
326 0 2 0.589700 14.609394 19.603598 0.920949
327 0 2 0.589700 15.346044 19.960964 2.186484
328 0 1 -1.179400 9.361855 17.769676 19.817760
329 0 2 0.589700 10.209855 17.524073 20.184614
330 0 2 0.589700 8.740431 17.635490 20.529078
331 0 1 -1.179400 19.152601 14.878836 -0.046151
332 0 2 0.589700 19.490259 15.427748 22.407103
333 0 2 0.589700 18.256128 15.183805 0.089305
334 0 1 -1.179400 23.051247 5.769778 6.735530
335 0 2 0.589700 23.316227 5.828034 5.822891
336 0 2 0.589700 23.688314 6.306277 7.201400
337 0 1 -1.179400 24.949900 10.449248 3.387976
338 0 2 0.589700 25.320791 11.194997 3.850907
339 0 2 0.589700 25.171274 9.698305 3.930267
340 0 1 -1.179400 1.170656 21.803379 8.930905
341 0 2 0.589700 0.783126 21.313913 9.650616
342 0 2 0.589700 1.949444 21.304449 8.691065
343 0 1 -1.179400 16.027697 22.816570 10.190081
344 0 2 0.589700 15.808152 22.837280 9.263996
345 0 2 0.589700 16.722088 23.464792 10.287024
346 0 1 -1.179400 9.398191 9.542190 5.434029
347 0 2 0.589700 10.096996 9.959205 4.934741
348 0 2 0.589700 9.019027 8.906525 4.833992
349 0 1 -1.179400 20.646051 7.144539 7.279395
350 0 2 0.589700 21.422073 6.644290 7.033504
351 0 2 0.589700 20.559383 7.802116 6.596433
352 0 1 -1.179400 15.810380 13.345169 4.629781
353 0 2 0.589700 16.287565 12.523852 4.712985
354 0 2 0.589700 15.767756 13.687478 5.516849
355 0 1 -1.179400 18.653381 1.981670 9.450969
356 0 2 0.589700 19.356981 2.404851 9.938275
357 0 2 0.589700 17.849623 2.355691 9.807842
358 0 1 -1.179400 15.971843 10.918988 7.468790
359 0 2 0.589700 15.874930 10.583062 8.354072
360 0 2 0.589700 15.758957 11.844699 7.540060
361 0 1 -1.179400 30.146757 7.281831 4.156836
362 0 2 0.589700 29.923037 7.951985 4.795355
363 0 2 0.589700 29.473160 7.360632 3.485295
364 0 1 -1.179400 28.587896 7.353773 1.829915
365 0 2 0.589700 28.923532 6.714852 1.208097
366 0 2 0.589700 27.651781 7.408790 1.639138
367 0 1 -1.179400 31.498199 10.320277 3.307710
368 0 2 0.589700 32.033012 9.628799 3.689070
369 0 2 0.589700 31.791777 10.374535 2.403516
370 0 1 -1.179400 28.610098 10.450247 3.425725
371 0 2 0.589700 29.562126 10.359521 3.464309
372 0 2 0.589700 28.431446 10.719471 2.530310
373 0 1 -1.179400 26.796206 8.893535 5.013200
374 0 2 0.589700 26.846027 7.954340 4.863817
375 0 2 0.589700 27.513533 9.255466 4.497243
376 0 1 -1.179400 25.447725 7.525211 1.814739
377 0 2 0.589700 25.105736 7.518851 2.703585
378 0 2 0.589700 24.867275 8.117063 1.342715
379 0 1 -1.179400 30.125977 9.076469 0.483481
380 0 2 0.589700 29.425314 8.589429 0.911839
381 0 2 0.589700 30.924965 8.794864 0.925559
382 0 1 -1.179400 26.954212 10.508751 1.200495
383 0 2 0.589700 26.163322 10.436001 1.731596
384 0 2 0.589700 26.883837 9.797104 0.571980
385 0 1 -1.179400 29.997736 11.913479 0.253799
386 0 2 0.589700 29.279270 12.309010 0.742854
387 0 2 0.589700 29.876451 10.976090 0.370481
388 0 1 -1.179400 26.978096 6.136903 4.718876
389 0 2 0.589700 27.679649 5.571953 4.402010
390 0 2 0.589700 26.849642 5.872977 5.624321
391 0 1 -1.179400 36.215889 7.668087 4.045963
392 0 2 0.589700 36.222458 6.850161 4.533335
393 0 2 0.589700 36.059837 8.337773 4.704553
394 0 1 -1.179400 34.736759 7.634767 1.717002
395 0 2 0.589700 35.220486 7.532788 2.531867
396 0 2 0.589700 34.941120 6.848423 1.220123
397 0 1 -1.179400 37.582153 10.392507 3.495176
398 0 2 0.589700 37.961720 11.182646 3.869044
399 0 2 0.589700 36.647861 10.585008 3.419181
400 0 1 -1.179400 34.774933 10.383677 3.222904
401 0 2 0.589700 34.413750 9.669564 3.740062
402 0 2 0.589700 34.551708 11.169212 3.712991
403 0 1 -1.179400 33.222801 8.636864 4.731326
404 0 2 0.589700 32.952465 9.001009 5.568603
405 0 2 0.589700 33.123764 7.695627 4.837332
406 0 1 -1.179400 31.719954 7.267052 1.838429
407 0 2 0.589700 32.655304 7.467887 1.861858
408 0 2 0.589700 31.429018 7.370925 2.739128
409 0 1 -1.179400 36.690708 9.195526 0.586549
410 0 2 0.589700 36.014809 8.846517 1.163127
411 0 2 0.589700 36.557762 10.138343 0.608603
412 0 1 -1.179400 33.246536 10.559239 1.010017
413 0 2 0.589700 33.837524 10.529191 1.758036
414 0 2 0.589700 33.456730 9.775875 0.510847
415 0 1 -1.179400 36.615360 11.953868 0.430893
416 0 2 0.589700 35.727932 12.295398 0.534314
417 0 2 0.589700 37.181667 12.640751 0.773639
418 0 1 -1.179400 33.045162 5.900755 4.940730
419 0 2 0.589700 32.962547 5.322395 5.692326
420 0 2 0.589700 32.565395 5.457986 4.246197
421 0 1 -1.179400 42.798252 7.351665 3.994277
422 0 2 0.589700 42.612011 8.009404 4.657121
423 0 2 0.589700 42.087952 7.443859 3.363040
424 0 1 -1.179400 41.127628 7.290146 1.981493
425 0 2 0.589700 40.179253 7.372983 2.080077
426 0 2 0.589700 41.344414 7.867023 1.255618
427 0 1 -1.179400 44.114071 10.548688 3.439044
428 0 2 0.589700 44.522804 11.272232 3.905647
429 0 2 0.589700 44.483902 10.593696 2.562419
430 0 1 -1.179400 41.188511 10.681298 3.374462
431 0 2 0.589700 40.847485 9.991822 3.936583
432 0 2 0.589700 42.128120 10.507654 3.321306
433 0 1 -1.179400 39.357422 8.824459 4.969444
434 0 2 0.589700 39.317112 7.885654 4.814875
435 0 2 0.589700 38.642654 9.183047 4.447674
436 0 1 -1.179400 38.277496 7.236377 2.094981
437 0 2 0.589700 37.759048 7.410044 2.875925
438 0 2 0.589700 38.050713 7.943198 1.498393
439 0 1 -1.179400 42.665222 9.278665 0.279734
440 0 2 0.589700 42.387028 9.003165 22.566490
441 0 2 0.589700 42.623596 10.229697 0.253071
442 0 1 -1.179400 39.370808 10.867626 1.329379
443 0 2 0.589700 38.518406 10.745489 1.744745
444 0 2 0.589700 39.998020 10.842900 2.047853
445 0 1 -1.179400 42.550659 11.960644 0.754294
446 0 2 0.589700 42.623051 12.541123 0.003290
447 0 2 0.589700 43.252552 12.239070 1.338473
448 0 1 -1.179400 39.362286 6.011300 4.731894
449 0 2 0.589700 40.115189 5.753319 4.203823
450 0 2 0.589700 38.601677 5.785407 4.200072
451 0 1 -1.179400 49.369446 7.247812 4.449154
452 0 2 0.589700 48.982166 7.935288 4.983412
453 0 2 0.589700 48.736439 7.108994 3.748905
454 0 1 -1.179400 47.419048 7.218750 2.477693
455 0 2 0.589700 46.471752 7.330210 2.556398
456 0 2 0.589700 47.523975 6.477506 1.889393
457 0 1 -1.179400 50.581081 10.475952 3.640929
458 0 2 0.589700 50.957039 9.733090 4.104457
459 0 2 0.589700 51.017719 10.471639 2.794040
460 0 1 -1.179400 47.607285 10.470506 3.279017
461 0 2 0.589700 47.350227 11.051033 3.988815
462 0 2 0.589700 48.560337 10.413779 3.346642
463 0 1 -1.179400 45.776627 8.812201 4.868906
464 0 2 0.589700 45.102661 9.288275 4.388988
465 0 2 0.589700 46.603527 9.142561 4.521391
466 0 1 -1.179400 44.654530 7.514493 1.795948
467 0 2 0.589700 44.266808 8.051377 1.110945
468 0 2 0.589700 44.002956 7.515851 2.493094
469 0 1 -1.179400 48.919346 8.975416 0.649345
470 0 2 0.589700 48.103920 8.713682 1.073586
471 0 2 0.589700 49.607300 8.563873 1.167700
472 0 1 -1.179400 45.651611 10.723831 1.068483
473 0 2 0.589700 45.611435 9.898745 0.594953
474 0 2 0.589700 46.286556 10.569294 1.763689
475 0 1 -1.179400 48.806061 11.637221 0.619316
476 0 2 0.589700 49.017200 10.708380 0.615745
477 0 2 0.589700 48.191185 11.740883 1.341277
478 0 1 -1.179400 45.801979 5.873248 4.770855
479 0 2 0.589700 45.407246 5.524764 5.564825
480 0 2 0.589700 45.547314 6.791189 4.762062
481 0 1 -1.179400 -0.639826 10.450014 18.760120
482 0 2 0.589700 0.311404 10.552055 18.731504
483 0 2 0.589700 -0.845854 9.910337 18.003237
484 0 1 -1.179400 6.497723 14.342410 7.902169
485 0 2 0.589700 6.880517 13.600753 8.362076
486 0 2 0.589700 6.536924 14.098343 6.983093
487 0 1 -1.179400 14.946246 20.561337 16.201921
488 0 2 0.589700 15.317959 20.169588 15.417161
489 0 2 0.589700 14.002681 20.575089 16.042604
490 0 1 -1.179400 3.922188 9.063178 5.654582
491 0 2 0.589700 4.499382 9.812600 5.530243
492 0 2 0.589700 3.345716 9.318165 6.370301
493 0 1 -1.179400 -0.825829 14.976796 4.782402
494 0 2 0.589700 -0.809987 15.568096 5.528244
495 0 2 0.589700 -0.952533 14.113584 5.164067
496 0 1 -1.179400 50.393166 13.726793 1.999992
497 0 2 0.589700 50.005402 14.557633 1.739864
498 0 2 0.589700 50.014740 13.090319 1.400352
499 0 1 -1.179400 0.564580 13.541183 2.217501
500 0 2 0.589700 -0.381753 13.645770 2.314845
501 0 2 0.589700 0.874991 13.331422 3.093009
502 0 1 -1.179400 2.176503 24.189077 18.354494
503 0 2 0.589700 3.011251 24.654911 18.342136
504 0 2 0.589700 1.535991 24.844194 18.621933
505 0 1 -1.179400 1.740657 12.345325 4.469667
506 0 2 0.589700 1.620839 11.481242 4.087768
507 0 2 0.589700 2.425166 12.224973 5.123920
508 0 1 -1.179400 -0.794560 12.175546 5.275174
509 0 2 0.589700 -1.289571 11.656724 4.646964
510 0 2 0.589700 0.101690 12.172415 4.941079
511 0 1 -1.179400 10.294704 13.294738 6.341510
512 0 2 0.589700 10.375409 12.684662 7.067843
513 0 2 0.589700 11.174352 13.654439 6.233987
514 0 1 -1.179400 18.842363 0.533829 13.261260
515 0 2 0.589700 19.398060 0.039982 12.663871
516 0 2 0.589700 17.952234 0.248590 13.058331
517 0 1 -1.179400 9.065014 2.479328 18.311275
518 0 2 0.589700 9.765735 2.853338 18.841002
519 0 2 0.589700 8.790689 1.702354 18.789198
520 0 1 -1.179400 21.925858 14.508062 13.991866
521 0 2 0.589700 21.857635 15.277967 14.547858
522 0 2 0.589700 22.407936 13.875177 14.517172
523 0 1 -1.179400 5.359755 18.155872 15.540321
524 0 2 0.589700 5.599673 18.386406 16.432360
525 0 2 0.589700 4.829383 18.888496 15.237685
526 0 1 -1.179400 16.377104 18.647894 18.360970
527 0 2 0.589700 16.008390 18.851971 17.506733
528 0 2 0.589700 15.614454 18.516815 18.920938
529 0 1 -1.179400 19.449205 8.961789 14.738194
530 0 2 0.589700 18.613258 9.424866 14.711204
531 0 2 0.589700 19.622290 8.834182 15.665464
532 0 1 -1.179400 9.789721 24.484741 5.286526
533 0 2 0.589700 9.379400 24.288517 4.449378
534 0 2 0.589700 10.303947 23.707893 5.490468
535 0 1 -1.179400 5.571605 24.548616 13.250668
536 0 2 0.589700 6.124760 24.482939 14.024568
537 0 2 0.589700 6.068553 24.105303 12.568536
538 0 1 -1.179400 11.166162 1.425609 16.748878
539 0 2 0.589700 11.573059 0.660714 17.146034
540 0 2 0.589700 10.397548 1.598936 17.288963
541 0 1 -1.179400 17.766747 8.273830 18.469658
542 0 2 0.589700 17.307358 8.301943 17.635216
543 0 2 0.589700 18.689787 8.179067 18.236248
544 0 1 -1.179400 13.871296 15.891191 22.828424
545 0 2 0.589700 14.738944 15.666511 22.495131
546 0 2 0.589700 13.988948 15.953052 0.616127
547 0 1 -1.179400 18.224661 24.641428 10.415183
548 0 2 0.589700 18.353191 0.467537 10.031323
549 0 2 0.589700 19.081848 24.222548 10.351094
550 0 1 -1.179400 16.244049 16.111572 8.843790
551 0 2 0.589700 16.914558 16.047520 9.519935
552 0 2 0.589700 15.797557 16.934504 9.023513
553 0 1 -1.179400 12.770337 7.255875 8.505197
554 0 2 0.589700 13.197475 7.827633 7.873639
555 0 2 0.589700 12.209599 6.691264 7.979359
556 0 1 -1.179400 6.872063 16.343002 4.185367
557 0 2 0.589700 7.103446 16.180035 3.276379
558 0 2 0.589700 7.670163 16.698587 4.572345
559 0 1 -1.179400 20.779266 8.552585 2.327370
560 0 2 0.589700 19.881496 8.879711 2.372749
561 0 2 0.589700 21.270788 9.109798 2.924693
562 0 1 -1.179400 14.712044 11.839723 21.214663
563 0 2 0.589700 14.936430 11.084522 20.679544
564 0 2 0.589700 15.546540 12.282743 21.360525
565 0 1 -1.179400 13.334169 13.111970 9.231658
566 0 2 0.589700 14.075873 13.421886 9.747362
567 0 2 0.589700 13.230187 12.200253 9.486362
568 0 1 -1.179400 2.871041 21.865917 5.890383
569 0 2 0.589700 2.446907 21.810368 5.039035
570 0 2 0.589700 3.807868 21.834085 5.697802
571 0 1 -1.179400 23.726366 15.780136 6.437598
572 0 2 0.589700 24.059160 16.658041 6.274788
573 0 2 0.589700 23.274197 15.846087 7.273806
574 0 1 -1.179400 22.180050 22.481712 20.168350
575 0 2 0.589700 23.111931 22.689278 20.233234
576 0 2 0.589700 21.861086 22.523209 21.064684
577 0 1 -1.179400 24.915110 16.927389 3.184025
578 0 2 0.589700 25.110023 16.292110 3.866005
579 0 2 0.589700 23.965221 17.038172 3.222497
580 0 1 -1.179400 13.553258 17.552412 11.003331
581 0 2 0.589700 12.954196 18.294605 11.031638
582 0 2 0.589700 13.021990 16.834362 10.669019
583 0 1 -1.179400 3.819963 12.308074 2.224364
584 0 2 0.589700 3.109549 11.685651 2.083349
585 0 2 0.589700 3.526665 12.838007 2.959352
586 0 1 -1.179400 8.927767 8.264680 10.574777
587 0 2 0.589700 8.013384 8.413852 10.336135
588 0 2 0.589700 9.419668 8.452249 9.780187
589 0 1 -1.179400 23.708199 15.795125 0.189202
590 0 2 0.589700 23.598070 15.257237 22.566273
591 0 2 0.589700 24.079454 15.203942 0.837595
592 0 1 -1.179400 21.177752 22.050728 22.892601
593 0 2 0.589700 20.919827 22.952927 -0.097703
594 0 2 0.589700 22.068846 21.988482 0.079718
595 0 1 -1.179400 8.691958 19.289635 22.938793
596 0 2 0.589700 8.905150 18.366238 22.842739
597 0 2 0.589700 7.913162 19.300270 0.337231
598 0 1 -1.179400 5.682257 24.929991 6.075603
599 0 2 0.589700 6.134576 0.653817 5.719121
600 0 2 0.589700 5.076494 0.254017 6.718724
601 0 1 -1.179400 30.029409 13.427996 3.857333
602 0 2 0.589700 29.989292 14.229581 4.369595
603 0 2 0.589700 29.978052 12.729299 4.501970
604 0 1 -1.179400 28.339586 13.509348 1.765908
605 0 2 0.589700 28.613935 14.255174 1.240772
606 0 2 0.589700 28.959969 13.489348 2.490363
607 0 1 -1.179400 31.490128 16.561422 3.304863
608 0 2 0.589700 31.972235 15.913283 3.811224
609 0 2 0.589700 31.923145 16.567129 2.456147
610 0 1 -1.179400 28.524466 16.421404 3.673955
611 0 2 0.589700 29.447800 16.591578 3.489597
612 0 2 0.589700 28.142126 17.284079 3.807949
613 0 1 -1.179400 26.514530 14.800810 4.618100
614 0 2 0.589700 26.657207 13.859629 4.648322
615 0 2 0.589700 27.343332 15.156579 4.301491
616 0 1 -1.179400 24.572340 13.980439 2.380389
617 0 2 0.589700 23.984648 13.953581 3.131093
618 0 2 0.589700 25.439695 14.129107 2.754464
619 0 1 -1.179400 29.842342 15.537999 0.448945
620 0 2 0.589700 29.998354 16.472088 0.347655
621 0 2 0.589700 30.692944 15.181295 0.700712
622 0 1 -1.179400 26.944889 16.585360 1.128097
623 0 2 0.589700 26.190306 16.907856 1.616929
624 0 2 0.589700 27.613045 16.423214 1.790004
625 0 1 -1.179400 30.093109 18.245157 0.465389
626 0 2 0.589700 30.893059 18.654634 0.790432
627 0 2 0.589700 29.408102 18.541521 1.060473
628 0 1 -1.179400 26.941582 12.193027 4.811955
629 0 2 0.589700 27.035730 11.753342 5.650928
630 0 2 0.589700 27.519175 11.711468 4.225172
631 0 1 -1.179400 36.450352 13.333717 3.858231
632 0 2 0.589700 36.280552 14.016274 4.500045
633 0 2 0.589700 35.779915 13.463295 3.191453
634 0 1 -1.179400 34.684402 13.654896 1.793914
635 0 2 0.589700 34.886044 14.368123 1.196015
636 0 2 0.589700 33.771648 13.799322 2.041462
637 0 1 -1.179400 37.676125 16.893667 3.307425
638 0 2 0.589700 37.989811 16.158295 3.825467
639 0 2 0.589700 38.209396 17.630487 3.594445
640 0 1 -1.179400 34.886688 17.000647 3.450598
641 0 2 0.589700 35.840424 17.034805 3.377574
642 0 2 0.589700 34.701836 16.119757 3.762001
643 0 1 -1.179400 33.354088 14.792164 4.523768
644 0 2 0.589700 33.443970 13.885098 4.799489
645 0 2 0.589700 33.499817 15.298462 5.316680
646 0 1 -1.179400 31.855047 13.523094 1.617995
647 0 2 0.589700 31.319727 12.840338 1.221928