LAMMPS (29 Sep 2021 - Update 2)
echo both

include		in.partitions
variable        pid world 0
include		in.temp
variable	temperature equal 230.0
variable	tempDamp equal 100.0
include		in.pressure
variable        pressure equal 1973.846
variable        pressureDamp equal 1.0 # This is 1 ps
include		in.seed
variable        seed world 745823

units           metal
atom_style	full
include		in.box
read_data       iceIII.data
Reading data file ...
  orthogonal box = (0.0000000 0.0000000 0.0000000) to (19.991053 19.991053 20.800772)
  1 by 1 by 1 MPI processor grid
  reading atoms ...
  972 atoms
Finding 1-2 1-3 1-4 neighbors ...
  special bond factors lj:    0        0        0       
  special bond factors coul:  0        0        0       
     0 = max # of 1-2 neighbors
     0 = max # of 1-3 neighbors
     0 = max # of 1-4 neighbors
     1 = max # of special neighbors
  special bonds CPU = 0.000 seconds
  read_data CPU = 0.006 seconds
include 	in.setup
variable	out_freq equal 500
variable	out_freq2 equal 500

timestep        0.0005

neigh_modify    delay 7 every 1

include         in.deepmd
# This is deepMD model

# create groups ###
#group ox type 2
#group hy type 1

mass 2 15.999
mass 1 1.008

pair_style      deepmd graph.pb
Summary of lammps deepmd module ...
  >>> Info of deepmd-kit:
  installed to:       /home/sbore/software/deepmd-kit
  source:             v2.1.1
  source branch:       master
  source commit:      c4f0cec
  source commit at:   2022-04-16 11:11:16 +0800
  surpport model ver.:1.1 
  build float prec:   double
  build with tf inc:  /home/sbore/software/lmp_deepmd_tensorflow/tensorflow/install/include;/home/sbore/software/lmp_deepmd_tensorflow/tensorflow/install/include
  build with tf lib:  /home/sbore/software/lmp_deepmd_tensorflow/tensorflow/install/lib/libtensorflow_cc.so;/home/sbore/software/lmp_deepmd_tensorflow/tensorflow/install/lib/libtensorflow_framework.so
  set tf intra_op_parallelism_threads: 2
  set tf inter_op_parallelism_threads: 2
  >>> Info of lammps module:
  use deepmd-kit at:  /home/sbore/software/deepmd-kit
  source:             v2.1.1
  source branch:      master
  source commit:      c4f0cec
  source commit at:   2022-04-16 11:11:16 +0800
  build float prec:   double
  build with tf inc:  /home/sbore/software/lmp_deepmd_tensorflow/tensorflow/install/include;/home/sbore/software/lmp_deepmd_tensorflow/tensorflow/install/include
  build with tf lib:  /home/sbore/software/lmp_deepmd_tensorflow/tensorflow/install/lib/libtensorflow_cc.so;/home/sbore/software/lmp_deepmd_tensorflow/tensorflow/install/lib/libtensorflow_framework.so
pair_coeff      * *

bond_style      none
angle_style     none
dihedral_style  none
improper_style  none
neigh_modify exclude none


neighbor        2.0 bin
neigh_modify    every 10 delay 0 check no

thermo          ${out_freq}
thermo          500
thermo_style 	custom step temp pe etotal epair emol press lx ly lz xy xz yz vol pxx pyy pzz pxy pxz pyz cella cellb cellc cellalpha cellbeta cellgamma


restart 	${out_freq} restart.lmp.${pid} restart2.lmp.${pid}
restart 	500 restart.lmp.${pid} restart2.lmp.${pid}
restart 	500 restart.lmp.0 restart2.lmp.${pid}
restart 	500 restart.lmp.0 restart2.lmp.0


include         in.dump
dump            myDump all atom ${out_freq2} dump.water.${pid}
dump            myDump all atom 500 dump.water.${pid}
dump            myDump all atom 500 dump.water.0
dump            myDump2 all dcd ${out_freq2} dump.dcd
dump            myDump2 all dcd 500 dump.dcd
dump_modify     myDump append yes
dump_modify     myDump2 append yes


#timer           timeout 00:55:00 every 1000

fix             2 all nph aniso ${pressure} ${pressure} ${pressureDamp}
fix             2 all nph aniso 1973.846 ${pressure} ${pressureDamp}
fix             2 all nph aniso 1973.846 1973.846 ${pressureDamp}
fix             2 all nph aniso 1973.846 1973.846 1
fix             3 all temp/csvr ${temperature} ${temperature} ${tempDamp} ${seed}
fix             3 all temp/csvr 230 ${temperature} ${tempDamp} ${seed}
fix             3 all temp/csvr 230 230 ${tempDamp} ${seed}
fix             3 all temp/csvr 230 230 100 ${seed}
fix             3 all temp/csvr 230 230 100 745823
velocity 	all create ${temperature} ${seed} dist gaussian
velocity 	all create 230 ${seed} dist gaussian
velocity 	all create 230 745823 dist gaussian

run             400000

CITE-CITE-CITE-CITE-CITE-CITE-CITE-CITE-CITE-CITE-CITE-CITE-CITE

Your simulation uses code contributions which should be cited:

- USER-DEEPMD package:

@article{Wang_ComputPhysCommun_2018_v228_p178,
  author = {Wang, Han and Zhang, Linfeng and Han, Jiequn and E, Weinan},
  doi = {10.1016/j.cpc.2018.03.016},
  url = {https://doi.org/10.1016/j.cpc.2018.03.016},
  year = 2018,
  month = {jul},
  publisher = {Elsevier {BV}},
  volume = 228,
  journal = {Comput. Phys. Commun.},
  title = {{DeePMD-kit: A deep learning package for many-body potential energy representation and molecular dynamics}},
  pages = {178--184}
}

CITE-CITE-CITE-CITE-CITE-CITE-CITE-CITE-CITE-CITE-CITE-CITE-CITE

Neighbor list info ...
  update every 10 steps, delay 0 steps, check no
  max neighbors/atom: 2000, page size: 100000
  master list distance cutoff = 8
  ghost atom cutoff = 8
  binsize = 4, bins = 5 5 6
  1 neighbor lists, perpetual/occasional/extra = 1 0 0
  (1) pair deepmd, perpetual
      attributes: full, newton on
      pair build: full/bin
      stencil: full/bin/3d
      bin: standard
Per MPI rank memory allocation (min/avg/max) = 7.648 | 7.648 | 7.648 Mbytes
Step Temp PotEng TotEng E_pair E_mol Press Lx Ly Lz Xy Xz Yz Volume Pxx Pyy Pzz Pxy Pxz Pyz Cella Cellb Cellc CellAlpha CellBeta CellGamma 
       0          230   -175.65013   -146.78246   -175.65013            0    37227.681    19.991053    19.991053    20.800772            0            0            0    8312.8663    41022.312    41425.324    29235.407   -62.555205   -1048.3455   -438.88036    19.991053    19.991053    20.800772           90           90           90 
     500    195.47352   -171.28059   -146.74639   -171.28059            0   -1517.0683    20.123269    20.033482    20.567363            0            0            0    8291.5091   -1475.8149   -763.50805   -2311.8821   -193.51139   -740.31416   -949.70005    20.123269    20.033482    20.567363           90           90           90 
    1000    197.47247   -171.42295   -146.63787   -171.42295            0    904.14149    20.174148    20.090848    20.252816            0            0            0    8208.7853   -627.28398    3231.9031    107.80532   -241.27544   -520.47396   -777.65133    20.174148    20.090848    20.252816           90           90           90 
    1500    183.32206   -169.76428   -146.75523   -169.76428            0     7667.858    20.190037    20.146261    20.245489            0            0            0    8234.9288    4637.4451    10201.016    8165.1131    1092.2676   -2513.7961    1141.8855    20.190037    20.146261    20.245489           90           90           90 
    2000    176.68033   -168.91067   -146.73524   -168.91067            0   -5330.9196    20.175883    20.114742     20.37466            0            0            0     8268.703   -3040.3153   -4900.4846   -8051.9588    85.524378    1034.1984    111.63865    20.175883    20.114742     20.37466           90           90           90 
    2500    180.85488   -169.34249   -146.64311   -169.34249            0     1576.602    20.013188    20.118511    20.454424            0            0            0    8235.6781   -2271.9369    3109.1314    3892.6117    1459.7203    3339.3363   -1129.7921    20.013188    20.118511    20.454424           90           90           90 
    3000    183.75629   -169.72928   -146.66573   -169.72928            0    2201.7503    20.013334    20.117944    20.559228            0            0            0    8277.7028   -272.28961    5620.8684    1256.6722   -1134.4523   -655.70798   -1757.4988    20.013334    20.117944    20.559228           90           90           90 
    3500    182.03279    -169.4938   -146.64657    -169.4938            0     836.2235    20.230877    20.026188     20.40226            0            0            0    8265.9213   -2844.4126    4392.2631    960.82002    1425.8059    1294.9081    1225.5752    20.230877    20.026188     20.40226           90           90           90 
    4000    183.08759   -169.56925   -146.58964   -169.56925            0    2541.0153    20.275455    20.040073    20.308486            0            0            0    8251.7766    1690.8814     1581.495    4350.6695    1.3146043   -474.58494    362.77238    20.275455    20.040073    20.308486           90           90           90 
    4500    181.53424   -169.40765   -146.62299   -169.40765            0    2770.1865    20.117041    20.127319    20.389418            0            0            0    8255.7184    3296.6883    2853.7603    2160.1109     1439.629    -3227.585    1411.7124    20.117041    20.127319    20.389418           90           90           90 
    5000    189.36461    -170.4033   -146.63585    -170.4033            0    3089.1072    20.007427    20.140181    20.550239            0            0            0    8280.7843    8610.5632   -1463.2205    2119.9789   -638.23773    582.99071    872.71423    20.007427    20.140181    20.550239           90           90           90 
    5500    189.41429    -170.4414   -146.66771    -170.4414            0    4953.4665    20.036004    20.067164    20.563329            0            0            0    8267.8106    6964.5594    4893.4863    3002.3537   -7.8668588    1001.7902    950.50592    20.036004    20.067164    20.563329           90           90           90 
    6000    190.00708   -170.55326   -146.70516   -170.55326            0   -739.65572    20.142554    20.123204    20.489135            0            0            0    8304.9169   -421.84311   -979.81685   -817.30719    923.92745    178.01038   -510.81845    20.142554    20.123204    20.489135           90           90           90 
    6500    189.04329   -170.31598   -146.58885   -170.31598            0    2450.9135     20.17774    20.101678    20.223587            0            0            0    8202.8169    4678.6119   -242.11286    2916.2414   -1392.7926    682.63706    963.70977     20.17774    20.101678    20.223587           90           90           90 
    7000     182.2849    -169.3556   -146.47673    -169.3556            0    4389.0639    20.258567    20.140565    20.148122            0            0            0    8220.8163    1116.9862    4659.8239    7390.3815    40.319678   -1090.8506   -2107.5926    20.258567    20.140565    20.148122           90           90           90 
    7500    185.88155   -169.90625   -146.57595   -169.90625            0    2157.9853    20.206319    20.164137    20.397718            0            0            0     8310.907    2485.4302    1701.7902    2286.7356   -958.13755   -2554.2009    61.834237    20.206319    20.164137    20.397718           90           90           90 
    8000      186.115   -169.96685   -146.60726   -169.96685            0    -423.0435    19.979549    20.102006    20.805648            0            0            0    8356.1522    4126.1026    -2618.151   -2777.0821    33.517439   -666.89202    2969.6592    19.979549    20.102006    20.805648           90           90           90 
    8500    182.07507   -169.36073   -146.50819   -169.36073            0    977.88891     19.84362     20.00105    20.863742            0            0            0     8280.678    2404.3949    1413.3504   -884.07863    993.11991    40.585543   -16.610255     19.84362     20.00105    20.863742           90           90           90 
    9000    185.25913   -169.87866   -146.62649   -169.87866            0    1612.9363    20.145921    20.096791    20.596451            0            0            0    8338.8516    3341.1201   -604.58315    2102.2719   -503.21157   -852.62225     2243.894    20.145921    20.096791    20.596451           90           90           90 
    9500    180.76498   -169.13959   -146.45148   -169.13959            0     2391.043    20.275239    20.160853    20.241294            0            0            0    8273.9554    2594.4605    1550.6953    3027.9732   -1187.3004   -268.74814   -1286.4985    20.275239    20.160853    20.241294           90           90           90 
   10000    186.32003   -169.67976   -146.29444   -169.67976            0    1069.9083    20.133103    20.134318    20.218892            0            0            0    8196.0576   -1744.7484    3152.3475    1802.1259   -765.37928   -1910.1942    664.88173    20.133103    20.134318    20.218892           90           90           90 
   10500    190.35267   -170.18538   -146.29391   -170.18538            0    1453.9682    20.105928    20.149454    20.499059            0            0            0    8304.6499     112.8672    2438.7174      1810.32   -885.10009   -690.96357   -91.350617    20.105928    20.149454    20.499059           90           90           90 
   11000    182.18337    -169.1216   -146.25547    -169.1216            0    4191.3931    20.050237    20.079259    20.599194            0            0            0    8293.1101    6680.5473    2316.2701     3577.362   -310.93198   -255.28212    1490.2488    20.050237    20.079259    20.599194           90           90           90 
   11500    185.39682   -169.55134   -146.28188   -169.55134            0    2444.7145    20.108104    20.070835     20.57887            0            0            0    8305.3529    987.70368    4908.8239     1437.616   -502.07588   -1985.8703    38.408921    20.108104    20.070835     20.57887           90           90           90 
   12000    187.22437   -169.71774   -146.21891   -169.71774            0    3988.8698     20.11382    20.105699    20.507128            0            0            0    8293.1323     4116.653    5313.4818    2536.4746    375.85445    1271.1688   -1880.8827     20.11382    20.105699    20.507128           90           90           90 
   12500    187.46146   -169.64612   -146.11753   -169.64612            0   -27.420022    20.107343    20.159218    20.398502            0            0            0    8268.4986   -2266.7788    152.88877      2031.63    650.05191     -1283.12   -1386.5934    20.107343    20.159218    20.398502           90           90           90 
   13000    190.33151   -169.83401    -145.9452   -169.83401            0    3475.9154    20.044377    20.165212    20.287458            0            0            0    8200.1726    4498.1302    2146.9943    3782.6218   -520.14527   -159.20287    1915.0013    20.044377    20.165212    20.287458           90           90           90 
   13500    186.56228   -169.57497   -146.15924   -169.57497            0   -1078.0012    20.211457    20.187958    20.505238            0            0            0     8366.712    641.35557   -2538.0102   -1337.3489   -117.49084    920.00862    512.30477    20.211457    20.187958    20.505238           90           90           90 
   14000    189.60595   -169.79327   -145.99552   -169.79327            0    3063.1856    20.122515    19.950418    20.522166            0            0            0    8238.6764    3856.5049    1259.6773    4073.3746    626.96677   -1847.0833     2026.087    20.122515    19.950418    20.522166           90           90           90 
   14500    189.27225   -169.91482   -146.15896   -169.91482            0     3632.158    20.160747    20.028078    20.625044            0            0            0    8328.0013    6373.3828    3602.8096    920.28151    43.098122    761.87373    441.05567    20.160747    20.028078    20.625044           90           90           90 
   15000    184.78375   -169.26156   -146.06906   -169.26156            0    1401.0269    20.061879    20.201945    20.519451            0            0            0    8316.3077    1760.8278    1988.7236    453.52916   -1388.3729   -194.45332   -215.42856    20.061879    20.201945    20.519451           90           90           90 
   15500    185.44076   -169.16329   -145.88833   -169.16329            0    4032.8545    20.084186    20.180863    20.243533            0            0            0    8205.0321    4413.6609    2743.4186    4941.4842    607.38246   -96.011974   -188.35902    20.084186    20.180863    20.243533           90           90           90 
   16000    184.75539   -169.09241   -145.90347   -169.09241            0    3163.3272    20.261249     20.13322    20.202623            0            0            0    8241.1382    1980.9555    2337.6956    5171.3306    1023.0524   -557.04881    1211.0528    20.261249     20.13322    20.202623           90           90           90 
   16500    189.14436   -169.73152   -145.99171   -169.73152            0    7.1455976    20.241347    20.082304    20.413517            0            0            0    8297.9496   -690.56599    1593.0775    -881.0747   -545.62733   -519.31335    896.85064    20.241347    20.082304    20.413517           90           90           90 
   17000    191.86929   -169.98419   -145.90236   -169.98419            0    951.60088    19.968319    20.039433    20.692045            0            0            0         8280    135.64311    2983.6892   -264.52966   -90.430237   -569.28897   -565.44216    19.968319    20.039433    20.692045           90           90           90 
   17500    188.91739   -169.55578   -145.84446   -169.55578            0    3143.3685     19.92069    20.055592    20.673525            0            0            0    8259.5123    696.16096    5669.3246    3064.6201    2.2083151   -1281.2961   -646.12521     19.92069    20.055592    20.673525           90           90           90 
   18000    191.06885   -170.00294   -146.02158   -170.00294            0    1326.5708      20.2364     20.17315     20.37877            0            0            0    8319.2648     -215.373    3003.0923    1191.9931    55.995649    786.93745    -243.1928      20.2364     20.17315     20.37877           90           90           90 
   18500    192.53373   -170.05202    -145.8868   -170.05202            0    1809.0022    20.256959    20.143983    20.181808            0            0            0    8235.3043    2346.2637   -101.93596    3182.6788   -1055.5931    434.72836    402.60316    20.256959    20.143983    20.181808           90           90           90 
   19000    192.95192   -170.17639   -145.95868   -170.17639            0    4447.7801    20.146794    20.150121    20.353903            0            0            0    8262.8773    4563.3229    5092.9222    3687.0951    164.68268    3864.5581    771.55424    20.146794    20.150121    20.353903           90           90           90 
   19500     187.9405   -169.56248   -145.97377   -169.56248            0    1308.7379    20.070723    20.115402    20.582737            0            0            0    8309.8821    209.44603    1403.5055    2313.2622    1382.8221    1428.8161   -606.25082    20.070723    20.115402    20.582737           90           90           90 
   20000    185.93632   -169.32979   -145.99263   -169.32979            0   -2752.4233     20.06905    20.006519    20.648849            0            0            0    8290.7572   -3195.6471   -947.24904   -4114.3738    1546.9086   -1897.4247    1027.3928     20.06905    20.006519    20.648849           90           90           90 
   20500     185.1703   -169.25463   -146.01361   -169.25463            0   -832.57087    20.129453    20.045312    20.505052            0            0            0    8273.8123   -2074.6875    -201.4836   -221.54148   -272.62729   -917.20746    1182.3368    20.129453    20.045312    20.505052           90           90           90 
   21000    181.39375   -168.85303   -146.08602   -168.85303            0    2016.9429    20.174948    20.198117    20.394903            0            0            0    8310.8405    1903.6439    3238.5526     908.6322   -1001.8124   -429.66148    224.52792    20.174948    20.198117    20.394903           90           90           90 
   21500    188.99819    -169.8505   -146.12903    -169.8505            0   -123.70639     20.14015     20.18903     20.36664            0            0            0    8281.2813    84.373497   -790.74281    335.25015    101.54518   -1447.9429    2785.7171     20.14015     20.18903     20.36664           90           90           90 
   22000    187.41499   -169.57072   -146.04797   -169.57072            0    357.66475    20.094182    20.026114    20.448953            0            0            0    8228.8302     1186.045   -466.75251    353.70178   -518.90381   -423.75674   -2625.2808    20.094182    20.026114    20.448953           90           90           90 
   22500    186.54146   -169.55801   -146.14489   -169.55801            0    2318.3086    20.096171    20.081359    20.536816            0            0            0    8287.8052    242.38113    5480.0498    1232.4949    -989.4865   -1791.9997   -139.60076    20.096171    20.081359    20.536816           90           90           90 
   23000    184.87533   -169.41787   -146.21387   -169.41787            0    672.07786     20.14779    20.143037    20.473197            0            0            0    8308.7945    332.78802    1122.6036    560.84195   -1885.2023    470.36314    1955.8598     20.14779    20.143037    20.473197           90           90           90 
   23500    188.01972    -169.7131   -146.11445    -169.7131            0    2338.4861    20.155058    20.154444    20.399577            0            0            0    8286.5934    4498.3773    711.55424    1805.5267    399.41193    408.87958    134.93668    20.155058    20.154444    20.399577           90           90           90 
   24000    185.62414   -169.30319   -146.00521   -169.30319            0     6059.534    20.158812     20.11504    20.340495            0            0            0    8247.9755     5257.867    7800.0339    5120.7012    1125.9994   -991.51258   -1650.1421    20.158812     20.11504    20.340495           90           90           90 
   24500    190.67482   -169.87926   -145.94736   -169.87926            0    1341.0054    20.088396    20.017489    20.373498            0            0            0    8192.5756    1019.3123    4298.3418   -1294.6381   -3.5566612    1416.2361    -1594.747    20.088396    20.017489    20.373498           90           90           90 
   25000    184.26905   -169.27269   -146.14479   -169.27269            0   -355.69704    20.257155    20.160511    20.563401            0            0            0     8397.982    494.42864   -3101.8187    1540.2989   -112.24731    404.40257    -1262.421    20.257155    20.160511    20.563401           90           90           90 
   25500    181.10194   -168.53205   -145.80166   -168.53205            0    7459.6502    19.994036    20.069794    20.367133            0            0            0    8172.8457    9837.7007    7473.1348    5068.1151    402.92179   -1430.3159   -2884.6801    19.994036    20.069794    20.367133           90           90           90 
   26000    189.50395   -169.71982   -145.93487   -169.71982            0    339.42237    20.091657    20.220754    20.386441            0            0            0    8282.3678    629.94714   -936.60076    1324.9207    303.46401    299.80914    2025.0842    20.091657    20.220754    20.386441           90           90           90 
   26500      187.307   -169.44258   -145.93338   -169.44258            0    1703.4505    20.180848    20.111219    20.384418            0            0            0    8273.2493    679.13975     1168.455    3262.7569   -632.97684    691.92409   -1909.4256    20.180848    20.111219    20.384418           90           90           90 
   27000    188.82607   -169.50189   -145.80202   -169.50189            0    7184.2709    20.159737    20.007441    20.458494            0            0            0     8251.826       8110.6    7297.4714    6144.7414    992.69327   -661.63683   -479.96799    20.159737    20.007441    20.458494           90           90           90 
   27500    187.04173   -169.35421    -145.8783   -169.35421            0    1008.1941    20.174916    20.081434     20.56095            0            0            0     8330.089    1107.0493    1714.6007    202.93242   -951.83262     1309.606   -1219.9579    20.174916    20.081434     20.56095           90           90           90 
   28000    192.15235   -169.89668   -145.77933   -169.89668            0    2814.0821    20.061549    20.064637    20.413676            0            0            0      8217.07     1204.807    2835.2808    4402.1584     1858.532    10.248994   -3253.2019    20.061549    20.064637    20.413676           90           90           90 
   28500    185.03325   -169.06093   -145.83711   -169.06093            0    3313.4635    20.163884    20.174873    20.459463            0            0            0    8322.9873    8227.6858   -775.05184    2487.7565   -215.87282   -601.54495    1026.5748    20.163884    20.174873    20.459463           90           90           90 
   29000    182.62989   -168.65525   -145.73308   -168.65525            0    1451.2105    20.111151    20.157706    20.369287            0            0            0    8257.6007    2532.8309   -929.86396    2750.6645    207.19742   -488.93552    2896.6687    20.111151    20.157706    20.369287           90           90           90 
   29500    189.51016   -169.46532    -145.6796   -169.46532            0    3652.0925    20.111603    20.135733     20.41772            0            0            0    8268.3981    3127.3383    5311.5356    2517.4035    908.40007   -8.4833409    1908.0962    20.111603    20.135733     20.41772           90           90           90 
   30000    178.76516    -168.0943    -145.6572    -168.0943            0    2097.6637    20.212645     20.11086    20.595978            0            0            0    8372.1348    1831.1565    1707.2047      2754.63   -1702.5681    280.62727    710.53834    20.212645     20.11086    20.595978           90           90           90 
   30500    196.48686   -170.01243   -145.35105   -170.01243            0    2311.9852    20.092793    19.901215    20.516788            0            0            0    8204.0682    1512.8686    3629.0735    1794.0135    773.85878    113.04804   -763.97114    20.092793    19.901215    20.516788           90           90           90 
   31000    183.23468   -168.51143   -145.51335   -168.51143            0    982.14494    20.165489    20.180718    20.482071            0            0            0    8335.2613     1166.942   -902.59027    2682.0831   -2667.9414     831.5693   -523.60385    20.165489    20.180718    20.482071           90           90           90 
   31500    188.41381   -169.04961   -145.40149   -169.04961            0    2550.4775    20.100997    20.403387    20.328658            0            0            0    8337.3602    3928.5607    706.46651    3016.4052    622.79161   -2930.1782    1364.8396    20.100997    20.403387    20.328658           90           90           90 
   32000    192.60395   -169.34821   -145.17418   -169.34821            0    4004.4526     19.99777    20.102018     20.27026            0            0            0    8148.5539    1687.1077    4797.5237    5528.7263    550.25678    1818.5362   -1296.1972     19.99777    20.102018     20.27026           90           90           90 
   32500    195.22981   -169.80038   -145.29677   -169.80038            0    3047.1171    20.210262    19.988333    20.552629            0            0            0     8302.634    2883.5982    5425.3136    832.43948    91.485188   -168.45162    1919.2046    20.210262    19.988333    20.552629           90           90           90 
   33000    186.57346    -168.7563   -145.33917    -168.7563            0    2732.5432    20.271699    20.036842    20.625157            0            0            0    8377.5434    5067.6672    2171.1076    958.85464   -170.44438    282.87265    184.46609    20.271699    20.036842    20.625157           90           90           90 
   33500    195.04871   -169.71711   -145.23623   -169.71711            0    2099.7215    20.108998    20.098688    20.453075            0            0            0    8266.4062    1269.5365    2622.8692    2406.7587    432.31037     579.1531   -306.14317    20.108998    20.098688    20.453075           90           90           90 
   34000    186.17796   -168.54254   -145.17504   -168.54254            0    1513.9149    20.013451    20.141537    20.254305            0            0            0    8164.5445    3024.6968   -793.89475    2310.9428   -245.51763     653.2587   -1036.9496    20.013451    20.141537    20.254305           90           90           90 
   34500    188.41667   -169.20248   -145.55401   -169.20248            0    1916.8335    20.274419    20.279371    20.451941            0            0            0    8408.8662    3107.1623    -449.0114    3092.3498    1463.3556    1607.7403   -1026.2091    20.274419    20.279371    20.451941           90           90           90 
   35000    195.21845   -169.99937   -145.49719   -169.99937            0    479.63052    20.114265    20.032367    20.443927            0            0            0    8237.6011    1585.1727    1058.2004   -1204.4815    576.45896    2347.5794    558.15523    20.114265    20.032367    20.443927           90           90           90 
   35500    193.09616   -169.70542   -145.46961   -169.70542            0    2670.2344     20.06989    20.041454    20.431507            0            0            0    8218.1606    442.24649    4379.4861    3188.9705    -603.6114   -168.44135   -1923.0583     20.06989    20.041454    20.431507           90           90           90 
   36000    188.41923   -169.21747   -145.56867   -169.21747            0    3460.8366    20.202183    20.183089    20.424448            0            0            0    8327.9151     2221.607    4103.8536     4057.049    746.31117    1181.6229    543.28851    20.202183    20.183089    20.424448           90           90           90 
   36500    187.98098   -169.11652   -145.52273   -169.11652            0    140.42168    20.177731    20.087003      20.4002            0            0            0    8268.4076    -195.4174   -279.04481    895.72725   -1169.2806   -399.19698    300.92425    20.177731    20.087003      20.4002           90           90           90 
   37000    188.26683   -169.14867   -145.51899   -169.14867            0    2648.8642    20.127006    20.070596    20.451384            0            0            0    8261.5614   -242.33065    4560.4663    3628.4569   -8.4518931   -1720.6034    186.78672    20.127006    20.070596    20.451384           90           90           90 
   37500     192.7888    -169.7928   -145.59557    -169.7928            0    4769.2433    20.075777    20.198421    20.473966            0            0            0    8302.1729    4080.2712    6164.6283    4062.8304   -929.79246   -934.74119    577.52398    20.075777    20.198421    20.473966           90           90           90 
   38000    185.87676   -168.87454   -145.54485   -168.87454            0    1845.1704    20.130982    20.223371    20.408207            0            0            0    8308.5141    726.55797    870.02884    3938.9245    1125.6446   -1149.0928    1427.2512    20.130982    20.223371    20.408207           90           90           90 
   38500    190.50866   -169.23455    -145.3235   -169.23455            0    4554.8538    20.151204    20.065524    20.202871            0            0            0    8168.9192    5837.8113    4845.3497    2981.4004    2191.7916     1097.097    2411.8307    20.151204    20.065524    20.202871           90           90           90 
   39000     190.4793   -169.44649   -145.53913   -169.44649            0    3280.1443    20.297131    20.151271    20.325554            0            0            0    8313.4156    3773.3678    2310.0722    3756.9931   -1780.9174   -302.44491    -984.7959    20.297131    20.151271    20.325554           90           90           90 
   39500    187.04485   -169.03613   -145.55984   -169.03613            0     858.8727    20.109609    20.177623    20.547742            0            0            0    8337.5365   -80.251842    1328.8536    1328.0164    1741.6845    3184.9295    2246.1114    20.109609    20.177623    20.547742           90           90           90 
   40000    190.04452   -169.15393   -145.30113   -169.15393            0    5255.2454    19.910942     20.02403    20.525869            0            0            0    8183.6086    5818.3458    6086.1448    3861.2454   -6.7787544    935.44246    789.35444    19.910942     20.02403    20.525869           90           90           90 
   40500     191.3328   -169.49569   -145.48121   -169.49569            0    2803.0993    20.134567    20.092268    20.530106            0            0            0    8305.4364    1715.5451    3244.1651    3449.5876   -368.44775   -571.96016    870.01324    20.134567    20.092268    20.530106           90           90           90 
   41000     190.6753   -169.42105   -145.48909   -169.42105            0    2498.4086    20.304556    20.117843    20.425234            0            0            0    8343.3787    -514.4761    5937.9608    2071.7412   -622.01127   -1596.0574    114.90682    20.304556    20.117843    20.425234           90           90           90 
   41500    194.57051   -169.73927   -145.31841   -169.73927            0    4053.1163    20.100574    20.094282    20.329193            0            0            0    8211.0954     4624.439    2028.5205    5506.3893   -618.01004    1488.5171   -1081.5945    20.100574    20.094282    20.329193           90           90           90 
   42000    187.26139   -168.90332   -145.39985   -168.90332            0    3334.9502    20.004818    20.204507    20.511569            0            0            0    8290.5194    8676.9742    443.11739    884.75901   -674.76093   -265.95863    2008.2088    20.004818    20.204507    20.511569           90           90           90 
   42500    185.88396   -168.72846   -145.39787   -168.72846            0    2443.7056    20.115015    20.152804     20.63365            0            0            0    8364.3439    3583.4996    1648.3119    2099.3054   -483.62868    362.55285    1662.2674    20.115015    20.152804     20.63365           90           90           90 
   43000    194.10621   -169.45093   -145.08835   -169.45093            0    4938.8178     20.11509      19.8598    20.414314            0            0            0    8155.1443    4433.6902     6992.778    3389.9852    25.151157    1104.8693   -1167.4486     20.11509      19.8598    20.414314           90           90           90 
   43500    189.45433   -169.10623   -145.32751   -169.10623            0    1376.7062    20.252431    20.132547    20.362071            0            0            0    8302.2887   -282.14197    1766.1602    2646.1004   -751.32415   -294.00489    295.13145    20.252431    20.132547    20.362071           90           90           90 
   44000    183.16944   -168.27497   -145.28508   -168.27497            0    4920.1709    20.138236    20.288068    20.329063            0            0            0    8305.7621    3016.4249    5724.2302    6019.8575   -650.64379    987.84025    836.47414    20.138236    20.288068    20.329063           90           90           90 
   44500    185.44842   -168.34825   -145.07232   -168.34825            0    2216.8207    20.020752    20.048535    20.381404            0            0            0    8180.8258    1908.6671    3589.9591    1151.8359   -700.48279   -968.70715    755.86714    20.020752    20.048535    20.381404           90           90           90 
   45000    190.58574   -169.17813    -145.2574   -169.17813            0    2448.5213    20.163583    20.049109    20.549611            0            0            0    8307.4242    2419.3341    2910.4149    2015.8148    232.60691    2077.8912    255.54663    20.163583    20.049109    20.549611           90           90           90 
   45500    190.81228   -169.25572   -145.30657   -169.25572            0     1478.921    20.160619    20.157096     20.50773            0            0            0    8333.9217    -619.8309    1450.9915    3605.6023    -914.2467    857.99857    2513.4391    20.160619    20.157096     20.50773           90           90           90 
   46000    193.03554   -169.42514   -145.19694   -169.42514            0    2751.9588    19.989521    20.235616    20.350994            0            0            0    8231.9823    2474.7874    2986.8549    2794.2339    602.11087    515.56999   -2294.2316    19.989521    20.235616    20.350994           90           90           90 
   46500    196.09954   -169.85901   -145.24625   -169.85901            0    2401.5786    20.083964    20.190347    20.334322            0            0            0    8245.6124    4929.1698   -796.20414    3071.7701    434.60662    194.25947    3014.2877    20.083964    20.190347    20.334322           90           90           90 
   47000    191.67615   -169.27275   -145.21517   -169.27275            0   -817.18142    20.318592     19.99753    20.488278            0            0            0    8324.8309   -1827.9454    1111.7466   -1735.3455    726.85954   -1777.0392   -2107.5096    20.318592     19.99753    20.488278           90           90           90 
   47500    188.83155   -168.74601   -145.04546   -168.74601            0    2756.8402    20.151659    19.891585    20.572895            0            0            0    8246.6126     3115.368    3309.6968    1845.4559    243.19968    278.51421    1726.6794    20.151659    19.891585    20.572895           90           90           90 
   48000    190.76267   -169.01405   -145.07112   -169.01405            0    4844.0459    19.929252    20.219738    20.525342            0            0            0    8270.9796    5964.8615    5438.4169    3128.8593   -799.16131   -3321.7596    2195.2813    19.929252    20.219738    20.525342           90           90           90 
   48500    191.14189   -169.11044   -145.11991   -169.11044            0     2639.614    20.070423    20.377207    20.336771            0            0            0    8317.3159    1447.0449    3467.2687    3004.5286   -1483.6164    418.68751   -1638.6598    20.070423    20.377207    20.336771           90           90           90 
   49000    196.63747   -169.65758    -144.9773   -169.65758            0    2987.7953    20.220632    20.126138     20.29373            0            0            0    8258.8022    1421.1456    5068.5972    2473.6432    72.704365   -952.00246    298.67205    20.220632    20.126138     20.29373           90           90           90 
   49500    200.47665   -169.91681   -144.75467   -169.91681            0     2526.705     20.22918     19.96524    20.416837            0            0            0    8245.9611    2485.0322     2504.229     2590.854   -229.44156   -1450.8559   -1617.4359     20.22918     19.96524    20.416837           90           90           90 
   50000    191.18301   -168.87389   -144.87821   -168.87389            0    2848.4535    20.211349      20.1012    20.565944            0            0            0    8355.3746    3753.0987    2001.4293    2790.8326     609.2423    846.53828   -858.54322    20.211349      20.1012    20.565944           90           90           90 
   50500    189.34034   -168.59836   -144.83395   -168.59836            0    2813.2818    20.024314    20.163832    20.482831            0            0            0    8270.2893    5399.6954    840.71181    2199.4382   -1550.0924   -483.47604   -1647.3942    20.024314    20.163832    20.482831           90           90           90 
   51000    191.79014   -168.81674   -144.74485   -168.81674            0    4324.7643    20.093041    20.131598    20.340258            0            0            0    8227.7368    6438.7607    2601.9707    3933.5615    1295.8137   -1630.2116     129.1671    20.093041    20.131598    20.340258           90           90           90 
   51500    187.92076    -168.3709   -144.78467    -168.3709            0    1410.0221    20.229208     20.12486    20.363454            0            0            0    8290.1649    133.96006    1708.5432     2387.563    578.24819   -804.47741   -2827.8891    20.229208     20.12486    20.363454           90           90           90 
   52000    190.12656   -168.77273   -144.90964   -168.77273            0    3330.0823    20.118043    20.138224    20.490746            0            0            0    8301.6547    2064.0474     4027.767    3898.4323    -1057.609    1779.3836    626.96297    20.118043    20.138224    20.490746           90           90           90 
   52500    181.11836   -167.52584   -144.79338   -167.52584            0    327.69129    20.057252    20.116356     20.59421            0            0            0    8309.3276    2204.1753   -427.76337   -793.33809    1174.7704    947.49502    888.63301    20.057252    20.116356     20.59421           90           90           90 
   53000    188.04483   -168.33458   -144.73278   -168.33458            0    1150.5277    20.108961    20.055455    20.434261            0            0            0    8241.0223    840.79161     186.2136    2424.5778    92.841187    1264.6241   -76.318916    20.108961    20.055455    20.434261           90           90           90 
   53500    192.73489   -168.94942   -144.75896   -168.94942            0    4165.5065    20.242071    20.151237    20.334603            0            0            0    8294.5407    4422.8696    3826.8542    4246.7957    86.467848    1675.0843    280.83586    20.242071    20.151237    20.334603           90           90           90 
   54000    191.24683   -168.70492   -144.70122   -168.70492            0    1820.3679    20.230128    20.172932    20.299197            0            0            0    8284.1229    2774.6408    396.49391    2289.9691    581.56042    1193.9743    678.26344    20.230128    20.172932    20.299197           90           90           90 
   54500    194.80417   -169.06846   -144.61827   -169.06846            0    3442.8207    19.954809    20.101865    20.372565            0            0            0    8172.0243    3994.2212    2840.0552    3494.1857    157.46119   -1079.2834    1449.9118    19.954809    20.101865    20.372565           90           90           90 
   55000    193.05139   -168.98133   -144.75114   -168.98133            0    332.29123     19.99094     20.14702    20.745088            0            0            0     8355.247    2120.8055   -602.88263   -521.04923   -1790.3976    1103.4885    1356.4811     19.99094     20.14702    20.745088           90           90           90 
   55500    192.04696   -169.01386   -144.90974   -169.01386            0    1011.9105    20.233502    20.042292    20.753179            0            0            0    8415.9483    2233.7538    1558.9755   -756.99776    634.30382   -611.56953   -1648.4937    20.233502    20.042292    20.753179           90           90           90 
   56000    192.03644   -168.82743   -144.72463   -168.82743            0    1625.0551    20.280236    19.959083    20.445582            0            0            0    8275.8588   -296.11572    1538.4706    3632.8105     533.5361    1925.8644   -668.66732    20.280236    19.959083    20.445582           90           90           90 
   56500    191.28452   -168.51641   -144.50798   -168.51641            0    501.25782    20.109478    20.098021    20.214759            0            0            0    8170.0114    2012.6182   -174.87266   -333.97204    -500.3221    324.85806   -337.25367    20.109478    20.098021    20.214759           90           90           90 
   57000    189.73003    -168.5222   -144.70888    -168.5222            0    3067.6314    20.140701    20.344857    20.365201            0            0            0    8344.8379    3205.7472    3090.8802    2906.2667    1713.2607    193.65025   -1221.0116    20.140701    20.344857    20.365201           90           90           90 
   57500    194.44182   -169.13907   -144.73436   -169.13907            0    2117.4594    20.087556    20.112347    20.469397            0            0            0    8269.7981    766.72389     2444.169    3141.4852   -358.66165    1222.7752     -470.532    20.087556    20.112347    20.469397           90           90           90 
   58000    194.78591    -169.1568   -144.70891    -169.1568            0     1317.008    20.160565     19.96137    20.547199            0            0            0    8268.8607    1185.6445    3142.6963    -377.3167     1132.034   -833.14337    816.40243    20.160565     19.96137    20.547199           90           90           90 
   58500      194.936   -169.20828   -144.74155   -169.20828            0     2243.166    20.143929    20.130066    20.504106            0            0            0    8314.3863    3162.2362    1793.7252    1773.5367    542.40534   -965.85133    1375.3906    20.143929    20.130066    20.504106           90           90           90 
   59000    194.95319   -169.08581   -144.61692   -169.08581            0    2958.1581    20.102621    20.242774    20.388158            0            0            0    8296.6105    5315.4285    460.69898    3098.3469   -589.51769   -1920.6981   -163.05156    20.102621    20.242774    20.388158           90           90           90 
   59500    191.94594   -168.61704    -144.5256   -168.61704            0    3148.7372    20.114179    20.050148    20.363149            0            0            0    8212.3008    1018.7849    4781.4748    3645.9519   -1080.8028   -454.91498    594.94404    20.114179    20.050148    20.363149           90           90           90 
   60000    190.73931   -168.61412   -144.67412   -168.61412            0    2044.1026    20.194737    20.051053    20.584846            0            0            0    8335.3339    3252.0848     3511.736   -631.51292    847.50947    1935.8348    762.64678    20.194737    20.051053    20.584846           90           90           90 
   60500    190.98452   -168.63095   -144.66018   -168.63095            0    3471.4118    20.110694    20.121343    20.605708            0            0            0    8338.1856    3103.8696    4234.6084    3075.7575   -459.80678   -776.25961    850.45936    20.110694    20.121343    20.605708           90           90           90 
   61000    195.89849   -169.09612   -144.50858   -169.09612            0    2088.3963    20.024586    20.098782    20.511512            0            0            0     8255.264    1601.7802    2720.0457    1943.3632   -272.14121   -1992.5738    438.48781    20.024586    20.098782    20.511512           90           90           90 
   61500    193.47771   -168.91965   -144.63595   -168.91965            0    2199.0767    20.217287    20.172196    20.506772            0            0            0    8363.2168    2209.7723    2073.0366    2314.4213    357.37334    181.41125    1094.2503    20.217287    20.172196    20.506772           90           90           90 
   62000    192.54141   -168.58331   -144.41713   -168.58331            0    327.47322    20.176907    20.075558    20.291631            0            0            0    8219.3825   -237.33756    1325.3173   -105.56008   -391.10014    3812.5781    3273.4621    20.176907    20.075558    20.291631           90           90           90 
   62500     194.4561   -168.91781   -144.51131   -168.91781            0    4437.5654    20.148043     20.24259    20.344738            0            0            0    8297.5722    7631.7076    2414.6157    3266.3728    499.90712   -711.94548    2263.4066    20.148043     20.24259    20.344738           90           90           90 
   63000    192.77588    -168.6063   -144.41069    -168.6063            0    2240.3283    20.068836    20.226947    20.529631            0            0            0    8333.6192    5705.9563    -724.0619    1739.0907    1061.7498     1406.771   -392.99485    20.068836    20.226947    20.529631           90           90           90 
   63500    186.94342   -167.77012   -144.30656   -167.77012            0     843.9649    20.027371    19.978815    20.643924            0            0            0    8260.1121    3134.9511   -378.08365   -224.97274    901.22562     3117.005    1753.7407    20.027371    19.978815    20.643924           90           90           90 
   64000    189.25694   -168.10563   -144.35169   -168.10563            0    4203.5433    20.226968    19.991759    20.653105            0            0            0    8351.5513    1139.2207    7762.0886    3709.3206    106.61601    688.76549   -677.14647    20.226968    19.991759    20.653105           90           90           90 
   64500    193.06973   -168.43448   -144.20199   -168.43448            0   -1011.4184    20.241209    20.103428    20.297369            0            0            0    8259.3585   -1996.1334   -729.60701   -308.51485   -280.44712    984.92572   -1334.9607    20.241209    20.103428    20.297369           90           90           90 
   65000    200.17814    -169.4615   -144.33682    -169.4615            0    778.92905    20.247851    20.320149    20.236722            0            0            0     8326.184    360.82889    2464.6736   -488.71536   -136.43214   -858.01331    40.159163    20.247851    20.320149    20.236722           90           90           90 
   65500    199.24048   -169.11665   -144.10966   -169.11665            0    5005.5675    19.981622    20.124806    20.245313            0            0            0     8141.172    3062.7798    6820.0943    5133.8284    380.29781    -1289.189   -924.09295    19.981622    20.124806    20.245313           90           90           90 
   66000    197.50487   -169.18516   -144.39601   -169.18516            0    521.75197    20.169434    20.157083    20.671894            0            0            0    8404.3021    1986.5958    956.90255   -1378.2424    1188.1403    491.66797    1157.1951    20.169434    20.157083    20.671894           90           90           90 
   66500    192.27655    -168.3664   -144.23346    -168.3664            0    3861.9621    20.064279    20.044544     20.58367            0            0            0    8278.3267    4258.3769    5037.3784    2290.1309   -359.53739   -760.67752   -783.77861    20.064279    20.044544     20.58367           90           90           90 
   67000    195.70745   -168.80735   -144.24379   -168.80735            0    3707.6534    20.119499    20.123265    20.439734            0            0            0    8275.4353    4035.8457    2933.6909    4153.4237   -446.56295   -698.80638   -992.13095    20.119499    20.123265    20.439734           90           90           90 
   67500    193.61532   -168.58576   -144.28479   -168.58576            0    1076.6704    20.217487     20.23492    20.364079            0            0            0    8330.9286    10.228493    923.30601    2296.4768    -291.8307   -815.89169   -1254.2386    20.217487     20.23492    20.364079           90           90           90 
   68000    193.91517   -168.47317   -144.13457   -168.47317            0    3442.3614    20.159106     20.05918    20.337997            0            0            0    8224.1804    2518.7496    4630.6531    3177.6815   -450.67805    837.84683    801.15692    20.159106     20.05918    20.337997           90           90           90 
   68500    194.31699    -168.6123   -144.22327    -168.6123            0    4117.3655    20.180988    20.089424    20.521787            0            0            0     8320.034    4255.1132    5013.7149    3083.2685   -1092.3012    2263.5127    574.83069    20.180988    20.089424    20.521787           90           90           90 
   69000    193.03509   -168.48647   -144.25832   -168.48647            0    1167.3371    20.107436    20.130467    20.593447            0            0            0     8335.652   -373.69205   -133.51886    4009.2223   -764.52587    748.65292    2152.0388    20.107436    20.130467    20.593447           90           90           90 
   69500    199.92575   -169.29104   -144.19804   -169.29104            0    2343.7804    19.986411     20.15551     20.52595            0            0            0    8268.5983    2254.1954    2518.9221    2258.2237    255.27861   -1674.1841   -307.11358    19.986411     20.15551     20.52595           90           90           90 
   70000    199.87846   -169.32016    -144.2331   -169.32016            0    1310.3998    20.102798    20.175713    20.414377            0            0            0     8279.832   -660.92322    1986.0772    2606.0453     195.7818    2915.2442   -1408.4992    20.102798    20.175713    20.414377           90           90           90 
   70500    193.55834   -168.54757   -144.25375   -168.54757            0     3447.511    20.359498    20.109934    20.281385            0            0            0      8303.77    3201.6801    3093.1666    4047.6862    1105.1673   -755.43124   -165.79346    20.359498    20.109934    20.281385           90           90           90 
   71000    197.77681   -169.05275   -144.22946   -169.05275            0    2872.0576    20.333633    19.979292     20.32697            0            0            0    8257.8634   -520.97012    4590.5317    4546.6113   -389.33823    233.96308    777.95148    20.333633    19.979292     20.32697           90           90           90 
   71500    191.88065   -168.26151   -144.17826   -168.26151            0    5987.4711    19.968494    20.029929    20.594626            0            0            0    8237.1814    6539.9222    6132.9576    5289.5335   -326.03448    581.55791   -866.75462    19.968494    20.029929    20.594626           90           90           90 
   72000     192.5709   -168.38839   -144.21851   -168.38839            0    2111.2109    19.946854    20.256444    20.717994            0            0            0     8371.154    3189.1503    576.77665    2567.7059    198.81365   -2407.2288   -219.05399    19.946854    20.256444    20.717994           90           90           90 
   72500    190.72667   -168.09712   -144.15871   -168.09712            0    4875.2458    20.153841    20.144353    20.435375            0            0            0    8296.4776    2688.6459    6074.2193    5862.8721   -95.956469    771.51536    1211.5019    20.153841    20.144353    20.435375           90           90           90 
   73000    192.59628   -168.31417   -144.14111   -168.31417            0    1981.2759    20.331468    20.110688    20.304962            0            0            0    8302.2891    -528.8463    3917.1872    2555.4869    991.99295    2118.5279    2917.9094    20.331468    20.110688    20.304962           90           90           90 
   73500    194.89475   -168.52068   -144.05913   -168.52068            0     3892.588    20.139558    20.084668    20.282875            0            0            0    8204.3487    5405.1504      3146.24    3126.3736    -930.0243   -481.57765    915.74248    20.139558    20.084668    20.282875           90           90           90 
   74000    196.57004   -168.92687   -144.25505   -168.92687            0     250.4631      20.0806    20.214187    20.597076            0            0            0    8360.6211   -550.81873    260.34586    1041.8622   -663.06192   -600.01262    1095.8423      20.0806    20.214187    20.597076           90           90           90 
   74500    190.32157   -168.08066    -144.1931   -168.08066            0    2801.9326    20.090956     20.08153    20.635628            0            0            0    8325.5913    5125.9694    1934.3041    1345.5244   -945.58159   -1059.7863    2034.5498    20.090956     20.08153    20.635628           90           90           90 
   75000    191.44205   -168.06061   -144.03241   -168.06061            0    495.97246    20.170816    19.965546    20.457098            0            0            0    8238.5102   -1823.8845    2383.2877    928.51409    388.72797   -935.28238   -1750.1965    20.170816    19.965546    20.457098           90           90           90 
   75500      195.218   -168.61603    -144.1139   -168.61603            0    1788.4217    20.177353    20.151947    20.271405            0            0            0     8242.616    2155.2063    3744.8806   -534.82197   -871.83979   -300.73508    940.78355    20.177353    20.151947    20.271405           90           90           90 
   76000    194.00756   -168.48694   -144.13674   -168.48694            0    1835.1084    20.137731    20.324546    20.323733            0            0            0    8318.3055    1394.8632   -287.36278    4397.8246    138.56983   -1777.8643    154.42877    20.137731    20.324546    20.323733           90           90           90 
   76500     193.5102   -168.53277   -144.24499   -168.53277            0   -724.43289    20.081816    20.100075    20.504996            0            0            0    8276.7597   -1709.0909    716.99803   -1181.2058   -2304.9172     3018.884   -569.15226    20.081816    20.100075    20.504996           90           90           90 
   77000    189.70808   -168.09388   -144.28332   -168.09388            0    2558.6609    20.138645    19.920004    20.630659            0            0            0     8276.234    2192.9455    4155.6368    1327.4002    2448.6691   -1820.7886    2938.9658    20.138645    19.920004    20.630659           90           90           90 
   77500    200.43202   -169.46373   -144.30719   -169.46373            0    1745.8125    20.185418    20.011291    20.595801            0            0            0    8319.3913    4347.1105    1958.6761   -1068.3492   -883.60432    426.62297    643.57008    20.185418    20.011291    20.595801           90           90           90 
   78000    191.61931   -168.20149   -144.15104   -168.20149            0    929.66127    20.106999    20.182114      20.3885            0            0            0    8273.6893    3888.1849   -2441.7558    1342.5547    588.62011   -1227.7858    377.60811    20.106999    20.182114      20.3885           90           90           90 
   78500    193.32464   -168.44254   -144.17806   -168.44254            0    4160.2662    20.083436    20.276355    20.261907            0            0            0    8251.0309    2827.2838    4343.6214    5309.8935    99.182144   -686.16233    354.74186    20.083436    20.276355    20.261907           90           90           90 
   79000    195.70319   -168.81268   -144.24966   -168.81268            0   -1080.9601    20.168469    20.186717    20.373785            0            0            0    8294.8843   -367.00341   -1713.0252   -1162.8516     -1140.13    113.03883    600.60041    20.168469    20.186717    20.373785           90           90           90 
   79500    190.44003    -167.9945   -144.09207    -167.9945            0    1052.4929    20.164963    19.890124    20.586013            0            0            0    8256.7124   -91.681034    1933.1304    1316.0295    413.38774    1026.3372       1056.2    20.164963    19.890124    20.586013           90           90           90 
   80000    191.32965   -168.16085   -144.14676   -168.16085            0    369.46764     20.12917    19.914818    20.852838            0            0            0    8359.2511   -1922.5282    6038.0494   -3007.1183   -1190.5335   -1403.2969   -781.86104     20.12917    19.914818    20.852838           90           90           90 
   80500    192.57171   -168.38712   -144.21714   -168.38712            0    2027.6728    20.012862    20.195166    20.741643            0            0            0    8383.0059   -1666.5717     3125.793    4623.7973   -190.07836    538.07224    2052.0678    20.012862    20.195166    20.741643           90           90           90 
   81000    195.45291   -168.56153   -144.02993   -168.56153            0    2146.8993    20.062466    20.283065    20.304053            0            0            0    8262.2934   -232.30341    4150.2059    2522.7955   -309.24147    -1505.008   -1447.1097    20.062466    20.283065    20.304053           90           90           90 
   81500    194.49747   -168.37683   -143.96514   -168.37683            0    363.88966    20.276248    20.087221    20.156762            0            0            0    8209.7177   -2689.7442    859.57908    2921.8341   -592.67788   -82.945387   -464.35141    20.276248    20.087221    20.156762           90           90           90 
   82000    189.76863   -167.93567   -144.11751   -167.93567            0    1874.7988    20.263221     20.06184    20.400602            0            0            0    8293.2018   -2061.7599    5458.9539    2227.2024    306.00405    2813.1113    676.89235    20.263221     20.06184    20.400602           90           90           90 
   82500    192.27537   -168.21066   -144.07787   -168.21066            0    1676.4858    20.055128    20.136394    20.665326            0            0            0    8345.4431   -130.53798    4153.9249    1006.0705   -1790.9507    1751.0484    318.59163    20.055128    20.136394    20.665326           90           90           90 
   83000    197.16031   -168.75821   -144.01231   -168.75821            0    2544.8335    19.938642     20.13056    20.704558            0            0            0    8310.3132    3530.1335    3807.1936    297.17326   -6.7045672   -694.71407    1765.2678    19.938642     20.13056    20.704558           90           90           90 
   83500     196.6077   -168.65898   -143.98243   -168.65898            0     1929.197    20.093027     20.10944    20.452999            0            0            0     8264.229    2727.7174   -128.94405    3188.8176    805.29766   -2042.9089    677.50311    20.093027     20.10944    20.452999           90           90           90 
   84000    192.35398   -168.02497   -143.88231   -168.02497            0    176.57984    20.293426    20.047719    20.374434            0            0            0    8289.0716   -634.67514    1807.0735   -642.65884     910.3366   -333.08585    567.39873    20.293426    20.047719    20.374434           90           90           90 
   84500    195.06462    -168.3898   -143.90693    -168.3898            0    434.92365    20.201921    20.081533    20.428156            0            0            0    8287.4075    171.64177   -1639.2151    2772.3443   -1654.2373    2376.5684   -1584.2991    20.201921    20.081533    20.428156           90           90           90 
   85000    195.67656   -168.47868     -143.919   -168.47868            0    5102.4987    19.997317    20.248455    20.501665            0            0            0    8301.4271    6943.3415     3831.348    4532.8066     307.2518    1043.9622     1898.246    19.997317    20.248455    20.501665           90           90           90 
   85500    201.33636   -169.11491   -143.84486   -169.11491            0    2420.3367    20.033567    20.164626    20.469488            0            0            0    8269.0468    1306.9422    4720.7747    1233.2934   -2281.0068    -226.8511    755.11043    20.033567    20.164626    20.469488           90           90           90 
   86000    197.22882   -168.58391   -143.82941   -168.58391            0    3248.3208    20.275169     20.02372    20.382852            0            0            0    8275.1177    424.58273      5526.85    3793.5296     622.6479    1090.3133   -212.12199    20.275169     20.02372    20.382852           90           90           90 
   86500    199.62737   -168.99409   -143.93854   -168.99409            0    262.48023    20.294222    20.123292     20.41728            0            0            0    8338.1427   -1169.3136   -982.97817    2939.7325    471.75316    1120.5496    2010.0762    20.294222    20.123292     20.41728           90           90           90 
   87000    194.16551   -168.15509   -143.78507   -168.15509            0    5002.1004    19.978521    20.111829    20.391905            0            0            0    8193.5609     3071.671    7466.2147    4468.4154   -596.66549   -2290.4153    -774.5797    19.978521    20.111829    20.391905           90           90           90 
   87500    191.68318   -168.07474   -144.01628   -168.07474            0    2017.5237    20.115661    20.164608    20.600162            0            0            0    8355.9285    1643.4851    3745.9857    663.10045    677.80828   -765.87452    673.79008    20.115661    20.164608    20.600162           90           90           90 
   88000    196.17443   -168.59211   -143.96995   -168.59211            0    1406.3611    20.248728    20.013678    20.633314            0            0            0    8361.6823    1238.5525    1897.9519     1082.579   -1060.3358   -805.12669    480.38887    20.248728    20.013678    20.633314           90           90           90 
   88500    193.28117   -168.00344   -143.74441   -168.00344            0    1873.8335    20.112092    19.988267    20.430628            0            0            0    8213.2326   -1205.3968    1928.3294     4898.568    1431.7922   -763.56985     1482.724    20.112092    19.988267    20.430628           90           90           90 
   89000    196.09042   -168.52601   -143.91439   -168.52601            0    536.54834     20.05595      20.2867    20.390652            0            0            0    8296.3248    5132.6068   -2329.5839   -1193.3779   -802.25406   -740.53111   -1019.6338     20.05595      20.2867    20.390652           90           90           90 
   89500      190.865   -167.98071   -144.02494   -167.98071            0    1835.3045    20.088949    20.265155    20.380624            0            0            0    8297.0675    1416.3504   -27.167749    4116.7307   -1262.1626    97.301513    1372.8868    20.088949    20.265155    20.380624           90           90           90 
   90000    195.90432    -168.5844   -143.99614    -168.5844            0    2913.7777    20.224772    19.887707    20.463085            0            0            0    8230.7507    4426.9495    4375.5687     -61.1852    580.92646   -138.77804    1878.5494    20.224772    19.887707    20.463085           90           90           90 
   90500    198.73504   -168.97885   -144.03529   -168.97885            0    3188.4713    20.253506    19.882237    20.632095            0            0            0    8308.2352    1899.0422     4844.835    2821.5367   -1926.3238    4014.3197    2005.1312    20.253506    19.882237    20.632095           90           90           90 
   91000    190.25627   -167.94538   -144.06601   -167.94538            0    3036.6906    20.021375    20.236044    20.586352            0            0            0    8340.6309    655.56744    3058.6859    5395.8185    148.17411   -539.49992   -1322.4786    20.021375    20.236044    20.586352           90           90           90 
   91500    194.65799     -168.505   -144.07317     -168.505            0    1282.7948    19.978863    20.277049    20.415518            0            0            0    8270.5791    3383.8784    886.28582   -421.77994   -874.56465   -2816.5667     425.8733    19.978863    20.277049    20.415518           90           90           90 
   92000    187.86274   -167.58122   -144.00227   -167.58122            0     2325.823    20.190961    20.077918    20.294358            0            0            0    8227.1796    868.88318    4311.1113    1797.4744   -141.74269   -859.86371     3007.971    20.190961    20.077918    20.294358           90           90           90 
   92500    196.89083   -168.85031   -144.13823   -168.85031            0    1152.8051    20.310213    20.102836    20.385257            0            0            0    8323.1554    112.70107    1669.3697    1676.3445   -17.346012    -136.7863   -865.17157    20.310213    20.102836    20.385257           90           90           90 
   93000    191.56293   -168.16702   -144.12364   -168.16702            0    -327.0654    20.063145    20.176924    20.543681            0            0            0    8316.3397    1781.2568   -2360.4784    -401.9746    60.284379    534.19149   -585.07165    20.063145    20.176924    20.543681           90           90           90 
   93500    195.67379   -168.60744   -144.04811   -168.60744            0    3097.4737    19.944844    20.069839    20.575127            0            0            0    8236.0136    2001.2555    3288.0059    4003.1597    1091.9165    550.21321   -813.55903    19.944844    20.069839    20.575127           90           90           90 
   94000    191.37023   -168.31337   -144.29418   -168.31337            0    2524.7511    20.209494    20.050261    20.607866            0            0            0    8350.4232    3500.0131    4668.2228   -593.98254   -112.58588    342.94381   -365.07468    20.209494    20.050261    20.607866           90           90           90 
   94500    198.42793   -169.11844   -144.21343   -169.11844            0    4126.4275    20.303734    20.012745    20.475601            0            0            0    8319.9213   -767.95886    6940.2408    6207.0007   -659.31127   -1102.3172    29.163027    20.303734    20.012745    20.475601           90           90           90 
   95000    199.91503   -169.32885    -144.2372   -169.32885            0    969.22902      20.1403    20.064964    20.383695            0            0            0    8237.3447   -1524.4607    2172.1742    2259.9735   -1137.0427    -1057.222   -2815.1472      20.1403    20.064964    20.383695           90           90           90 
   95500     189.9669   -168.09496   -144.25191   -168.09496            0    5525.3553    20.054944    20.296066    20.422412            0            0            0    8312.6665    11443.921   -29.182521    5161.3275   -548.90194   -730.66939   -195.46385    20.054944    20.296066    20.422412           90           90           90 
   96000    197.14627   -168.98323   -144.23909   -168.98323            0   -726.73188    20.114826    20.216106    20.446415            0            0            0    8314.4007    466.88777   -2711.5347    64.451292   -797.92957    430.95108    857.87885    20.114826    20.216106    20.446415           90           90           90 
   96500    194.05606   -168.55243   -144.19614   -168.55243            0    352.91163    20.170847    20.038128    20.536887            0            0            0    8300.7226    2226.3879    172.75343   -1340.4064    719.99751    72.301815   -1731.5817    20.170847    20.038128    20.536887           90           90           90 
   97000    200.85278   -169.33044   -144.12109   -169.33044            0    4067.6658    20.119617    19.971741    20.480772            0            0            0    8229.6614    5586.0905    573.72576    6043.1811    249.02182    373.76446   -1100.5808    20.119617    19.971741    20.480772           90           90           90 
   97500    192.76194   -168.46194   -144.26808   -168.46194            0    3100.3481    20.198626    20.123732    20.489488            0            0            0    8328.3977    4131.1076    4246.9231    923.01344   -1814.8497    1683.6542   -1701.2442    20.198626    20.123732    20.489488           90           90           90 
   98000    194.15585   -168.63887   -144.27006   -168.63887            0    956.30538    20.182537      20.1223     20.46237            0            0            0    8310.1586   -1474.1864    1409.7145     2933.388    393.32789    1137.9725    2371.1069    20.182537      20.1223     20.46237           90           90           90 
   98500    195.67814   -168.71159   -144.15172   -168.71159            0    2958.4165     20.07769    20.028678    20.422197            0            0            0    8212.3697     2255.003    4436.1279    2184.1185   -1111.4097    309.86824    -2064.228     20.07769    20.028678    20.422197           90           90           90 
   99000    195.97665   -168.95314    -144.3558   -168.95314            0     1817.175    20.145898    20.233846    20.505456            0            0            0    8358.6181   -2333.6658    5363.4647    2421.7261   -845.64081   -768.22914    864.61189    20.145898    20.233846    20.505456           90           90           90 
   99500    192.35817   -168.27363   -144.13045   -168.27363            0    4795.6182    20.080476    20.161314     20.38003            0            0            0    8250.8304    5472.6939    5647.2829    3266.8776   -24.422842    1043.2801   -1813.7621    20.080476    20.161314     20.38003           90           90           90 
  100000    196.93952   -168.78813   -144.06994   -168.78813            0   -258.32332    20.263657    20.005459    20.310068            0            0            0    8233.3719   -1326.6406   -603.55266    1155.2233   -2023.1499     369.9301   -847.90864    20.263657    20.005459    20.310068           90           90           90 
  100500    197.11002   -168.83943   -144.09984   -168.83943            0    2533.4167    20.360338     20.00412       20.377            0            0            0    8299.3613    4048.1736    941.22405    2610.8524    1130.9109    273.98532    1717.6006    20.360338     20.00412       20.377           90           90           90 
  101000    193.81461   -168.57922   -144.25323   -168.57922            0   -63.714553    20.091142    20.161818    20.695641            0            0            0     8383.265     948.6585   -115.54136   -1024.2608   -444.94287   -1115.1802    1376.7511    20.091142    20.161818    20.695641           90           90           90 
  101500    195.00083   -168.53907    -144.0642   -168.53907            0    1713.3663    19.808817    20.154312    20.732646            0            0            0     8277.158    3390.2993     647.9642    1101.8353    527.94771     845.0679    466.40971    19.808817    20.154312    20.732646           90           90           90 
  102000    193.53186   -168.37291   -144.08241   -168.37291            0    842.69361    20.046279    20.107618    20.413079            0            0            0    8228.1634     85.33149    1131.2174    1311.5319     814.6652   -2405.7116    1798.9172    20.046279    20.107618    20.413079           90           90           90 
  102500    191.34972   -168.17501    -144.1584   -168.17501            0    1031.7931    20.352105    20.191073    20.259793            0            0            0     8325.374   -2630.3515    3527.7768    2197.9542   -469.05383   -600.84565   -416.85246    20.352105    20.191073    20.259793           90           90           90 
  103000    200.38538   -169.22507   -144.07438   -169.22507            0    3459.7597    20.136222    20.171534    20.249411            0            0            0     8224.875    1792.3789    4044.1076    4542.7927   -394.72171   -115.00952   -958.45146    20.136222    20.171534    20.249411           90           90           90 
  103500    194.38499   -168.61212   -144.21455   -168.61212            0    2774.5591    20.020798    20.162054     20.49916            0            0            0    8274.6995    3761.0979    2973.3274    1589.2519   -145.96242   -568.77727    81.397268    20.020798    20.162054     20.49916           90           90           90 
  104000    192.08991    -168.3187   -144.20919    -168.3187            0    3154.7716    20.170995    19.990859    20.612426            0            0            0     8311.662    292.62655    4893.1819    4278.5063   -1035.8432    1055.5478    1989.2282    20.170995    19.990859    20.612426           90           90           90 
  104500    192.52437   -168.38929   -144.22525   -168.38929            0    4492.2987    20.221581    20.002353    20.513333            0            0            0    8297.2165    1944.1506    8728.2772    2804.4684    1349.0506    486.45263    600.00331    20.221581    20.002353    20.513333           90           90           90 
  105000    197.16749   -168.88448   -144.13768   -168.88448            0    2801.2256    20.105851    20.180112    20.400036            0            0            0    8277.0765    1181.0869    3701.8268    3520.7631   -1131.5416   -554.06579   -1569.6544    20.105851    20.180112    20.400036           90           90           90 
  105500    192.19814   -168.11772   -143.99463   -168.11772            0    3436.7615    20.010621       20.248     20.26174            0            0            0    8209.5515    1008.5759    4188.4126    5113.2961   -646.32294   -308.34947    985.79857    20.010621       20.248     20.26174           90           90           90 
  106000    190.24494   -168.06536   -144.18741   -168.06536            0     697.0851    20.224084    20.225422    20.417708            0            0            0    8351.6721    745.45741    1037.6308    308.16708    945.27822    649.15488   -942.18711    20.224084    20.225422    20.417708           90           90           90 
  106500    193.43277    -168.3019   -144.02385    -168.3019            0   -65.404021    20.202462    19.885216    20.460317            0            0            0    8219.5297    427.97367   -1125.1465    500.96075   -590.11669    -259.2237    1350.5937    20.202462    19.885216    20.460317           90           90           90 
  107000    195.94511   -168.73919   -144.14581   -168.73919            0    3540.7382    20.183818    19.930371    20.645177            0            0            0    8304.9557    3507.3925    3539.8496    3574.9725   -489.19096    1246.2935    757.67754    20.183818    19.930371    20.645177           90           90           90 
  107500    196.77362   -168.81993   -144.12256   -168.81993            0    2287.2072    20.068175     20.08529    20.608318            0            0            0    8306.6996    2293.3983    1278.6748    3289.5485   -1568.3722    960.94609    -1875.383    20.068175     20.08529    20.608318           90           90           90 
  108000    196.84846   -168.69754   -143.99078   -168.69754            0    1740.1446    20.060924    20.128021    20.416859            0            0            0     8244.056   -1111.4675    5214.8708    1117.0305   -503.19749   -1184.8551   -2433.4318    20.060924    20.128021    20.416859           90           90           90 
  108500    202.52333    -169.4486   -144.02957    -169.4486            0    672.59929    20.223594    20.240014    20.340152            0            0            0    8325.7493   -391.81298    2331.8872     77.72368    467.83427    2420.2283   -2152.7708    20.223594    20.240014    20.340152           90           90           90 
  109000    196.73574   -168.64701   -143.95439   -168.64701            0    3423.9649    20.149093    20.160146    20.293069            0            0            0    8243.2203    4163.7579    4778.3498     1329.787    265.50957   -2185.6658   -1288.2107    20.149093    20.160146    20.293069           90           90           90 
  109500    194.08005   -168.32717   -143.96787   -168.32717            0    1836.2979    20.138041    20.124336    20.447289            0            0            0    8286.5644    1892.4525    741.12116      2875.32   -1061.7565    928.18964    684.53823    20.138041    20.124336    20.447289           90           90           90 
  110000     195.7976   -168.50789   -143.93302   -168.50789            0    2682.6169    20.160108    19.974846     20.51049            0            0            0    8259.4728    924.52043    5875.4104    1247.9199    658.40014   -1633.0851    710.46086    20.160108    19.974846     20.51049           90           90           90 
[...]
  157500    202.32906    -168.7837   -143.38906    -168.7837            0    2687.9173    20.047328    20.276192    20.461156            0            0            0    8317.1219    4579.2235    495.49049     2989.038    -1638.521    1416.7073   -238.84444    20.047328    20.276192    20.461156           90           90           90 
  158000    204.60563    -168.9478   -143.26742    -168.9478            0    192.25935    20.110249    20.101342    20.352735            0            0            0    8227.4507     739.6375   -630.40905    467.54959    -23.16211   -862.00333    114.65028    20.110249    20.101342    20.352735           90           90           90 
  158500    199.22288   -168.36025   -143.35547   -168.36025            0   -880.80167     20.32776    20.063358    20.390832            0            0            0    8316.2608    219.16824   -3122.5107    260.93749    605.02279    813.15454   -727.51853     20.32776    20.063358    20.390832           90           90           90 
  159000    184.46201   -166.54225   -143.39013   -166.54225            0    1168.5713    20.276221    20.069243    20.446659            0            0            0    8320.3261   -670.54826     2593.045     1583.217    1180.7283   -1176.1403    438.99979    20.276221    20.069243    20.446659           90           90           90 
  159500    200.86574   -168.45492   -143.24394   -168.45492            0    1704.5747    20.019641    20.120918    20.537116            0            0            0    8272.6283     3081.199    464.00946    1568.5157    1000.0033     807.8118     1219.962    20.019641    20.120918    20.537116           90           90           90 
  160000    194.69286   -167.63706   -143.20084   -167.63706            0    2467.5258    19.989294    20.120916    20.513227            0            0            0    8250.4794    2720.5201    1713.3572       2968.7     757.4721   -426.78789    914.45528    19.989294    20.120916    20.513227           90           90           90 
  160500    190.92164   -167.35286   -143.38998   -167.35286            0     2387.233    20.308359     20.19394    20.577469            0            0            0    8438.9389    2632.7322    1824.3987    2704.5681    937.83745    362.48129    1467.5114    20.308359     20.19394    20.577469           90           90           90 
  161000    198.96725   -168.16982   -143.19712   -168.16982            0    1689.8527     20.21452    20.027346    20.413312            0            0            0    8264.1904    4551.8062   -902.16566    1419.9175     1102.183     566.4787   -617.50942     20.21452    20.027346    20.413312           90           90           90 
  161500     206.9537   -169.05926   -143.08417   -169.05926            0    2959.8582    20.054996      20.1106    20.291165            0            0            0    8183.7916    642.44325    2289.5939    5947.5373   -486.16852    89.760275   -5.3432165    20.054996      20.1106    20.291165           90           90           90 
  162000    198.74155   -168.22467    -143.2803   -168.22467            0     538.2477    20.215112    20.347103    20.473973            0            0            0    8421.3334    2050.1357   -1587.0654    1151.6728    596.62895    1931.6217     633.0711    20.215112    20.347103    20.473973           90           90           90 
  162500    191.29165   -167.18112   -143.17179   -167.18112            0   -524.08842    20.187242    20.013668    20.480399            0            0            0    8274.5061   -3462.0618    205.13906    1684.6574   -1315.9067   -1176.7661   -1930.7407    20.187242    20.013668    20.480399           90           90           90 
  163000    194.14483   -167.42019   -143.05277   -167.42019            0   -129.98637    20.180549    19.886683    20.518141            0            0            0    8234.4262   -2494.1299    228.56723    1875.6036    193.79004    633.37832   -40.285686    20.180549    19.886683    20.518141           90           90           90 
  163500    195.45997    -167.8322   -143.29971    -167.8322            0    2157.5032    20.144337    20.157019    20.597263            0            0            0    8363.5141    755.22499    3219.9512    2497.3335   -971.96433   -215.64629   -411.04871    20.144337    20.157019    20.597263           90           90           90 
  164000    195.05931    -167.7371   -143.25489    -167.7371            0    2326.1832    20.084154    20.367182    20.537052            0            0            0    8400.8373    5746.9927    716.26805    515.28891    1732.4482   -30.121583    394.32171    20.084154    20.367182    20.537052           90           90           90 
  164500    196.16179   -167.63769   -143.01711   -167.63769            0    3829.8506    20.018311    20.065384    20.389919            0            0            0    8190.1223    5071.9297    2227.2559    4190.3662    100.33057    -475.2618    596.23118    20.018311    20.065384    20.389919           90           90           90 
  165000    204.64818   -168.81562    -143.1299   -168.81562            0    2434.8961    20.210857    20.068018    20.442219            0            0            0    8291.1971    3528.1176    712.29723    3064.2735    875.96424   -533.74464    48.528516    20.210857    20.068018    20.442219           90           90           90 
  165500    197.47854   -168.01626   -143.23041   -168.01626            0    168.30649    20.297226    20.182733    20.532393            0            0            0    8411.1666    2122.0025    -2377.875    760.79193   -932.57271   -3618.5616    1505.6356    20.297226    20.182733    20.532393           90           90           90 
  166000    194.15525   -167.37893    -143.0102   -167.37893            0    1695.5181    20.122313    20.027835    20.583515            0            0            0    8295.2876    3936.2754     361.4213    788.85741   -376.19108   -1118.5421    1763.7385    20.122313    20.027835    20.583515           90           90           90 
  166500    194.67559    -167.4371   -143.00306    -167.4371            0    3768.2032    20.073685    19.972931    20.605882            0            0            0    8261.5228    1795.2109    5123.2767    4386.1219   -407.77527    281.91342    -1211.266    20.073685    19.972931    20.605882           90           90           90 
  167000    198.01545   -168.09784    -143.2446   -168.09784            0   -1042.0039    20.175796    20.181823    20.569247            0            0            0    8375.4756   -1627.0771   -1937.2632    438.32862   -128.50358   -1024.9829   -2167.3498    20.175796    20.181823    20.569247           90           90           90 
  167500    198.54447    -168.1129   -143.19327    -168.1129            0    1048.0443     20.08807    20.297655    20.411949            0            0            0    8322.7823    1543.7197    1425.5351    174.87818   -787.06313   -1264.3591   -2308.0431     20.08807    20.297655    20.411949           90           90           90 
  168000    195.84578   -167.62077   -143.03986   -167.62077            0     2892.746    20.058668    20.141647    20.358087            0            0            0    8224.9644    2830.8734    3031.5961    2815.7686    2135.4502    1471.2106    984.05887    20.058668    20.141647    20.358087           90           90           90 
  168500    190.15325   -167.02345   -143.15701   -167.02345            0   -599.27877    20.312387    20.024085    20.604121            0            0            0    8380.4574   -3256.6117    1914.1933   -455.41799       616.02    666.74053    -144.3034    20.312387    20.024085    20.604121           90           90           90 
  169000    200.02557   -168.19856   -143.09303   -168.19856            0    1700.7989    20.239369    19.957351    20.718645            0            0            0     8368.762    2159.8838   -222.80538    3165.3183    1485.6771    -2804.829    1354.2949    20.239369    19.957351    20.718645           90           90           90 
  169500    201.90566   -168.27263   -142.93112   -168.27263            0    2481.0231    19.857812    20.138139    20.728523            0            0            0    8289.3233    4513.5104    3450.1413   -520.58232    -1370.417    1023.9561    759.57525    19.857812    20.138139    20.728523           90           90           90 
  170000     197.6055   -167.65683   -142.85505   -167.65683            0    2655.0636    19.971527    20.287961    20.572546            0            0            0    8335.6164     2439.436    92.894197    5432.8606    171.95755   -2311.4995    279.62978    19.971527    20.287961    20.572546           90           90           90 
  170500    203.75839   -168.45175    -142.8777   -168.45175            0    2896.3761    20.334412    20.185478    20.207259            0            0            0    8294.2678    975.91184    2392.7085    5320.5081    723.54308   -863.04166    2012.8204    20.334412    20.185478    20.207259           90           90           90 
  171000    204.39261   -168.58205    -142.9284   -168.58205            0    78.397424    20.429962    20.088157    20.243801            0            0            0    8308.0616   -5198.3549    3177.3482     2256.199    597.92247   -1472.0671   -698.02507    20.429962    20.088157    20.243801           90           90           90 
  171500    200.56004   -168.12799   -142.95538   -168.12799            0    2884.7741    20.064092    20.120539    20.506819            0            0            0      8278.61    1548.9442    5029.2681    2076.1099   -43.801348    969.17136   -1457.1856    20.064092    20.120539    20.506819           90           90           90 
  172000    205.46871   -168.73736   -142.94865   -168.73736            0    2415.9818    19.955558    20.142832     20.67185            0            0            0    8309.2869    3250.2705    2024.1459    1973.5289    557.64066   -1550.4637    198.24223    19.955558    20.142832     20.67185           90           90           90 
  172500    192.41143   -167.13913   -142.98926   -167.13913            0     48.99445    20.227353    20.049621    20.625633            0            0            0    8364.7411    3384.7617   -1082.2308   -2155.5475   -2103.1509    653.45097   -394.26992    20.227353    20.049621    20.625633           90           90           90 
  173000    197.84524   -167.66511   -142.83324   -167.66511            0    3074.2699    20.296904     19.97062    20.392842            0            0            0      8266.07   -515.76772    6806.5076    2932.0699    1827.3987    378.23576    2109.6669    20.296904     19.97062    20.392842           90           90           90 
  173500    202.63284   -168.23155   -142.79878   -168.23155            0    5096.3056    20.145722    20.206517    20.326355            0            0            0    8274.3484    6241.3645    5788.7742    3258.7781   -1617.7539   -1240.5215    66.554963    20.145722    20.206517    20.326355           90           90           90 
  174000    202.67724    -168.3834   -142.94506    -168.3834            0    2287.8918    20.047844    20.358082     20.48165            0            0            0    8359.2917    3301.5982    983.32344    2578.7539   -711.34003    336.23543   -311.71646    20.047844    20.358082     20.48165           90           90           90 
  174500    194.32036   -167.24369   -142.85424   -167.24369            0    4178.0468    20.073344    20.095077    20.570292            0            0            0    8297.5496    3948.5692    4340.8478    4244.7234   -446.16163     2013.698   -2059.0708    20.073344    20.095077    20.570292           90           90           90 
  175000    200.01035   -167.93354   -142.82992   -167.93354            0    2698.6529    20.192991     20.00703    20.547599            0            0            0    8301.2665    3512.0117    3664.5873     919.3596   -120.25929    -3248.243   -489.09913    20.192991     20.00703    20.547599           90           90           90 
  175500    194.90769   -167.36577    -142.9026   -167.36577            0    1491.9956    20.225471    20.086855    20.407267            0            0            0    8290.7809    869.29109    94.095498    3512.6002    2296.3416    1072.8194     2192.772    20.225471    20.086855    20.407267           90           90           90 
  176000    201.42911   -168.27432   -142.99263   -168.27432            0    3417.9272    20.162325    20.187146     20.40199            0            0            0    8304.0139    5549.7663    4032.6646    671.35058   -922.05159    1250.8696    1890.1397    20.162325    20.187146     20.40199           90           90           90 
  176500    201.44681   -168.30312   -143.01921   -168.30312            0    2844.6117    20.061366    20.183389     20.54658            0            0            0    8319.4409    3315.7321    2582.7703    2635.3327    428.00252   -552.66345   -2080.9109    20.061366    20.183389     20.54658           90           90           90 
  177000    198.35581   -167.90055    -143.0046   -167.90055            0    3147.1304    20.046397    20.087128    20.697651            0            0            0    8334.4172    343.75082    4593.2639    4504.3765   -1637.9504   -1167.5346   -695.27371    20.046397    20.087128    20.697651           90           90           90 
  177500    204.50898   -168.68742   -143.01917   -168.68742            0    2069.7249    20.139819    20.010913    20.657833            0            0            0    8325.4409    891.33067    3601.1203    1716.7237    530.89568   -428.16901   -688.12455    20.139819    20.010913    20.657833           90           90           90 
  178000    200.63003   -168.18284   -143.00144   -168.18284            0   -472.48376    20.211662     20.18719    20.411339            0            0            0    8328.1662   -913.44308    -339.7859    -164.2223    73.198917    96.596523   -155.86303    20.211662     20.18719    20.411339           90           90           90 
  178500    198.73627   -167.86033   -142.91662   -167.86033            0     1155.585    20.119207    20.192331    20.213055            0            0            0    8211.6279    2421.3132     518.5373    526.90444   -344.37775   -2990.9803    277.72191    20.119207    20.192331    20.213055           90           90           90 
  179000    194.96247   -167.51048   -143.04043   -167.51048            0   -2.8811317    20.210957    20.086649    20.433747            0            0            0    8295.4964    1360.2857   -1505.7193    136.79014   -972.70202   -76.780157   -1701.4896    20.210957    20.086649    20.433747           90           90           90 
  179500    200.82228   -168.31565   -143.11013   -168.31565            0    -176.2209    20.132028    20.045183    20.710648            0            0            0    8357.7857   -83.569926     1024.298   -1469.3908    1246.0995   -1284.8738    714.35741    20.132028    20.045183    20.710648           90           90           90 
  180000     199.2308   -168.05688    -143.0511   -168.05688            0    771.83399    20.003934    20.113653    20.754561            0            0            0    8350.6429   -1360.1557    745.33522    2930.3225   -472.26635    2594.6957   -45.620833    20.003934    20.113653    20.754561           90           90           90 
  180500    200.59835   -168.09096   -142.91354   -168.09096            0    2750.4245    20.036045    20.151939    20.413495            0            0            0     8242.258    4390.4746    2908.1927    952.60617    222.24439    561.10046    2302.6412    20.036045    20.151939    20.413495           90           90           90 
  181000    202.66496   -168.41846   -142.98166   -168.41846            0    3005.9287    20.304582    20.156481    20.280441            0            0            0    8300.1544   -1427.0369    4887.9081    5556.9147     980.3905   -498.07504    2197.2507    20.304582    20.156481    20.280441           90           90           90 
  181500    201.97654   -168.35414   -143.00374   -168.35414            0    2096.9421    20.269138    20.058098    20.405133            0            0            0    8295.9184    2017.6052    1952.0351    2321.1861    769.71576    1778.6832   -158.74121    20.269138    20.058098    20.405133           90           90           90 
  182000    200.32242   -168.10234   -142.95955   -168.10234            0    1912.8976    20.006088    20.076626    20.546278            0            0            0    8252.5103    1154.6912    2425.9731    2158.0285   -1252.3118    837.37428    1895.7063    20.006088    20.076626    20.546278           90           90           90 
  182500     193.2058    -167.3674   -143.11783    -167.3674            0   -35.284151    20.010728    20.223959     20.74569            0            0            0    8395.7008    138.16364    155.38489   -399.40099   -426.09852   -445.82978    1910.1111    20.010728    20.223959     20.74569           90           90           90 
  183000    199.56226   -168.09351   -143.04613   -168.09351            0    4111.8311    20.125392    20.050791    20.525126            0            0            0    8282.5048    6498.0201    3259.4274    2578.0459    21.276063   -1362.2513   -1021.1192    20.125392    20.050791    20.525126           90           90           90 
  183500    192.86724   -167.17855   -142.97147   -167.17855            0    2450.2565    20.263959     20.10388    20.340544            0            0            0    8286.4162    810.76295    1377.1719    5162.8347   -900.02203    2111.2583    1803.3056    20.263959     20.10388    20.340544           90           90           90 
  184000      205.152   -168.74261   -142.99366   -168.74261            0    2302.3782    20.130079    20.220949    20.366707            0            0            0    8290.2539    902.65686    3240.2937     2764.184    441.75476   -1065.5609   -1292.4145    20.130079    20.220949    20.366707           90           90           90 
  184500    200.38733   -168.12471   -142.97378   -168.12471            0    2746.8249    20.086511    20.184003    20.521367            0            0            0    8319.8998    4000.8899     1341.201    2898.3839     477.5126   -2650.2254    266.79453    20.086511    20.184003    20.521367           90           90           90 
  185000    201.64939   -168.27355   -142.96421   -168.27355            0    2076.1833    20.157464     19.99308    20.591778            0            0            0     8298.688    3227.1203    1330.9899    1670.4397   -675.48904   -164.55702   -514.32569    20.157464     19.99308    20.591778           90           90           90 
  185500    199.82658   -168.04046    -142.9599   -168.04046            0    1659.3232    20.144789    19.985055    20.514097            0            0            0    8258.8669   -2365.1817     3134.836    4208.3152    375.86362   -414.24739    67.237434    20.144789    19.985055    20.514097           90           90           90 
  186000    198.36711   -167.84433   -142.94696   -167.84433            0   -563.14119    20.164769    20.336625    20.444651            0            0            0    8384.0105    82.901477   -1892.1234    119.79837    254.61561   -800.54103    478.31491    20.164769    20.336625    20.444651           90           90           90 
  186500    203.22238   -168.35258   -142.84581   -168.35258            0    1380.6254    20.070645    20.270166    20.371794            0            0            0    8287.9653    3067.7685   -1733.6178    2807.7253   -1179.9118    1012.6301    690.01916    20.070645    20.270166    20.371794           90           90           90 
  187000    196.20283    -167.4651   -142.83937    -167.4651            0    2318.4108     20.15123    19.953455