LAMMPS data file via write_data, version 29 Sep 2021, timestep = 400000

972 atoms
2 atom types

-0.04931370404990432 20.04036670405049 xlo xhi
-0.13418589161358163 20.125238891612906 ylo yhi
0.1799870874537941 20.620784912546075 zlo zhi

Masses

1 1.008
2 15.999

Atoms # full

2 0 2 0 2.153849122661446 2.004923243910199 0.9518667113038215 0 0 0
31 0 1 0 0.8466469184409343 1.8739901603495595 2.3602466115756013 0 0 0
32 0 2 0 0.8878793612286706 0.973994321308888 2.6404527096047494 0 0 0
33 0 2 0 0.9313034482147452 2.5387329353441337 3.0554876562293343 0 0 0
5 0 2 0 3.469705495160866 1.3845725746626116 3.531869761366476 0 0 0
18 0 2 0 4.015496373423029 3.25528188432754 3.54602205634482 0 0 0
35 0 2 0 4.418910705021622 2.182403448538064 0.5513907967251834 0 0 0
4 0 1 0 4.2314167806908145 1.545310318386074 2.9428612447016675 0 0 0
230 0 2 0 4.4897287175456295 0.05170602623607429 1.9674490820195196 0 1 0
6 0 2 0 5.031516841400187 1.2663998461934975 3.519104757927003 0 0 0
36 0 2 0 5.815037613247649 2.24289573373539 1.2068854821306085 0 0 0
68 0 2 0 7.49008003739475 2.7024817887498087 2.918364475846239 0 0 0
67 0 1 0 7.281786309559743 2.0176216980811237 2.255294569867882 0 0 0
272 0 2 0 7.396348870286595 0.036886706600674085 2.218474763481955 0 1 0
34 0 1 0 5.286145230489656 2.621159754252899 0.4665766947581204 0 0 0
69 0 2 0 7.945404145065194 2.2892373996002706 1.5538671887828146 0 0 0
46 0 1 0 7.98668221926145 3.9139632723774254 3.8605901887574117 0 0 0
40 0 1 0 10.924810588968665 0.9692052708189793 3.748193101284104 0 0 0
54 0 2 0 10.999246995754408 2.886504044978669 3.8828221725898864 0 0 0
41 0 2 0 9.973323699893989 0.9199537495960817 3.9652150914540885 0 0 0
39 0 2 0 10.333326396038057 2.41430824475266 0.6918188790156454 0 0 0
47 0 2 0 8.967012840632117 3.8985516527083384 4.009554490821049 0 0 0
52 0 1 0 10.667674124469173 3.7534190677493138 4.080489377718928 0 0 0
37 0 1 0 9.357412068868772 2.4700972585665544 0.4836873383204059 0 0 0
70 0 1 0 12.266099792334012 2.744550270778736 0.6790278135858643 0 0 0
72 0 2 0 13.011063268812777 2.8132689602898444 1.2586121857256 0 0 0
103 0 1 0 14.576164190969722 2.294095507579018 2.214017792828597 0 0 0
105 0 2 0 14.208590609082488 1.4436973945331315 2.0676752283780835 0 0 0
84 0 2 0 14.437142765785975 3.758498022898304 3.5053399604912054 0 0 0
104 0 2 0 15.293798533448827 2.433249380220892 1.531413991587808 0 0 0
76 0 1 0 17.589739293535775 1.5764240152271554 3.4924191909915905 0 0 0
77 0 2 0 17.66069628674914 0.8666682957918146 2.8443098559638154 0 0 0
89 0 2 0 17.44747944843522 3.276242368415731 3.408336099597474 0 0 0
108 0 2 0 19.531542823977208 2.3254791477952805 1.3388242696129713 0 0 0
107 0 2 0 18.02204969221826 2.5196054003071793 0.8568689930466727 0 0 0
106 0 1 0 18.938469488808355 2.533152975528123 0.5648087698254093 0 0 0
78 0 2 0 18.379944971739477 1.577990813073053 3.994617488842225 0 0 0
10 0 1 0 1.1639268712790687 4.159132063096418 3.8704341287338333 0 0 0
16 0 1 0 3.9460616635662076 4.145513787259541 4.012050328283914 0 0 0
20 0 2 0 1.0225549804647074 5.5904088224684365 2.8437553335666226 0 0 0
19 0 1 0 0.9209482521367758 6.093025764391656 2.0136744358273804 0 0 0
21 0 2 0 1.0287031253617946 7.064304007766851 2.2644885157149695 0 0 0
675 0 2 0 1.9554650338087467 5.352912401532842 0.733316866866017 0 0 1
131 0 2 0 2.8968599596713456 7.618677136840846 4.237943628972486 0 0 0
17 0 2 0 4.189874145852094 4.7888524655563875 3.339761548508655 0 0 0
14 0 2 0 4.183866480176267 5.493913499282559 1.0203368973331686 0 0 0
114 0 2 0 4.294870543089725 7.183955566316619 2.907477867386427 0 0 0
13 0 1 0 4.61172372960546 5.63158746659953 1.9066456576548654 0 0 0
15 0 2 0 5.54997531746246 5.582660084098647 1.741212994005516 0 0 0
55 0 1 0 7.3491737808663045 6.073633341361788 1.8362936626609434 0 0 0
56 0 2 0 7.446828509807463 5.342524422754078 2.4837390388051284 0 0 0
177 0 2 0 7.535507207300851 7.6687221144632085 2.1341698771016087 0 0 0
113 0 2 0 4.979826746430138 7.874183425273159 4.1026085063726665 0 0 0
57 0 2 0 8.028760744322232 5.9038264354010135 1.1290926461960151 0 0 0
51 0 2 0 11.305305835928436 4.814486887293948 2.488566150667967 0 0 0
49 0 1 0 11.671756973017395 5.502219717004286 1.9500838606584394 0 0 0
50 0 2 0 11.057273158786252 5.663680809694043 1.1984097961019875 0 0 0
150 0 2 0 11.270674507882879 6.953411913825763 2.847109349195303 0 0 0
149 0 2 0 10.116618441549443 7.642173773136655 3.8086034395539405 0 0 0
148 0 1 0 11.00313325582136 7.801331115417124 3.366554422217096 0 0 0
709 0 1 0 9.537158114808777 5.1588935443192225 0.33391769216872136 0 0 1
711 0 2 0 9.352898630134094 4.178845273056566 0.33337107048201453 0 0 1
83 0 2 0 14.58585076777641 5.277799669266915 3.7301662991855067 0 0 0
82 0 1 0 14.658120010597415 4.429577867565518 4.161104570430247 0 0 0
91 0 1 0 14.477427110835976 6.288374751397036 1.7918557140979297 0 0 0
92 0 2 0 14.442823309090056 7.265710254344012 1.8340260448250514 0 0 0
93 0 2 0 13.58211884166801 5.970194166238114 1.59487179111507 0 0 0
747 0 2 0 15.462841223468562 5.850037235324536 0.6919703948117211 0 0 1
204 0 2 0 15.857141312728043 7.696835964015592 4.17044411546116 0 0 0
88 0 1 0 17.368975982444702 4.246302492609061 3.5605462674500306 0 0 0
90 0 2 0 16.459387914962242 4.359832725876348 3.8871232792765875 0 0 0
86 0 2 0 17.827591662210576 5.134892754659663 2.1631611655991008 0 0 0
85 0 1 0 18.139095811728623 5.895205333558208 1.6106501803429178 0 0 0
87 0 2 0 19.11956049453439 5.858531710499149 1.5834886755172233 0 0 0
185 0 2 0 17.624232776843836 7.493007886780794 2.3438666441021754 0 0 0
139 0 1 0 0.9167006468913654 8.838147514304108 2.077262452203936 0 0 0
141 0 2 0 1.5639056645678828 9.054379193446799 1.3600572948578986 0 0 0
119 0 2 0 1.3078018148371162 9.900665432944852 3.3068946769552388 0 0 0
140 0 2 0 0.07938703360472255 9.129878319447474 1.7174256093871418 0 0 0
110 0 2 0 3.859920619420236 9.248305888255661 0.2165410664172413 0 0 0
118 0 1 0 1.523947392968305 10.634041768948371 3.9387858134356053 0 0 0
120 0 2 0 2.517701119581071 10.608566501674888 4.089212208132162 0 0 0
781 0 1 0 2.649192059415404 11.965245349385276 0.3233654091471679 0 0 1
783 0 2 0 2.6598506924278142 10.992059699766232 0.18454831211721512 0 0 1
112 0 1 0 4.279486957241334 8.00559307173661 3.4186764007767745 0 0 0
126 0 2 0 4.399282997516839 9.797592483574881 3.689228998403861 0 0 0
176 0 2 0 6.841972686282294 9.083684554706476 1.7562251380293332 0 0 0
175 0 1 0 7.552485459748154 8.676517777849329 2.2588476819311993 0 0 0
142 0 1 0 5.62147434383471 9.443414972802199 0.5269639504601484 0 0 0
155 0 2 0 7.604723998719752 10.149407473831722 3.5575313739984407 0 0 0
124 0 1 0 4.291315102295794 10.75767156073105 3.8762085804341804 0 0 0
122 0 2 0 4.586926060795627 11.812937916452126 2.5563981692491744 0 0 0
156 0 2 0 7.565992985759918 11.70959544802204 3.214063887051011 0 0 0
154 0 1 0 7.8421446804521 11.027694299676675 3.8770868278783994 0 0 0
147 0 2 0 8.830898440562226 9.310775139499512 0.9518518884140059 0 0 0
179 0 2 0 11.024746007968108 9.299986806339541 0.4346999024713287 0 0 0
178 0 1 0 11.979066963041 9.346109553396976 0.28898516145407854 0 0 0
161 0 2 0 9.550744798133186 10.762609961354508 3.5792819006650998 0 0 0
162 0 2 0 10.570151355365795 9.6030315963006 3.1995752300820213 0 0 0
160 0 1 0 10.556439593754915 10.590156436436299 3.436416011267524 0 0 0
158 0 2 0 11.243231149241668 11.635898827874135 2.0485273354236746 0 0 0
211 0 1 0 14.050551535118004 8.874348226388717 1.8439442950066323 0 0 0
212 0 2 0 13.799520796713963 9.19881772525994 2.738075923024445 0 0 0
213 0 2 0 13.201494112140365 9.012124401716706 1.365001333319529 0 0 0
183 0 2 0 15.32164216074357 9.63674669082526 0.8961173711887843 0 0 0
181 0 1 0 15.981717277049924 9.799212203795102 0.1933615586413353 0 0 0
191 0 2 0 14.286671738912842 11.688635368068702 3.0306158113701147 0 0 0
190 0 1 0 14.369829209267188 10.92544573305972 3.6373683749788768 0 0 0
192 0 2 0 15.283336041148097 10.687163707108434 3.6178018852701608 0 0 0
184 0 1 0 17.290568143369974 8.048622054439836 3.076980509229609 0 0 0
186 0 2 0 17.416678843318316 8.985850763782723 2.861832621281643 0 0 0
216 0 2 0 17.679192191399935 9.554703322356513 0.8481591062822633 0 0 0
214 0 1 0 18.595297583759866 9.206608846061153 0.8204470786551067 0 0 0
196 0 1 0 17.20876142603347 10.933298740027348 3.3977173585898552 0 0 0
197 0 2 0 17.383203467815296 11.733587948357304 2.8341294982255647 0 0 0
198 0 2 0 17.77783343533891 11.059221158143295 4.189388229787728 0 0 0
129 0 2 0 1.0747940761471122 12.048399509493997 2.6176693243180815 0 0 0
782 0 2 0 1.7779263261609142 12.073464273629837 0.8113556850988417 0 0 1
127 0 1 0 0.6860863993787706 12.70342491147071 1.9889137449223973 0 0 0
249 0 2 0 0.702440314795151 14.264936064854133 2.1723152339799907 0 0 0
221 0 2 0 3.030946060231682 14.485543545336743 3.764172051925045 0 0 0
220 0 1 0 3.820626437729399 14.769764700111251 3.307758399987943 0 0 0
247 0 1 0 0.6595345100072362 15.220151382149309 2.305264771314876 0 0 0
218 0 2 0 1.9138587013084476 15.77999310615041 1.3041651841048874 0 0 0
123 0 2 0 4.0560055456107325 12.507356639360738 1.2662979864548911 0 0 0
222 0 2 0 4.186967700522663 13.984572592644366 2.845870568887531 0 0 0
121 0 1 0 4.726334461815858 12.5929877320859 1.958992465667395 0 0 0
165 0 2 0 6.398882298519702 12.742556283886788 1.9258050143950012 0 0 0
163 0 1 0 7.355596427955208 12.85348350846745 1.9730332562924047 0 0 0
164 0 2 0 7.540755041025109 13.80349174889746 1.954606186612384 0 0 0
283 0 1 0 7.581980701413128 15.522453321122084 1.8883507301801838 0 0 0
284 0 2 0 6.735315352484346 15.77776291436109 1.5602890978031214 0 0 0
818 0 2 0 10.002465393605325 12.356803581759753 0.21802748652411863 0 0 1
819 0 2 0 8.507708928633843 12.475635227358143 0.4152728117640577 0 0 1
258 0 2 0 9.784055266877676 14.126982286236807 3.480504658861576 0 0 0
157 0 1 0 11.326405844230656 12.317648243606314 1.3999258076077752 0 0 0
159 0 2 0 11.104501278528653 13.056527059517936 1.9778698331712115 0 0 0
256 0 1 0 10.600365922495559 14.291418085536238 3.0089005936547313 0 0 0
285 0 2 0 8.233981662328118 15.627497088784757 1.1201580901602455 0 0 0
257 0 2 0 10.587865767496274 15.233445668564078 2.883643271461683 0 0 0
286 0 1 0 11.97602908824984 15.790731132738298 0.3632587317960563 0 0 0
855 0 2 0 14.932680069772 12.597592125727996 0.6437247405314102 0 0 1
200 0 2 0 12.979851737609994 12.83973210029516 1.69103598445585 0 0 0
199 0 1 0 13.906510397977543 13.00794371257566 1.9902415346604714 0 0 0
201 0 2 0 13.85900454378288 13.949701393060653 2.2241761802551925 0 0 0
319 0 1 0 13.97108001124302 15.821216815399799 2.304891966350326 0 0 0
320 0 2 0 13.093448353421184 15.93802846716468 1.8357500178960693 0 0 0
291 0 2 0 15.169640299999243 15.901956710173044 0.8918473676037085 0 0 0
128 0 2 0 19.86199566596166 12.415249888701727 1.827911669486857 -1 0 0
195 0 2 0 17.30799976381131 12.857830252475024 0.8212828181077471 0 0 0
193 0 1 0 17.985107226663832 12.844863062772742 1.5532413625220212 0 0 0
194 0 2 0 17.96074668831743 13.7381801823774 1.9140450059048668 0 0 0
292 0 1 0 17.29408825793495 15.163768327922469 3.205691187971088 0 0 0
294 0 2 0 16.43713791120864 15.09920567802943 3.657672720461042 0 0 0
248 0 2 0 19.87993396263276 15.463134479399292 1.9726404498619285 -1 0 0
322 0 1 0 18.598098316691296 16.038864298068113 0.6041086029833754 0 0 0
290 0 2 0 16.77221813441698 16.05439942772407 0.5333781978473349 0 0 0
227 0 2 0 1.1595007146901612 16.552490799150384 3.5163070845414555 0 0 0
235 0 1 0 0.602323002620621 19.479564742839827 2.1291521295268625 0 0 0
236 0 2 0 0.7535918167087705 18.635611585239573 2.609624700681982 0 0 0
237 0 2 0 1.2373686625773654 19.392366717371253 1.3426584630081781 0 0 0
226 0 1 0 1.2261616673675027 17.31533169228026 4.083989692458928 0 0 0
228 0 2 0 2.1765971550844787 17.51439628200373 4.166178087694252 0 0 0
891 0 2 0 3.3075636997250624 18.841644671480587 0.29796887736864025 0 0 1
233 0 2 0 3.833659360459476 16.501294176167818 3.061742543674842 0 0 0
232 0 1 0 3.896502707953676 17.410918515339638 3.4064824075737468 0 0 0
217 0 1 0 2.52345408358875 16.11174012782049 0.6526309923501958 0 0 0
251 0 2 0 4.443541890293986 16.29606881823208 0.732732113994017 0 0 0
234 0 2 0 4.160137043185117 17.945836511422364 2.6519611545336006 0 0 0
229 0 1 0 4.581385932705179 19.421756762416578 1.6110983806097072 0 0 0
250 0 1 0 5.355369843139472 16.264562678141417 0.40119733404194424 0 0 0
231 0 2 0 5.518904901212701 19.30967704185253 1.5353150329635503 0 0 0
271 0 1 0 7.345346774118817 19.338718896743465 2.08241787173396 0 0 0
273 0 2 0 7.510254825675717 18.829029284252407 2.8899420595154623 0 0 0
263 0 2 0 7.797921445058389 16.43917365316713 3.4776034380398766 0 0 0
266 0 2 0 11.011986571919865 20.103768685822814 2.1218585718538012 0 0 0
262 0 1 0 8.089518284964676 17.22202778788172 4.012219955166545 0 0 0
927 0 2 0 8.317691036161774 18.752485488208308 0.6990825045045618 0 0 1
264 0 2 0 9.053958154232228 17.12213069690712 4.016478507452375 0 0 0
265 0 1 0 11.160942915898652 19.258191577580206 1.6908756194125385 0 0 0
267 0 2 0 10.413421050234046 19.116207154053058 1.093904161446344 0 0 0
268 0 1 0 10.859670654025146 17.014946176043708 3.284394475533379 0 0 0
269 0 2 0 11.01993814671281 17.72702399003235 2.558403744108004 0 0 0
270 0 2 0 11.549369495463061 17.29055807999508 3.9680859862080995 0 0 0
321 0 2 0 14.091062813572123 16.53735609511343 2.890427357590876 0 0 0
307 0 1 0 13.900164075079893 19.927494493456216 2.2775775836569188 0 0 0
308 0 2 0 12.977251536902532 19.675250292261026 2.1688398470711916 0 0 0
309 0 2 0 14.196400779986101 19.311956612541145 3.0197926793057905 0 0 0
963 0 2 0 15.201379775035369 19.456667412138593 0.9190285872773614 0 0 1
298 0 1 0 14.689825991571487 17.84672914517217 3.9401323294572457 0 0 0
300 0 2 0 15.60561980524125 17.786729456735905 4.205254530979324 0 0 0
961 0 1 0 15.83068244462123 19.109647012057323 0.2860159986197212 0 0 1
962 0 2 0 15.65533801182545 18.169020897701387 0.33527958084236986 0 0 1
289 0 1 0 15.874439669051064 16.35118140292598 0.34302322120901607 0 0 0
293 0 2 0 17.42718367226938 16.156144992855083 3.2734702769273536 0 0 0
301 0 1 0 18.05230282879081 19.548260202678932 2.010894751061853 0 0 0
302 0 2 0 17.67121563792593 19.43859292366379 1.12580429768515 0 0 0
303 0 2 0 19.059564636685607 19.471523489737095 1.9453159992686553 0 0 0
304 0 1 0 17.368246514482383 17.776542224400316 4.009489428966307 0 0 0
306 0 2 0 17.45092589730461 18.49734188074816 3.347142470757137 0 0 0
323 0 2 0 18.85097319849885 16.95896662675137 0.45064879339907793 0 0 0
22 0 1 0 2.16393956419133 0.9873537427835524 5.0757712851316645 0 0 0
23 0 2 0 2.353353748898565 1.5807173310888663 5.837366524004342 0 0 0
325 0 1 0 2.7668675722125284 2.6656124249166973 7.033474672421135 0 0 0
327 0 2 0 2.635079456938907 3.626143436035935 6.862505526410494 0 0 0
101 0 2 0 0.522340911436896 0.6635849892625865 5.01192373696321 1 0 0
326 0 2 0 3.77906792597183 2.5106462903896745 7.21993625700252 0 0 0
24 0 2 0 2.3005754409530423 0.08895285781437665 5.423219141304375 0 0 0
356 0 2 0 1.7355870289688275 2.3409663055168837 8.29019107473778 0 0 0
357 0 2 0 0.19403669444885957 2.1595664526310365 8.325599928635228 0 0 0
29 0 2 0 6.792232672948541 0.7223294378000992 5.051433033278845 0 0 0
28 0 1 0 5.782330127492435 0.7902975699778484 5.106804449905157 0 0 0
358 0 1 0 5.461732311355495 2.3470047706649857 7.54578987714762 0 0 0
359 0 2 0 5.63379801642081 1.7411933916354763 6.836276255963854 0 0 0
360 0 2 0 6.001242508022944 2.028013348460958 8.292400049491759 0 0 0
48 0 2 0 7.634029322304024 3.80281608206923 4.776171510521064 0 0 0
30 0 2 0 5.493232339770392 -0.04035724871338357 5.429893500010788 0 0 0
42 0 2 0 11.406941467156479 0.6399507982530808 4.491361493163914 0 0 0
58 0 1 0 8.522062456861617 0.638697361829207 5.074151850311177 0 0 0
59 0 2 0 8.824849871059918 1.2912524661824603 5.779374933046857 0 0 0
361 0 1 0 9.132970403667274 2.1061972473294137 7.283975085810167 0 0 0
362 0 2 0 10.081848287803199 1.8993159676130493 7.440609735064215 0 0 0
363 0 2 0 9.165323441805278 3.084675421255091 7.018331328124231 0 0 0
394 0 1 0 12.106996115415146 2.0245526548353427 7.671972954940974 0 0 0
396 0 2 0 12.290233894536515 2.8091638823410965 7.164332540248403 0 0 0
66 0 2 0 12.492373959710433 0.8061211566961769 6.485130864395473 0 0 0
65 0 2 0 13.476414776911758 0.3494618672027448 5.4480073936608076 0 0 0
64 0 1 0 12.628899616345498 0.1084028329104712 5.8510620015837045 0 0 0
395 0 2 0 12.88462309373626 1.9498437545097218 8.302916259810758 0 0 0
94 0 1 0 15.3353346856944 1.04811874017912 5.178277942158398 0 0 0
95 0 2 0 15.721918872970456 1.6815254584089045 5.843285143786642 0 0 0
96 0 2 0 15.850797139726964 0.9693487814362991 4.364426089141295 0 0 0
399 0 2 0 16.13148651447737 3.8460221148135236 7.174670165880914 0 0 0
397 0 1 0 16.20786751337227 2.8998094049517675 7.386651857248278 0 0 0
100 0 1 0 19.629254698787385 0.6865750391178339 5.048704551797579 0 0 0
398 0 2 0 17.206808322792664 2.7688338583371093 7.342655709672178 0 0 0
430 0 1 0 19.009426597546767 2.5847578588427393 7.126805771275191 0 0 0
431 0 2 0 19.21425402176094 1.918631353409551 6.445675472497437 0 0 0
432 0 2 0 19.14889899164489 3.399406376221609 6.611808939838052 0 0 0
12 0 2 0 2.0502834586968417 4.305988205024561 4.291519200489267 0 0 0
11 0 2 0 0.4867685080589753 4.236504807635789 4.53131019376708 0 0 0
25 0 1 0 2.4854141903489384 5.468151332979037 6.929430577569794 0 0 0
26 0 2 0 2.5856999902315376 5.978339119371115 6.076115548895039 0 0 0
27 0 2 0 3.268887965689906 5.611443069771568 7.5056614169327105 0 0 0
130 0 1 0 2.2239196980735096 7.400959391843213 4.981854766355562 0 0 0
132 0 2 0 1.3407725343482726 7.534553060960058 4.704301980513867 0 0 0
344 0 2 0 1.01962875613985 5.708507766569443 7.9374690014394185 0 0 0
9 0 2 0 5.012116187293638 4.512061573512626 5.378420652520781 0 0 0
8 0 2 0 5.573511524292935 4.1424487840967155 6.696048010971756 0 0 0
7 0 1 0 5.871563464165028 4.520858949237438 5.849422606715665 0 0 0
136 0 1 0 5.964017236778854 7.305731279914837 5.312127895804476 0 0 0
137 0 2 0 5.7325987553866415 6.360714053722164 5.4900481858355885 0 0 0
138 0 2 0 6.912025429511877 7.347902775697698 5.04361433926377 0 0 0
339 0 2 0 5.4868196800815365 5.886502452496709 8.319206509457937 0 0 0
53 0 2 0 11.209773089454997 4.112916096327584 4.770655332785082 0 0 0
63 0 2 0 8.437178305906817 5.23433481454426 7.38604673875788 0 0 0
61 0 1 0 9.159498306674921 4.9007606830143855 6.7774159167149985 0 0 0
167 0 2 0 8.876779609884071 6.317798705050589 5.244450186296699 0 0 0
166 0 1 0 8.835738018812355 7.254160637009288 4.9648156534872365 0 0 0
62 0 2 0 9.923571249592385 5.3796658783033795 7.1263772415021025 0 0 0
168 0 2 0 8.94119263361148 7.82909770785038 5.728491101560836 0 0 0
373 0 1 0 11.150354755507388 5.925715033976856 8.178645155584729 0 0 0
44 0 2 0 13.303499943501057 4.438401156621098 5.523652478508183 0 0 0
173 0 2 0 12.169295439912673 7.476579804445658 4.738649268091936 0 0 0
43 0 1 0 12.599128570513285 4.365643722168518 6.193684873997593 0 0 0
45 0 2 0 12.397656563881347 5.291519496120029 6.403996445136998 0 0 0
172 0 1 0 12.615962018934102 7.048536876651279 5.474808061626139 0 0 0
416 0 2 0 14.396699271206117 5.639109142548277 8.02078755882492 0 0 0
174 0 2 0 13.577600727356947 7.086695975815954 5.184193451198975 0 0 0
99 0 2 0 15.701781210834374 5.86749589217843 6.063812366145823 0 0 0
97 0 1 0 15.838124002469216 5.554624753747643 6.939376086938008 0 0 0
202 0 1 0 15.225299337815056 7.528345424313393 4.8761158094914645 0 0 0
81 0 2 0 18.344186420429892 4.824051245648306 4.892846487299497 0 0 0
79 0 1 0 19.19026865145271 4.962693341355467 5.387744987987356 0 0 0
98 0 2 0 16.674918951119793 5.83152307222929 7.2666415120592465 0 0 0
80 0 2 0 19.46096988001967 5.885863173204672 5.299767435067427 0 0 0
208 0 1 0 19.628691044114692 7.930195556385327 4.939983728790611 0 0 0
435 0 2 0 2.7668881890833905 8.677886266395193 6.425980194877371 0 0 0
433 0 1 0 2.6778067933900105 9.382633003319365 7.090006260294573 0 0 0
434 0 2 0 3.5835022109126258 9.409456788964436 7.500408824274218 0 0 0
465 0 2 0 1.4723813412689173 8.790437805171909 8.18827666253325 0 0 0
135 0 2 0 2.180086328046951 11.142653476500456 6.6454758900286235 0 0 0
189 0 2 0 0.0017000390669045726 11.153997100900787 4.796855988759333 1 0 0
468 0 2 0 5.744638761281424 8.751778279604133 6.789064865366611 0 0 0
466 0 1 0 5.526927068155412 9.479803427200917 7.430006050452769 0 0 0
125 0 2 0 4.829619286871433 10.962499064583646 4.656263508930318 0 0 0
467 0 2 0 5.72794915348391 10.285860195980945 7.01344464268613 0 0 0
115 0 1 0 5.866026657528117 11.556779306998665 5.756677190658882 0 0 0
116 0 2 0 6.569355992232445 11.405392898667516 5.103372803865849 0 0 0
469 0 1 0 9.079535409501426 9.32310287192125 6.898223252525934 0 0 0
471 0 2 0 10.081485109234325 9.368709698731482 7.050543697868098 0 0 0
502 0 1 0 11.828725248006604 8.980151963594567 7.206477093681738 0 0 0
470 0 2 0 8.824784120047036 10.20215692670279 6.622714445914991 0 0 0
152 0 2 0 11.571640377085856 10.578867761980609 4.791494025997806 0 0 0
504 0 2 0 11.999083937895284 9.708957555187617 6.620177582082199 0 0 0
500 0 2 0 8.060909935398302 8.634199466287676 8.340175685594769 0 0 0
503 0 2 0 12.0620180354217 8.1835334086468 6.692872937841064 0 0 0
203 0 2 0 15.522485941306007 8.0689396182747 5.586008785229311 0 0 0
507 0 2 0 15.65436132246561 9.083724519605369 7.637894653719557 0 0 0
537 0 2 0 13.436191559384103 8.850498227983488 8.33988863309778 0 0 0
151 0 1 0 12.273842590997306 10.934076517478317 5.355251744565706 0 0 0
153 0 2 0 13.082096292334624 10.772504364983597 4.827328690753749 0 0 0
206 0 2 0 15.056715916522721 11.887403736400056 7.437728217711153 0 0 0
207 0 2 0 15.859681460432244 10.83365033637312 6.59385770603032 0 0 0
205 0 1 0 15.741353543626623 11.806397722147588 6.78436801882954 0 0 0
209 0 2 0 18.782581319156588 8.028880048307494 4.472443920135053 0 0 0
210 0 2 0 19.584982826449146 8.447466828573917 5.7398481080015396 0 0 0
505 0 1 0 16.137830670254424 9.226948383363457 6.794298889543686 0 0 0
506 0 2 0 17.083878115977683 9.201569083249954 7.08136530841336 0 0 0
538 0 1 0 18.871588961856933 9.608499910991362 7.108746513179596 0 0 0
539 0 2 0 19.535891304405073 9.430251103578678 7.87517981919021 0 0 0
540 0 2 0 19.230107594614584 10.354186431976842 6.554601593508631 0 0 0
187 0 1 0 19.27154114585706 11.469976906398117 5.222479144922927 0 0 0
133 0 1 0 2.1791398984476644 12.088754234776722 6.919297483247532 0 0 0
134 0 2 0 3.0688147930429857 12.266761084196636 7.282179662961673 0 0 0
453 0 2 0 0.7778348995278507 12.667824797892434 8.128314529570622 0 0 0
238 0 1 0 1.6128805731232814 13.908943961641091 4.9093217067342225 0 0 0
239 0 2 0 0.6734285408398502 14.149776394747688 5.055194242138473 0 0 0
240 0 2 0 1.7768599429427823 13.209616398686327 5.5552085565589175 0 0 0
542 0 2 0 2.1516315092236877 15.405962764392973 6.3564191789483875 0 0 0
543 0 2 0 3.2333372176036574 16.051970256510288 7.248715669180836 0 0 0
541 0 1 0 2.2332186307113537 15.985083488496281 7.118191930566897 0 0 0
246 0 2 0 4.874444015066553 14.294633134050189 4.66301647267434 0 0 0
117 0 2 0 5.646268639637476 12.530900656545516 5.745037868014349 0 0 0
244 0 1 0 5.699626901532216 14.17699598868357 5.159959773287922 0 0 0
245 0 2 0 5.526209803276402 14.759834868776672 5.940615374837233 0 0 0
276 0 2 0 7.671099519011615 14.318525308665905 4.762074202875185 0 0 0
445 0 1 0 4.6023766743491565 12.989073718809866 8.286171606916113 0 0 0
575 0 2 0 5.665329845404503 15.973668616538971 7.867928969350798 0 0 0
447 0 2 0 5.59410501790508 13.007197120949433 8.153416072747765 0 0 0
487 0 1 0 7.477054167071604 12.86352922841697 8.161239323367731 0 0 0
489 0 2 0 8.181702531096624 12.541126188462124 7.609545611825192 0 0 0
169 0 1 0 9.464822084345245 12.048492329952488 6.615153888464909 0 0 0
170 0 2 0 9.211538488923344 12.777665708556277 5.954103880386985 0 0 0
274 0 1 0 8.614159762234026 14.340634295568917 4.8969762012118325 0 0 0
275 0 2 0 8.706200784577215 15.103195000691008 5.4565517615131 0 0 0
171 0 2 0 10.30837346213779 12.181667987284694 6.943147459998668 0 0 0
611 0 2 0 11.00810934988319 15.929144147454652 6.980043107671838 0 0 0
612 0 2 0 11.90673268864197 14.91410355803458 6.310025482425197 0 0 0
610 0 1 0 11.970222287274883 15.708955937160244 6.982712977172438 0 0 0
281 0 2 0 12.219891503083488 13.733613923852783 4.2737451726850315 0 0 0
282 0 2 0 12.699742732326595 12.766756077933294 5.3578240182089205 0 0 0
311 0 2 0 14.554930176337681 14.016457259906032 5.202764784881018 0 0 0
280 0 1 0 12.643006638235835 13.73875493518822 5.166924940413932 0 0 0
310 0 1 0 15.478302535415327 14.11202936262988 5.4336626193580795 0 0 0
312 0 2 0 15.696301868633837 13.21613926498435 5.7790592224944985 0 0 0
614 0 2 0 15.719974524946164 15.707104120289154 6.583274210228931 0 0 0
318 0 2 0 18.48318878893146 14.505269425392736 4.482196687737093 0 0 0
188 0 2 0 19.373918786668952 12.429180950440731 5.087630355325551 0 0 0
518 0 2 0 17.532985476026084 12.58803464394754 7.650150564684737 0 0 0
316 0 1 0 19.10399370304573 14.232673657376864 5.243326430532451 0 0 0
317 0 2 0 18.917566145856146 14.873641578341624 5.946418418683982 0 0 0
648 0 2 0 19.04642524179577 16.02222144383007 7.905696693247101 0 0 0
241 0 1 0 2.3873348746399894 18.885716495892154 6.54287137175244 0 0 0
242 0 2 0 2.235365903885748 17.94296583767462 6.523037601697309 0 0 0
243 0 2 0 3.0230934620940286 19.113948847551185 7.247000032415262 0 0 0
560 0 2 0 1.0642462710684297 19.563226147953337 7.771957739781804 0 0 0
574 0 1 0 4.994292436167783 16.12008414003114 7.160351366465145 0 0 0
224 0 2 0 5.233275723717098 17.769004613672287 4.799580633395891 0 0 0
576 0 2 0 5.376599923894278 16.79888454346068 6.60431557998304 0 0 0
223 0 1 0 5.896280667767412 18.018258776215717 5.477828987468299 0 0 0
225 0 2 0 6.696580432648825 17.750887092819134 4.993080065517016 0 0 0
597 0 2 0 6.255472851053494 19.06470250090191 8.21269454022169 0 0 0
60 0 2 0 8.710736789217183 20.04796368294344 5.461011426060745 0 -1 0
578 0 2 0 8.65234195218426 16.075804617502172 7.468273680189239 0 0 0
577 0 1 0 9.354610853914727 16.250152187082882 6.777627618797046 0 0 0
278 0 2 0 8.350753928240513 19.12640748768373 7.587676277854742 0 0 0
277 0 1 0 9.07799614818455 19.00263797433084 6.910401897518963 0 0 0
579 0 2 0 9.21651280759704 17.19262029823131 6.499680687864838 0 0 0
279 0 2 0 9.899489847757089 18.937313384505323 7.454940072018277 0 0 0
261 0 2 0 12.595821233835336 17.02906608567305 6.217982692736143 0 0 0
260 0 2 0 12.711714435312379 18.65099616863128 6.104072938796987 0 0 0
259 0 1 0 12.848345452335204 17.799550201628257 5.64737140424855 0 0 0
299 0 2 0 14.147092216683367 17.800362022609853 4.747081781293031 0 0 0
315 0 2 0 15.019665255888093 19.23396859135722 7.490264348260686 0 0 0
313 0 1 0 15.566320275846918 18.92287836071764 6.735651695303978 0 0 0
613 0 1 0 15.911211675977896 16.262762719021772 7.34210785887931 0 0 0
314 0 2 0 15.529121536712854 19.577687655760762 6.076827657085345 0 0 0
615 0 2 0 15.811986637874188 17.23255102646838 7.053735086314063 0 0 0
102 0 2 0 19.38531652101365 20.091484577859475 5.391477443558395 0 -1 0
297 0 2 0 19.976070227479674 17.93405533475933 5.139672474615135 0 0 0
646 0 1 0 18.57920741999586 16.26970654850539 7.089964572711899 0 0 0
647 0 2 0 17.615329360142958 16.257185428946833 7.3406504769605085 0 0 0
305 0 2 0 17.956123890314057 17.997137010150922 4.741233405416298 0 0 0
295 0 1 0 19.450331108399247 18.422213079455865 5.800378462591454 0 0 0
296 0 2 0 19.128607945650604 17.712214528925855 6.447219690734663 0 0 0
627 0 2 0 17.247530641618617 19.333112367562244 7.611756627085226 0 0 0
626 0 2 0 18.680319542543177 19.669446954555006 8.092611422748256 0 0 0
625 0 1 0 17.757179981118878 19.70151585937903 8.35093931160134 0 0 0
335 0 2 0 1.0094682841285614 3.527779911214275 10.129890231450497 0 0 0
346 0 1 0 2.0504844748606996 0.7836742739807994 11.784182860484279 0 0 0
347 0 2 0 2.777086428334802 0.9750536462658677 11.135509126925694 0 0 0
348 0 2 0 1.207746328262425 1.1655412047588556 11.451655799479486 0 0 0
355 0 1 0 1.011527937387281 2.0687550085849424 8.85108052315044 0 0 0
561 0 2 0 0.48049829658428367 0.19821532162279398 8.752948755828504 0 1 0
329 0 2 0 4.453248824962919 2.558420700836558 10.218870939042066 0 0 0
328 0 1 0 4.4330370319896835 1.5714671757117824 10.195970919005939 0 0 0
330 0 2 0 5.1487412417527665 1.1705134221789235 10.773751810553332 0 0 0
393 0 2 0 7.235174584163061 0.6316947082616288 9.018869372582168 0 0 0
353 0 2 0 7.153614148773359 0.4959651310617891 11.841874681808358 0 0 0
391 0 1 0 7.354787317879263 1.5212001500998986 9.216640042367231 0 0 0
554 0 2 0 4.11281898479352 0.22463712250557705 8.925594637329455 0 1 0
352 0 1 0 6.186020326383883 0.5532910237541191 11.935112807237678 0 0 0
392 0 2 0 8.04417733677134 1.763497508347752 8.582420854931586 0 0 0
372 0 2 0 8.139209701143566 3.0245818255495207 10.331932256803166 0 0 0
382 0 1 0 9.072421179120555 0.5627086816307441 11.956422857773608 0 0 0
366 0 2 0 10.223093490346281 0.7628636054970903 10.627314759736027 0 0 0
364 0 1 0 10.888235680152567 0.8841889453296135 9.949186471159512 0 0 0
378 0 2 0 11.308866931693727 2.9851049845096815 10.195434283462435 0 0 0
365 0 2 0 11.668632046912785 0.7076685926511002 10.530925030139613 0 0 0
370 0 1 0 8.085339977691813 3.8772104903996016 10.799068246160635 0 0 0
376 0 1 0 11.056492067232712 3.9113897007956933 10.474064142360776 0 0 0
429 0 2 0 14.934368153278518 2.0793717257797346 8.657577689929028 0 0 0
427 0 1 0 14.332390079787263 1.772980719382829 9.346072162246147 0 0 0
428 0 2 0 14.342962106780954 2.510630160372532 9.982651957840966 0 0 0
389 0 2 0 13.740297242467616 0.5256260936163105 11.913051716828324 0 0 0
388 0 1 0 12.843143206847074 0.9653500187796693 11.947917946785573 0 0 0