LAMMPS (29 Sep 2021 - Update 2)
  using 1 OpenMP thread(s) per MPI task
echo both

include		in.partitions
variable        pid world 0
include		in.temp
variable        temperature equal 250
variable	tempDamp equal 0.1
include		in.pressure
variable        pressure equal 3039.75
variable        pressureDamp equal 1.0 # This is 1 ps
include		in.seed
variable        seed world 745823

units           metal
atom_style	full
include		in.box
read_data       iceIII.data
Reading data file ...
  orthogonal box = (0.0000000 0.0000000 0.0000000) to (19.991053 19.991053 20.800772)
  1 by 1 by 1 MPI processor grid
  reading atoms ...
  972 atoms
Finding 1-2 1-3 1-4 neighbors ...
  special bond factors lj:    0        0        0       
  special bond factors coul:  0        0        0       
     0 = max # of 1-2 neighbors
     0 = max # of 1-3 neighbors
     0 = max # of 1-4 neighbors
     1 = max # of special neighbors
  special bonds CPU = 0.000 seconds
  read_data CPU = 0.023 seconds
include 	in.setup
variable	out_freq equal 500
variable	out_freq2 equal 500

timestep        0.0005

neigh_modify    delay 7 every 1

include         in.deepmd
# This is deepMD model

# create groups ###
#group ox type 2
#group hy type 1

mass 2 15.999
mass 1 1.008

pair_style      deepmd ../graph.pb
pair_coeff      * *

bond_style      none
angle_style     none
dihedral_style  none
improper_style  none
neigh_modify exclude none


neighbor        2.0 bin
neigh_modify    every 10 delay 0 check no

thermo          ${out_freq}
thermo          500
thermo_style 	custom step temp pe etotal epair emol press lx ly lz xy xz yz vol pxx pyy pzz pxy pxz pyz cella cellb cellc cellalpha cellbeta cellgamma

restart 	${out_freq} restart.lmp.${pid} restart2.lmp.${pid}
restart 	500 restart.lmp.${pid} restart2.lmp.${pid}
restart 	500 restart.lmp.0 restart2.lmp.${pid}
restart 	500 restart.lmp.0 restart2.lmp.0


include         in.dump
dump            myDump all atom ${out_freq2} dump.water.${pid}
dump            myDump all atom 500 dump.water.${pid}
dump            myDump all atom 500 dump.water.0
dump            myDump2 all dcd ${out_freq2} dump.dcd
dump            myDump2 all dcd 500 dump.dcd
dump_modify     myDump append yes
dump_modify     myDump2 append yes


timer           timeout 04:55:00 every 1000
New timer settings: style=normal  mode=nosync  timeout=04:55:00

fix             2 all nph aniso ${pressure} ${pressure} ${pressureDamp}
fix             2 all nph aniso 3039.75 ${pressure} ${pressureDamp}
fix             2 all nph aniso 3039.75 3039.75 ${pressureDamp}
fix             2 all nph aniso 3039.75 3039.75 1
fix             3 all temp/csvr ${temperature} ${temperature} ${tempDamp} ${seed}
fix             3 all temp/csvr 250 ${temperature} ${tempDamp} ${seed}
fix             3 all temp/csvr 250 250 ${tempDamp} ${seed}
fix             3 all temp/csvr 250 250 0.1 ${seed}
fix             3 all temp/csvr 250 250 0.1 745823
velocity 	all create ${temperature} ${seed} dist gaussian
velocity 	all create 250 ${seed} dist gaussian
velocity 	all create 250 745823 dist gaussian

run             400000

CITE-CITE-CITE-CITE-CITE-CITE-CITE-CITE-CITE-CITE-CITE-CITE-CITE

Your simulation uses code contributions which should be cited:

- USER-DEEPMD package:

@article{Wang_ComputPhysCommun_2018_v228_p178,
  author = {Wang, Han and Zhang, Linfeng and Han, Jiequn and E, Weinan},
  doi = {10.1016/j.cpc.2018.03.016},
  url = {https://doi.org/10.1016/j.cpc.2018.03.016},
  year = 2018,
  month = {jul},
  publisher = {Elsevier {BV}},
  volume = 228,
  journal = {Comput. Phys. Commun.},
  title = {{DeePMD-kit: A deep learning package for many-body potential energy representation and molecular dynamics}},
  pages = {178--184}
}

CITE-CITE-CITE-CITE-CITE-CITE-CITE-CITE-CITE-CITE-CITE-CITE-CITE

Neighbor list info ...
  update every 10 steps, delay 0 steps, check no
  max neighbors/atom: 2000, page size: 100000
  master list distance cutoff = 8
  ghost atom cutoff = 8
  binsize = 4, bins = 5 5 6
  1 neighbor lists, perpetual/occasional/extra = 1 0 0
  (1) pair deepmd, perpetual
      attributes: full, newton on
      pair build: full/bin
      stencil: full/bin/3d
      bin: standard
Per MPI rank memory allocation (min/avg/max) = 7.648 | 7.648 | 7.648 Mbytes
Step Temp PotEng TotEng E_pair E_mol Press Lx Ly Lz Xy Xz Yz Volume Pxx Pyy Pzz Pxy Pxz Pyz Cella Cellb Cellc CellAlpha CellBeta CellGamma 
       0          250   -175.65013   -144.27223   -175.65013            0     37550.22    19.991053    19.991053    20.800772            0            0            0    8312.8663    41329.716     41781.31    29539.634    -62.74363   -1049.3293   -446.25346    19.991053    19.991053    20.800772           90           90           90 
     500    245.95794   -163.19421   -132.32363   -163.19421            0   -554.30754    20.082292    19.988858    20.549364            0            0            0    8248.9683   -318.38099    367.17486   -1711.7165   -450.89986   -794.95255   -932.75678    20.082292    19.988858    20.549364           90           90           90 
    1000    259.31368   -162.42171   -129.87484   -162.42171            0   -307.90996    20.201851    20.084311     20.30369            0            0            0    8238.0244    114.49971    263.57675   -1301.8064   -1643.3109   -419.47661   -380.70004    20.201851    20.084311     20.30369           90           90           90 
    1500    246.72565   -162.43074   -131.46381   -162.43074            0    10257.712    20.261738    20.159015    20.288739            0            0            0    8287.0706    7255.8076     12424.13    11093.197    1730.8906   -2617.1571    784.81407    20.261738    20.159015    20.288739           90           90           90 
    2000    251.32384   -160.86446    -129.3204   -160.86446            0   -3170.8599    20.189444    20.124275    20.361518            0            0            0    8272.8427   -4799.5089    877.03234    -5590.103    271.59445    -73.11831    1037.7913    20.189444    20.124275    20.361518           90           90           90 
    2500    257.30244   -160.57434    -128.2799   -160.57434            0    4399.7033    19.996523    20.175551    20.499969            0            0            0    8270.5254    5836.4462     4581.129    2781.5347    1932.6756   -381.25139   -12.650942    19.996523    20.175551    20.499969           90           90           90 
    3000     247.2665   -159.41971    -128.3849   -159.41971            0    6258.8468    19.996224    20.215388    20.689009            0            0            0    8363.1474    8243.5438    5227.1984    5305.7982   -589.62233   -625.57972   -2126.2093    19.996224    20.215388    20.689009           90           90           90 
    3500    245.63396   -160.11369   -129.28378   -160.11369            0    1172.9869    20.163166    19.993101    20.565519            0            0            0    8290.4585    3065.3656   -1152.4761    1606.0713    430.29054    593.14326    2733.5773    20.163166    19.993101    20.565519           90           90           90 
    4000    245.86159   -160.62816   -129.76967   -160.62816            0    4912.7074     20.34718    19.974084    20.475984            0            0            0    8321.7735    5023.3237    5490.4411    4224.3574    490.68057   -253.72083    670.30681     20.34718    19.974084    20.475984           90           90           90 
    4500     255.1171   -161.92734   -129.90718   -161.92734            0    3445.5942    20.193114    20.075719    20.376229            0            0            0    8260.3456    2562.7818    2754.3225    5019.6783   -956.49481    543.52903   -3230.1801    20.193114    20.075719    20.376229           90           90           90 
    5000     239.5332   -159.45566   -129.39147   -159.45566            0    4326.8272    20.062633    20.200951    20.483148            0            0            0    8301.4978    3854.9599    6556.9967    2568.5251   -1522.8545   -827.32056   -2143.9453    20.062633    20.200951    20.483148           90           90           90 
    5500     247.4412   -162.17888   -131.12214   -162.17888            0    2760.5557    19.989028    20.221563    20.524042            0            0            0    8296.0101    3051.7417    2056.5371    3173.3883    1093.6377    1431.7911     1346.571    19.989028    20.221563    20.524042           90           90           90 
    6000    249.56086   -160.68074   -129.35796   -160.68074            0    1648.6447    20.111162    20.141052    20.583174            0            0            0    8337.4196    6602.4602   -2290.7454    634.21924   -1231.5137   -1012.9273   -705.40983    20.111162    20.141052    20.583174           90           90           90 
    6500    258.66439   -162.90182   -130.43643   -162.90182            0    5923.3603    20.183146    19.996941    20.468607            0            0            0    8261.1537    3860.8351    8538.5886    5370.6573   -554.52002    1407.3948    1794.2978    20.183146    19.996941    20.468607           90           90           90 
    7000    247.37408   -159.02918   -127.98086   -159.02918            0    2933.5345    20.260055    20.165786    20.360533            0            0            0    8318.4977    2419.3516    1319.6502    5061.6017   -1156.6153    1369.0546   -637.11829    20.260055    20.165786    20.360533           90           90           90 
    7500    246.89891   -159.04234   -128.05366   -159.04234            0    1352.7595    20.160952    20.333031    20.265031            0            0            0    8307.3106    5311.2162   -2805.5766    1552.6388    2259.4817    90.716498    330.11338    20.160952    20.333031    20.265031           90           90           90 
    8000    247.20419   -160.57011   -129.54311   -160.57011            0     3038.377    20.035582    20.259566    20.425947            0            0            0    8291.1411    3561.1066    2359.5251    3194.4995   -2025.5413   -232.24712    1903.6167    20.035582    20.259566    20.425947           90           90           90 
    8500    243.89815   -161.23676   -130.62471   -161.23676            0    4331.6434    20.003511    19.999906    20.697399            0            0            0     8280.374    5536.5591    3875.0958    3583.2753    911.23352    1975.5347   -178.90412    20.003511    19.999906    20.697399           90           90           90 
    9000    255.65082   -159.97606   -127.88892   -159.97606            0    2865.5226    20.212562     19.99137    20.776827            0            0            0     8395.434    5673.0162    2437.8861    485.66534    390.96095   -771.87621    1164.6562    20.212562     19.99137    20.776827           90           90           90 
    9500    259.83755   -160.99265   -128.38002   -160.99265            0    2863.8652    20.237998    20.091549    20.497164            0            0            0    8334.4078    2092.3649    1361.8843    5137.3463    73.992774    445.96658    2542.0171    20.237998    20.091549    20.497164           90           90           90 
   10000     251.0988   -159.24642   -127.73061   -159.24642            0    4413.8523     20.13723    20.235723    20.218059            0            0            0    8238.6856    3332.2952    7239.4748     2669.787   -1520.1728   -799.27192    358.60191     20.13723    20.235723    20.218059           90           90           90 
   10500    256.58875   -158.26593   -126.06107   -158.26593            0    4436.5006     20.20559    20.301083     20.25903            0            0            0    8310.1603    4066.2803    4813.6097    4429.6119    983.16899    1503.8056    619.72545     20.20559    20.301083     20.25903           90           90           90 
   11000    257.83151   -160.72178   -128.36093   -160.72178            0    1522.2886     20.27615     20.13163    20.526646            0            0            0    8378.8118   -42.525968    4248.5527    360.83921    648.67513   -846.60456    1417.8837     20.27615     20.13163    20.526646           90           90           90 
   11500    248.40368   -160.59446   -129.41692   -160.59446            0     2611.254    20.168243    19.960869    20.715203            0            0            0    8339.4361    1041.5325    5122.6922    1669.5373   -73.187175    2263.8976    434.17144    20.168243    19.960869    20.715203           90           90           90 
   12000    250.82391   -159.70859   -128.22728   -159.70859            0    3346.7493    20.038309    19.978157    20.595419            0            0            0    8244.9328     5859.988     3127.346    1052.9138   -1043.2471   -991.08562   -1234.7307    20.038309    19.978157    20.595419           90           90           90 
   12500    252.51041      -159.57   -127.87702      -159.57            0    909.12495    20.206949    20.249867    20.481886            0            0            0    8380.9423    29.728582    396.02729     2301.619   -337.97061   -445.23348    1181.6767    20.206949    20.249867    20.481886           90           90           90 
   13000    248.10988   -158.28986   -127.14919   -158.28986            0    5711.9719    20.230082    20.228692    20.355361            0            0            0    8329.9856    3920.7032     7134.883    6080.3295   -253.44599    1324.7868   -3689.4402    20.230082    20.228692    20.355361           90           90           90 
   13500    255.67009   -161.55377   -129.46421   -161.55377            0    4465.7075    20.145465    20.081091    20.367536            0            0            0    8239.5421     5835.385    4704.7463    2856.9912   -644.37774   -1832.4052   -2072.8308    20.145465    20.081091    20.367536           90           90           90 
   14000    241.82371   -161.03533   -130.68365   -161.03533            0     825.1712    20.231163    20.060474    20.649293            0            0            0    8380.4481   -533.31291    3320.1836   -311.35704    483.53142   -588.81522   -1351.9987    20.231163    20.060474    20.649293           90           90           90 
   14500    241.25706   -161.58824   -131.30768   -161.58824            0    2441.0254    20.171487    20.061161    20.796418            0            0            0    8415.5504    1985.3881    4107.5554    1230.1326    355.88824    1349.7274     443.1987    20.171487    20.061161    20.796418           90           90           90 
   15000    249.52369   -159.81174   -128.49362   -159.81174            0    1737.7013    19.995523    20.051486    20.595141            0            0            0    8257.4152   -1029.9175    2800.2675    3442.7539   -1652.4212   -181.54086    2484.0419    19.995523    20.051486    20.595141           90           90           90 
   15500     249.9639   -160.52914   -129.15577   -160.52914            0    3884.3316    20.095812    20.157741    20.326765            0            0            0     8234.091     4541.505    4760.0486    2351.4413    177.74861   -775.71221     1517.168    20.095812    20.157741    20.326765           90           90           90 
   16000    256.07998   -160.63903   -128.49803   -160.63903            0    4324.3345    20.394214     20.28532    20.266985            0            0            0    8384.5157    2878.0508    2822.7371    7272.2157    -1485.309   -2216.5929    3558.8951    20.394214     20.28532    20.266985           90           90           90 
   16500    259.11918   -160.91477   -128.39231   -160.91477            0    3847.7612    20.247568     20.09981    20.403835            0            0            0    8303.7955    2059.1229    6677.2346    2806.9262   -803.39331   -2185.5504    664.27414    20.247568     20.09981    20.403835           90           90           90 
   17000    262.74103   -161.60572   -128.62867   -161.60572            0    3505.2644    19.997225    20.059235    20.631073            0            0            0    8275.7224    5009.1187    6164.2969    -657.6224   -976.02607    1619.3116   -1802.9604    19.997225    20.059235    20.631073           90           90           90 
   17500    247.70681   -160.14495   -129.05487   -160.14495            0     4613.189     20.01791    20.210601    20.640473            0            0            0    8350.5988    3246.4532    2650.0609     7943.053   -1404.2282    539.02653    252.97441     20.01791    20.210601    20.640473           90           90           90 
   18000    246.15848   -161.76739   -130.87165   -161.76739            0    4781.9191    20.212224     20.22913    20.453886            0            0            0    8363.0973    6133.4212    4311.2461    3901.0899    640.50313   -1424.4148    -3751.252    20.212224     20.22913    20.453886           90           90           90 
   18500    246.78684   -160.84021   -129.86559   -160.84021            0    4510.7523    20.275517    20.076095    20.301073            0            0            0    8263.6169    4899.5511    5684.0579    2948.6478    201.72387    3106.8863   -1046.3127    20.275517    20.076095    20.301073           90           90           90 
   19000    248.79591   -160.97777     -129.751   -160.97777            0     5822.762    20.217295    20.031597    20.398181            0            0            0    8260.9517    7626.4472    5250.8315    4591.0072   -1289.2991   -1898.3611   -2333.5284    20.217295    20.031597    20.398181           90           90           90 
   19500    247.18193   -160.18117   -129.15697   -160.18117            0    2654.3943    20.203303    20.099448    20.638431            0            0            0    8380.7557   -321.83777    6328.5546    1956.4661   -373.54932    1362.4359    -1610.133    20.203303    20.099448    20.638431           90           90           90 
   20000    244.58841   -161.25689   -130.55821   -161.25689            0    1738.2156    20.050159      20.0864     20.56135            0            0            0    8280.7857     2052.322    2810.6772    351.64759   -477.83783    -2076.134   -685.00615    20.050159      20.0864     20.56135           90           90           90 
   20500    246.48647   -161.18336   -130.24645   -161.18336            0    5081.5332    20.090577    20.122833    20.431738            0            0            0    8260.1291    5403.3065    5963.4751    3877.8179   -1092.2151    2215.2468   -965.29624    20.090577    20.122833    20.431738           90           90           90 
   21000    250.71524   -161.72054   -130.25287   -161.72054            0    698.13435    20.277436    20.152633    20.385886            0            0            0    8330.5644   -2333.7151    2294.4648    2133.6534   -1053.2256   -2393.8918   -126.51151    20.277436    20.152633    20.385886           90           90           90 
   21500     246.5582   -162.55865   -131.61274   -162.55865            0    4630.6345    20.225661    20.136094    20.446035            0            0            0    8326.9712    4568.6805    6934.8666    2388.3565    54.409472    2674.8978    709.87749    20.225661    20.136094    20.446035           90           90           90 
   22000    246.43671   -160.49566   -129.56499   -160.49566            0    2755.4771    20.087074    20.131794    20.632808            0            0            0    8343.6771    2468.1847    2679.4587     3118.788    1388.6955    721.93939    1117.6028    20.087074    20.131794    20.632808           90           90           90 
   22500    252.96578   -160.43301   -128.68287   -160.43301            0    518.82395    19.963986    20.013462    20.643703            0            0            0    8248.1601   -1654.0173    3542.0792   -331.59013    1348.3917    648.74618    1592.3657    19.963986    20.013462    20.643703           90           90           90 
   23000    234.67531   -160.63224   -131.17777   -160.63224            0    3230.8257    20.249611    20.053829    20.554891            0            0            0    8346.9759    1870.6438    4378.4482    3443.3852   -692.62927   -473.02795   -2089.6213    20.249611    20.053829    20.554891           90           90           90 
   23500    245.06056   -159.75353   -128.99558   -159.75353            0   -3302.3861    20.469891    20.185361    20.265437            0            0            0    8373.5192   -4696.0063   -6082.4561      871.304    1165.7453   -624.09709    1983.1602    20.469891    20.185361    20.265437           90           90           90 
   24000    254.40114   -158.97835   -127.04806   -158.97835            0    5993.1571     20.17782    20.240503    20.120893            0            0            0     8217.558    3203.6395    8965.4141    5810.4176   -892.27372     -1180.36    936.53562     20.17782    20.240503    20.120893           90           90           90 
   24500    251.66497    -160.4832   -128.89632    -160.4832            0    3702.2861     20.08552    20.349231    20.455163            0            0            0    8360.5342    4576.6714    2103.8512    4426.3358    1085.5631     1795.634    659.17438     20.08552    20.349231    20.455163           90           90           90 
   25000    260.57423   -161.10354   -128.39845   -161.10354            0    4668.5972    20.035515     20.04775    20.646242            0            0            0    8292.9139    4051.6673    5431.7632    4522.3612   -1072.9148   -2564.5063    1894.7942    20.035515     20.04775    20.646242           90           90           90 
   25500    249.74126   -158.94935   -127.60392   -158.94935            0    890.00251     20.24861    20.066117    20.751836            0            0            0    8431.6988    4814.0667   -2288.7024    144.64319    711.08328   -538.75737   -2253.0096     20.24861    20.066117    20.751836           90           90           90 
   26000    262.91119   -160.57835   -127.57995   -160.57835            0    3595.7408    20.211379    20.073414    20.370846            0            0            0    8264.6842    2132.6457    3915.1913    4739.3855    211.03742    1616.4027    1333.8732    20.211379    20.073414    20.370846           90           90           90 
   26500    246.06109   -160.46282    -129.5793   -160.46282            0    918.54345     20.23707    20.276709    20.254222            0            0            0    8311.1412    331.82497    730.04831    1693.7571   -1731.9129    1162.5817   -385.06729     20.23707    20.276709    20.254222           90           90           90 
   27000    252.63399   -159.09485   -127.38636   -159.09485            0    1995.8235    20.177644    20.325666    20.372004            0            0            0    8355.0488    4516.9692    2375.2157    -904.7143    995.00878    1798.4438    1302.7417    20.177644    20.325666    20.372004           90           90           90 
   27500    250.13818   -160.30048   -128.90524   -160.30048            0    4715.1503    20.007966    20.060698    20.473025            0            0            0    8217.3355    2049.6911    6612.3151    5483.4448   -1562.0829   -1310.5097   -259.06167    20.007966    20.060698    20.473025           90           90           90 
   28000    241.21949    -160.0264   -129.75056    -160.0264            0    2639.0792    20.145854    20.130648     20.75815            0            0            0    8418.4488    2586.8648    5058.9435    271.42946    695.71648    478.11971    -1625.312    20.145854    20.130648     20.75815           90           90           90 
   28500    248.86487   -159.41762   -128.18219   -159.41762            0    5930.7637    20.144941    20.042149    20.644821            0            0            0    8335.3037     4400.547     8764.313     4627.431     433.5245    1131.5271    1565.1235    20.144941    20.042149    20.644821           90           90           90 
   29000    256.12877   -160.71217   -128.56504   -160.71217            0    1872.2903    20.161773    20.070295    20.485462            0            0            0    8289.4981    1809.2319     4064.623   -256.98409   -160.00599    2633.2127   -393.95588    20.161773    20.070295    20.485462           90           90           90 
   29500    249.82679   -158.78429   -127.42813   -158.78429            0    348.75298    20.225258    20.225342    20.456068            0            0            0    8367.8155     1265.132     568.9823   -787.85534    782.43225   -939.67149    279.80282    20.225258    20.225342    20.456068           90           90           90 
   30000     266.2862   -159.10132   -125.67932   -159.10132            0     6505.914    20.109633    20.163355    20.409476            0            0            0    8275.5868    7719.6863    6927.1365    4870.9191    187.00436    477.41709    78.165978    20.109633    20.163355    20.409476           90           90           90 
   30500    254.59321   -159.82197   -127.86757   -159.82197            0    3830.4714    20.192727    20.214436    20.566943            0            0            0    8395.1091    7345.6723    1710.7927     2434.949   -523.43663   -1468.6875     1937.217    20.192727    20.214436    20.566943           90           90           90 
   31000    256.21021   -159.02763   -126.87028   -159.02763            0    -1484.913    20.237418    20.182134    20.668629            0            0            0    8441.7764    -442.2333    311.02626   -4323.5321    818.84466   -54.290409    1437.7108    20.237418    20.182134    20.668629           90           90           90 
   31500    252.00505   -159.49368   -127.86412   -159.49368            0    4957.4142    19.989073    19.942091    20.447104            0            0            0    8150.7045    8514.8804     1248.881    5108.4812    901.72554     1721.003      2340.94    19.989073    19.942091    20.447104           90           90           90 
   32000    244.99288   -160.36046   -129.61101   -160.36046            0    562.40408    20.248294    20.226386    20.590155            0            0            0    8432.6942    3041.8678   -524.49561   -830.15997    1356.8468    2128.7122   -865.41889    20.248294    20.226386    20.590155           90           90           90 
   32500    255.46824   -160.15817   -128.09395   -160.15817            0   -373.91386    20.240845    20.144383    20.458317            0            0            0    8341.6606   -696.83852   -269.83222   -155.07084   -154.09883    1957.5425    907.94058    20.240845    20.144383    20.458317           90           90           90 
   33000    251.86385    -159.7652   -128.15337    -159.7652            0    2964.7707     20.18751    20.034778     20.45268            0            0            0    8272.1332    270.91714    4390.7599    4232.6352    445.89808   -334.14771     1651.034     20.18751    20.034778     20.45268           90           90           90 
   33500    247.42494   -160.66892   -129.61422   -160.66892            0    5390.1983    20.150671     20.03875    20.499663            0            0            0    8277.6462    7391.2977    5435.3166    3343.9806    28.366316    3262.8885   -533.00673    20.150671     20.03875    20.499663           90           90           90 
   34000    242.58212   -161.46802   -131.02115   -161.46802            0     674.3145    20.074731      20.1701    20.515094            0            0            0    8306.7531   -1091.8226    2138.2013    976.56481     723.2159   -328.90869   -1025.7753    20.074731      20.1701    20.515094           90           90           90 
   34500    233.71772   -161.14701   -131.81272   -161.14701            0    1975.8394    20.092691    20.285165    20.564408            0            0            0    8381.7146    2095.4313     2059.136    1772.9509     399.3751    369.12051   -935.64326    20.092691    20.285165    20.564408           90           90           90 
   35000    233.43286   -161.80965   -132.51111   -161.80965            0    4744.1556     20.01548    20.042208    20.352167            0            0            0    8164.3616    7360.0989    2395.1578    4477.2102   -1330.2434   -1164.0533    1515.8733     20.01548    20.042208    20.352167           90           90           90 
   35500    241.44827   -161.31962   -131.01506   -161.31962            0    2385.6738    20.307377    20.053706    20.469222            0            0            0    8335.8482    3630.9173    1613.2502     1912.854    1785.5984   -1303.2451    73.406208    20.307377    20.053706    20.469222           90           90           90 
   36000    255.26328   -161.59222   -129.55372   -161.59222            0    1556.0379    20.332162    20.113113    20.517794            0            0            0      8390.61    492.01284    1878.5198    2297.5811   -76.118472    332.55743    922.78325    20.332162    20.113113    20.517794           90           90           90 
   36500    252.02075   -160.45803   -128.82651   -160.45803            0    2266.5992    20.042731    20.045307    20.379289            0            0            0     8187.638    4839.7387   -725.40812    2685.4672    950.33892      576.797   -507.23091    20.042731    20.045307    20.379289           90           90           90 
   37000     247.0342   -160.46271   -129.45705   -160.46271            0    4049.5192    20.151088    20.223367    20.525779            0            0            0     8364.724    3898.3282    5510.0214    2740.2079    798.07715   -3860.8137    1892.0019    20.151088    20.223367    20.525779           90           90           90 
   37500    243.60573   -160.46433   -129.88899   -160.46433            0    3055.7035    20.175096    20.189374    20.578431            0            0            0     8382.059    161.49141     5167.072    3838.5469    -678.5217   -747.19939   -2927.5586    20.175096    20.189374    20.578431           90           90           90 
   38000    251.57073   -159.19509   -127.62004   -159.19509            0    3528.6112    20.106241    20.112188    20.592002            0            0            0    8327.0042    6739.0022    2759.9751    1086.8563    720.61416   -741.11891    2314.5662    20.106241    20.112188    20.592002           90           90           90 
   38500     251.1159   -160.37912   -128.86116   -160.37912            0    1419.6936    20.059807    20.081093     20.45333            0            0            0    8239.0687    3937.1815    325.55075   -3.6515444   -1039.3555    600.09205     113.4426    20.059807    20.081093     20.45333           90           90           90 
   39000    246.49881   -160.81324   -129.87478   -160.81324            0   -2288.9904     20.37681    20.240561    20.488007            0            0            0    8450.0336   -1951.4301   -2962.1116   -1953.4293    959.80515    823.06592   -2101.0357     20.37681    20.240561    20.488007           90           90           90 
   39500    250.32352   -160.15405   -128.73554   -160.15405            0    1641.8727    20.277309    20.072775    20.351888            0            0            0    8283.6634     3235.221   -979.98832    2670.3855   -2130.0723    751.74113   -912.29777    20.277309    20.072775    20.351888           90           90           90 
   40000    251.82294    -161.2747     -129.668    -161.2747            0    5428.2642    20.093313    20.056971    20.455829            0            0            0     8243.924    6555.2899    6087.2715    3642.2312    1217.7957    2556.9435   -1119.9882    20.093313    20.056971    20.455829           90           90           90 
   40500    237.52791     -159.892   -130.07949     -159.892            0    3400.3127    20.148917    20.324037     20.67561            0            0            0    8466.8137    1867.6155    4287.8249    4045.4976   -405.80551   -2115.2892   -229.76144    20.148917    20.324037     20.67561           90           90           90 
   41000     254.6871   -162.09043   -130.12424   -162.09043            0    3511.4843    20.104986    20.175868    20.612901            0            0            0     8361.325      4532.17    2010.7156    3991.5673    434.19443   -181.24484   -870.88516    20.104986    20.175868    20.612901           90           90           90 
   41500    247.94089   -159.57959   -128.46013   -159.57959            0    2571.6322    20.135713       20.039    20.488681            0            0            0    8267.1736    3001.1691    1702.2151    3011.5123   -52.477838     402.5335    424.06616    20.135713       20.039    20.488681           90           90           90 
   42000    252.48126   -161.03473   -129.34541   -161.03473            0    3415.4063    20.258766    20.060144    20.360706            0            0            0     8274.464    2298.6499    4935.2335    3012.3356   -1365.0094   -348.33854    693.57468    20.258766    20.060144    20.360706           90           90           90 
   42500    261.00162   -161.01154    -128.2528   -161.01154            0    2363.4897    20.294142    20.270996    20.403743            0            0            0    8393.7426   -1610.2375    6135.6547    2565.0519   -1615.5347    504.60481    -1536.521    20.294142    20.270996    20.403743           90           90           90 
   43000    252.52782   -159.58997   -127.89479   -159.58997            0    2405.0188    20.114317    20.165662    20.440398            0            0            0    8291.0038   -1149.9375    4496.7646    3868.2293    -148.5327   -727.69233   -972.72047    20.114317    20.165662    20.440398           90           90           90 
   43500    251.44843   -160.84201   -129.28231   -160.84201            0    2683.8937    20.030476    20.024046    20.580125            0            0            0    8254.5063    2992.3633    3028.8919    2030.4259    866.53213    1594.9789    251.68127    20.030476    20.024046    20.580125           90           90           90 
   44000    251.12726   -160.74715   -129.22776   -160.74715            0    1291.8252     20.23571     20.13332    20.785479            0            0            0    8468.2541   -2133.5454    2989.7246    3019.2965   -353.65197    15.924679   -3419.4022     20.23571     20.13332    20.785479           90           90           90 
   44500    246.51916   -159.76793   -128.82691   -159.76793            0    4762.0248    20.067869    20.070356    20.546655            0            0            0    8275.5611    7156.2984    3313.7472    3816.0288   -402.24946    53.299478      683.326    20.067869    20.070356    20.546655           90           90           90 
   45000    241.23628    -161.9263   -131.64835    -161.9263            0    807.06651    20.117188    20.154927    20.314312            0            0            0    8236.6502   -1057.1554    2169.2807    1309.0742    1902.4964     161.8883    286.95305    20.117188    20.154927    20.314312           90           90           90 
   45500    241.54133   -161.10149   -130.78525   -161.10149            0    2227.9794    20.263287    20.267299    20.353326            0            0            0    8358.7465    2735.6144   -1273.5606    5221.8843    294.34663      2346.88    2256.4632    20.263287    20.267299    20.353326           90           90           90 
   46000    247.38841   -160.83676   -129.78664   -160.83676            0    3015.6966    20.165976    20.126448    20.458908            0            0            0     8303.646    4604.5807    743.65205     3698.857    280.05104    629.87932   -888.29789    20.165976    20.126448    20.458908           90           90           90 
   46500    246.79849   -160.54404   -129.56797   -160.54404            0    5029.3298    20.128555    20.020357    20.581598            0            0            0    8293.9901    1816.3268    9435.2471    3836.4154   -1628.6367   -1712.5929   -258.34635    20.128555    20.020357    20.581598           90           90           90 
   47000    250.46166   -160.41941   -128.98357   -160.41941            0    2739.3463    20.129789    20.139151    20.554761            0            0            0    8332.8356    351.61867    6034.3485    1832.0719    1064.2756   -2965.4116   -1517.0035    20.129789    20.139151    20.554761           90           90           90 
   47500    257.21345   -160.04444   -127.76117   -160.04444            0    177.43579    20.135371    20.235923    20.443854            0            0            0    8330.0084   -995.28893    1465.6052    61.991112    217.21016   -475.74746   -573.38657    20.135371    20.235923    20.443854           90           90           90 
   48000    254.10288   -160.23227   -128.33941   -160.23227            0     2666.004    20.225449    20.151021     20.41635            0            0            0    8320.9581   -833.92873     5994.183    2837.7578    298.22131   -810.88922     620.5485    20.225449    20.151021     20.41635           90           90           90 
   48500    259.48377   -161.86518   -129.29696   -161.86518            0    5026.4665    20.168723    20.019098    20.420158            0            0            0    8244.8358    4651.1438    4257.9503    6170.3054   -153.78299    3101.3008    2922.7681    20.168723    20.019098    20.420158           90           90           90 
   49000    256.25779   -159.20589   -127.04256   -159.20589            0   -1138.8872    20.169349    20.157826    20.635098            0            0            0    8389.6164    601.96237   -3076.5926   -942.03134    -218.4439   -2863.7908   -3567.4787    20.169349    20.157826    20.635098           90           90           90 
   49500    273.41442   -158.90712   -124.59044   -158.90712            0    5082.0315     20.09233    20.056241    20.671338            0            0            0    8330.0655    4098.6646    7273.5664    3873.8634    256.03606    2016.0645    918.80951     20.09233    20.056241    20.671338           90           90           90 
   50000    251.32069   -158.60064   -127.05698   -158.60064            0    3094.6429    20.241378    20.033047    20.716272            0            0            0    8400.3754     3301.434    4605.6806     1376.814     828.4986   -1119.2756   -241.31277    20.241378    20.033047    20.716272           90           90           90 
   50500    255.62039    -160.5374   -128.45407    -160.5374            0    5337.7218    20.119106    20.015294    20.319171            0            0            0    8182.3233    3586.0101    6986.0579    5441.0975   -113.54442    1333.4011   -1363.6713    20.119106    20.015294    20.319171           90           90           90 
   51000    250.30554   -159.66376   -128.24751   -159.66376            0    1224.3049    20.196401    20.374251    20.227637            0            0            0    8323.4007    3246.2436   -3071.2137    3497.8847    404.48562   -2865.1502   -552.05887    20.196401    20.374251    20.227637           90           90           90 
   51500    251.98187   -160.55774    -128.9311   -160.55774            0    2198.3529    20.153257    20.373788    20.353071            0            0            0    8356.9339    919.91878    4092.8427    1582.2971    502.54838    344.74879    -642.9033    20.153257    20.373788    20.353071           90           90           90 
   52000    246.56567   -162.08672   -131.13987   -162.08672            0     2128.461    20.112162    19.978158    20.420039            0            0            0    8204.8524    5696.7376   -2760.7152    3449.3605    1258.0187   -1834.4168   -1930.4746    20.112162    19.978158    20.420039           90           90           90 
   52500     252.1593   -159.78697   -128.13806   -159.78697            0    3020.4106    20.252581    19.922823     20.60598            0            0            0    8314.2778    6474.0261    1325.6896    1261.5162    1965.1815    655.19423    845.40354    20.252581    19.922823     20.60598           90           90           90 
   53000    251.24105   -161.17771   -129.64404   -161.17771            0    2166.1527    20.244992    20.098204    20.590288            0            0            0    8377.9406    165.87168    4788.6946    1543.8918   -595.79152   -1552.9027    1294.1693    20.244992    20.098204    20.590288           90           90           90 
   53500    253.93971   -161.13442   -129.26204   -161.13442            0     3357.632    19.999593     20.11025    20.352305            0            0            0    8185.6322    3689.7899     2543.388     3839.718    2077.5653    583.79614   -164.93701    19.999593     20.11025    20.352305           90           90           90 
   54000     245.1847   -159.51765   -128.74412   -159.51765            0    3569.0959    20.236559    20.221699    20.463606            0            0            0    8374.0675    5501.1792     1591.325    3614.7834   -876.87128   -251.76376   -801.29609    20.236559    20.221699    20.463606           90           90           90 
   54500    245.95517   -162.08151   -131.21128   -162.08151            0    3869.8199     20.20777    20.057928    20.468306            0            0            0    8296.3361    4194.7596    2248.6119    5166.0881     113.5398   -1263.2231   -1940.4076     20.20777    20.057928    20.468306           90           90           90 
   55000    250.76975   -161.14432   -129.66981   -161.14432            0    2776.9722    20.082982    20.056537    20.500903            0            0            0     8257.663    63.966618     7130.078    1136.8721    402.67508   -1469.2702   -715.30013    20.082982    20.056537    20.500903           90           90           90 
   55500    241.77293   -161.42721    -131.0819   -161.42721            0    3766.8763    20.094093    20.190263    20.536832            0            0            0    8331.8958     2385.015    3369.5805    5546.0334    1767.6535     180.9432    3201.3795    20.094093    20.190263    20.536832           90           90           90 
   56000     251.3355   -159.56512    -128.0196   -159.56512            0    2256.5637    20.182328    20.134045    20.477455            0            0            0    8321.0528    1719.9194    4119.8293     929.9425   -834.43052    279.91853   -1249.7916    20.182328    20.134045    20.477455           90           90           90 
   56500    247.60233   -159.61129   -128.53433   -159.61129            0    1721.0778    20.320663    19.982151    20.377683            0            0            0    8274.3694    1330.0254    2506.2133    1326.9948    1190.2147    2138.6185    3909.8041    20.320663    19.982151    20.377683           90           90           90 
   57000     253.9613   -160.84693   -128.97184   -160.84693            0    3497.0734    20.281504    19.919724    20.427131            0            0            0     8252.601    1736.6601    3212.3516    5542.2085    273.05717    1189.3382    1900.2536    20.281504    19.919724    20.427131           90           90           90 
   57500    245.14186   -160.46326   -129.69511   -160.46326            0    1446.8677    20.131462    20.207805    20.590446            0            0            0    8376.4544    1458.4721    3401.9218   -519.79066    2428.8825   -2900.0042    1860.3907    20.131462    20.207805    20.590446           90           90           90 
   58000    249.34661   -160.82592   -129.53002   -160.82592            0     2978.347    19.901965    20.328192    20.499611            0            0            0    8293.5476    1294.7407    987.93714     6652.363    1055.5367   -3334.6571    2210.6524    19.901965    20.328192    20.499611           90           90           90 
   58500    252.27598   -161.04529   -129.38173   -161.04529            0    1589.1143    20.060869     20.14264     20.41383            0            0            0    8248.7975    2029.7145     1283.939    1453.6895    571.52144    597.63681   -1619.9774    20.060869     20.14264     20.41383           90           90           90 
   59000    255.35495   -160.31807   -128.26806   -160.31807            0    14.593227    20.393489    20.053653    20.449252            0            0            0    8363.0068   -5578.6052    7536.3951   -1914.0102    471.75977    415.20903    1028.1452    20.393489    20.053653    20.449252           90           90           90 
   59500    260.26697   -161.06904   -128.40251   -161.06904            0    3667.2624     20.22271    20.059194    20.379864            0            0            0    8267.1174    2470.0165    5023.4964    3508.2742   -461.02972   -555.85574    340.25896     20.22271    20.059194    20.379864           90           90           90 
   60000    243.23486   -160.95853   -130.42973   -160.95853            0    568.51598    20.025092    20.276495    20.455053            0            0            0    8305.5428    1588.8574   -2435.4235     2552.114    281.27162    -736.4271    -1083.144    20.025092    20.276495    20.455053           90           90           90 
   60500    242.29351   -160.21226   -129.80162   -160.21226            0    2710.5229    20.072738    20.217594    20.554319            0            0            0    8341.4045   -1291.0157     4306.147    5116.4375    1572.6155   -1075.4333    492.98006    20.072738    20.217594    20.554319           90           90           90 
   61000     249.0798   -160.21169   -128.94928   -160.21169            0    2627.4828    20.260232    19.954805     20.52664            0            0            0    8298.6944    433.56312    4056.8176    3392.0676    154.42438    933.71226    587.27008    20.260232    19.954805     20.52664           90           90           90 
   61500    252.88451   -160.57949   -128.83955   -160.57949            0    2050.7999    20.313637    19.903491     20.50896            0            0            0    8292.0245    1035.7039    3790.2448     1326.451   -1979.4766    2608.8797     1229.965    20.313637    19.903491     20.50896           90           90           90 
   62000    259.89459   -160.58541   -127.96562   -160.58541            0    4311.9235    20.080294     20.17074     20.49759            0            0            0     8302.229    5449.4466    2324.9276    5161.3961    2887.0902    3130.8735    951.05803    20.080294     20.17074     20.49759           90           90           90 
   62500    244.25478   -160.35965   -129.70284   -160.35965            0     4844.425    19.923404    20.384412    20.464004            0            0            0    8310.9819    6821.5639    1456.8555    6254.8556   -74.151779   -2148.3915   -898.26645    19.923404    20.384412    20.464004           90           90           90 
   63000    255.72329   -158.80736   -126.71112   -158.80736            0    3012.7945    20.126947    20.238219    20.436328            0            0            0    8324.4021    6100.9829    -952.2388    3889.6395   -447.84464    2078.2451   -2395.8153    20.126947    20.238219    20.436328           90           90           90 
   63500    249.09008   -160.40905   -129.14536   -160.40905            0    2440.9278    20.347844    19.969081    20.519274            0            0            0    8337.5506     574.3621    5662.0475    1086.3738    2228.3473    -489.8591   -585.75896    20.347844    19.969081    20.519274           90           90           90 
   64000    255.52347   -159.72576    -127.6546   -159.72576            0   -1339.4322    20.208634    19.959006    20.486172            0            0            0    8262.9798   -1089.0949  -0.43888112   -2928.7628    902.38919    1360.9561    1146.8184    20.208634    19.959006    20.486172           90           90           90 
   64500     247.1162   -159.85923   -128.84328   -159.85923            0    2727.8248    20.109197    20.169438    20.464377            0            0            0    8300.1711    5065.4359     1011.949    2106.0895    594.43592   -3120.4891   -350.15691    20.109197    20.169438    20.464377           90           90           90 
   65000    245.95013   -161.80649   -130.93689   -161.80649            0    526.56692    20.153161    20.291733    20.509786            0            0            0    8387.3244    1866.1551   -2048.2796    1761.8253    132.99991    6.9228412   -3068.7181    20.153161    20.291733    20.509786           90           90           90 
   65500    246.87494   -160.90181   -129.91614   -160.90181            0    4378.4901    20.078319    20.109375    20.433692            0            0            0    8250.3574    3130.3733    2767.2914    7237.8055   -2065.6129    2695.6472    1641.9764    20.078319    20.109375    20.433692           90           90           90 
   66000    252.55838   -159.19888   -127.49987   -159.19888            0     3863.196    20.257106    20.059866    20.502119            0            0            0    8331.1352    1535.0256      6028.47    4026.0922    782.97059    219.35056   -902.50262    20.257106    20.059866    20.502119           90           90           90 
   66500    248.92113   -159.26174   -128.01925   -159.26174            0    3461.5613    20.242525    20.128005    20.540023            0            0            0     8368.861    4316.8799    459.56447    5608.2394    1301.1765   -810.10452   -319.18828    20.242525    20.128005    20.540023           90           90           90 
   67000    253.57568   -161.76987   -129.94318   -161.76987            0    4085.5611    20.024256    20.181287    20.527746            0            0            0    8295.5753    7812.0018    22.629892    4422.0515    883.83892    1532.7564   -2115.0805    20.024256    20.181287    20.527746           90           90           90 
   67500     257.0876   -161.90552   -129.63804   -161.90552            0    3290.7672    20.093073    20.205569    20.552753            0            0            0    8344.2525    6202.2189     1407.335    2262.7478    495.45697    -43.36782    105.25844    20.093073    20.205569    20.552753           90           90           90 
   68000    246.33304   -160.74057   -129.82292   -160.74057            0    5643.7574    20.321267    20.036944    20.325098            0            0            0    8275.8938    6059.9166    3647.7258    7223.6297    901.64321    -1985.294   -1226.3806    20.321267    20.036944    20.325098           90           90           90 
   68500    248.50221   -159.61075   -128.42084   -159.61075            0    74.380484    20.467036    20.103789     20.27344            0            0            0    8341.8104     245.8365   -3949.6428    3926.9478   -11.316897   -908.38688    2273.8874    20.467036    20.103789     20.27344           90           90           90 
   69000    254.17683   -162.12808   -130.22594   -162.12808            0    4901.9625    20.113122    20.218588    20.326152            0            0            0     8265.811    2911.4207    4650.3057    7144.1611    -999.1944   -705.86772   -1046.1969    20.113122    20.218588    20.326152           90           90           90 
   69500    251.41263   -162.30808   -130.75287   -162.30808            0    5320.1346    19.868651     20.26673    20.549386            0            0            0    8274.6744    5080.0536    5527.7402    5352.6101   -1049.7786    701.39468    2943.6739    19.868651     20.26673    20.549386           90           90           90 
   70000    246.25002    -160.6345   -129.72726    -160.6345            0    -1465.912    20.064293     20.15163    20.737012            0            0            0    8384.5591   -357.73228   -3150.7686   -889.23517    1130.7413    496.13165    1275.9577    20.064293     20.15163    20.737012           90           90           90 
   70500    246.90662    -161.1717   -130.18206    -161.1717            0    2952.4659    20.204495    19.934036    20.579845            0            0            0    8288.6796    1152.5521    5309.9572    2394.8885     359.8824   -729.85855     446.3323    20.204495    19.934036    20.579845           90           90           90 
   71000    257.72855   -162.43836   -130.09044   -162.43836            0   -181.42344    20.194815    20.108211    20.372022            0            0            0    8272.7034   -1718.5987   -380.56679    1554.8952    261.18004   -800.37801    1168.9648    20.194815    20.108211    20.372022           90           90           90 
   71500    244.68085   -160.35584   -129.64556   -160.35584            0    3100.4618     20.09685    20.273263    20.316694            0            0            0    8277.6051    2952.6443    4086.7554    2261.9857    58.785839   -730.96657   -1810.1608     20.09685    20.273263    20.316694           90           90           90 
   72000    250.55338   -158.11769   -126.67034   -158.11769            0    2742.8931    20.121778     20.20669    20.536479            0            0            0      8350.02    4346.5178    1361.1453    2521.0162   -808.94726   -3857.7284   -140.19743    20.121778     20.20669    20.536479           90           90           90 
   72500    252.74663   -160.27685   -128.55422   -160.27685            0    4463.7823    20.163076    20.047414    20.703794            0            0            0    8368.8367     3838.436    5073.2119    4479.6989    1692.1113    202.63631   -4564.7529    20.163076    20.047414    20.703794           90           90           90 
   73000    244.99097   -160.66419   -129.91498   -160.66419            0    3066.9293    20.101595    20.057036    20.599719            0            0            0    8305.3618    3679.8502    3052.1914    2468.7463    483.34065    276.60123   -4846.6454    20.101595    20.057036    20.599719           90           90           90 
   73500    251.80105   -160.78047   -129.17652   -160.78047            0   -753.52513    20.033156    20.266208    20.458516            0            0            0    8306.0775   -509.85402    -577.8499   -1172.8715   -1074.7903    834.47693   -2845.8698    20.033156    20.266208    20.458516           90           90           90 
   74000    250.20332   -161.54153   -130.13811   -161.54153            0    3915.9111    20.126233    20.270133    20.317799            0            0            0     8288.878    3849.7421    2616.3368    5281.6545    1194.4318   -3000.9416   -638.37284    20.126233    20.270133    20.317799           90           90           90 
   74500    232.68043   -158.58608   -129.38199   -158.58608            0    570.87465    20.413393     20.06222    20.373228            0            0            0    8343.6107    1676.1814   -39.860384    76.302926    377.01776    1165.6541   0.90548926    20.413393     20.06222    20.373228           90           90           90 
   75000    260.06737   -160.71916   -128.07769   -160.71916            0    2295.8086    20.296886    19.914979    20.405453            0            0            0    8248.1301    387.85218    2982.4028    3517.1709     629.6261    1453.2981   -521.30308    20.296886    19.914979    20.405453           90           90           90 
   75500    247.25179   -161.27413   -130.24116   -161.27413            0    3640.6861    20.075741    20.188209    20.667865            0            0            0    8376.5463    6587.9516     1956.518    2377.5887    1105.3361    13.546586   -644.04214    20.075741    20.188209    20.667865           90           90           90 
   76000    246.71182   -159.89777   -128.93257   -159.89777            0    1053.5481    19.944848    20.237331     20.65793            0            0            0    8338.1704    1807.7288    1982.8922   -629.97676   -213.84261    2380.9207   -204.96137    19.944848    20.237331     20.65793           90           90           90 
   76500    242.90495   -163.49412   -133.00673   -163.49412            0    1645.9403    20.137516    20.116514    20.564977            0            0            0    8330.8029     2307.819    370.48046    2259.5215    1529.8418   -416.35181    2089.3423    20.137516    20.116514    20.564977           90           90           90 
   77000    238.54636   -162.07263    -132.1323   -162.07263            0    3468.5144    20.264106    20.037732    20.430721            0            0            0    8295.8269    4650.7021    4514.6313    1240.2099    296.15534   -2488.2163    779.83868    20.264106    20.037732    20.430721           90           90           90 
   77500    240.81784   -159.87345   -129.64802   -159.87345            0    4468.6044    20.190563    20.136359    20.426984            0            0            0    8304.8851    4338.3836    3288.6652    5778.7645   -1117.1878   -2776.4446   -928.04905    20.190563    20.136359    20.426984           90           90           90 
   78000    269.19644   -160.33948   -126.55221   -160.33948            0     6605.901    20.081362    20.156729    20.408068            0            0            0    8260.6669    8733.2409     4903.165    6181.2972    646.08317    1574.3866   -209.62423    20.081362    20.156729    20.408068           90           90           90 
   78500    245.73157   -161.90927    -131.0671   -161.90927            0     3476.009    20.148223    20.209529    20.534815            0            0            0    8361.4912     6668.231    1547.5771    2212.2188   -579.86565     539.3037    698.50177    20.148223    20.209529    20.534815           90           90           90 
   79000    252.44928   -162.43804   -130.75273   -162.43804            0     4361.703    20.152895    20.121083    20.431616            0            0            0    8284.9807    1626.2069    4754.0227    6704.8794    1381.0686     2860.098    3226.3193    20.152895    20.121083    20.431616           90           90           90 
   79500    248.80788   -160.08839   -128.86011   -160.08839            0    1644.5946    20.207532    20.180568    20.476327            0            0            0    8350.2352   -882.93445    3965.9069    1850.8112   -738.78103    316.65613    709.88912    20.207532    20.180568    20.476327           90           90           90 
   80000    253.43739   -159.78569   -127.97636   -159.78569            0    8405.3209    20.011624    20.189492    20.440149            0            0            0    8258.3217    7267.3383    7286.3877    10662.237   -319.40803    -2108.654   -762.07629    20.011624    20.189492    20.440149           90           90           90 
   80500    249.64644   -160.60845   -129.27492   -160.60845            0    6186.8611     20.07878    20.218266    20.590707            0            0            0    8358.9644    8322.0394    5580.5339    4658.0099    1983.2647   -888.05186   -1593.4706     20.07878    20.218266    20.590707           90           90           90 
   81000    249.80963   -160.51392   -129.15991   -160.51392            0    4860.1572    20.284658    19.967418    20.613842            0            0            0    8349.2702    4225.6889    5313.4254    5041.3573   -277.37829   -51.940184   -977.92669    20.284658    19.967418    20.613842           90           90           90 
   81500    246.77796   -160.57869   -129.60519   -160.57869            0    2639.6173    20.373076    19.874391    20.474495            0            0            0    8290.1737      883.103    4004.9646    3030.7842    1608.8353    2055.0221    2088.6181    20.373076    19.874391    20.474495           90           90           90 
   82000    248.66391    -161.5729    -130.3627    -161.5729            0    5704.3534    20.063427    20.207922    20.314921            0            0            0    8236.4853    6555.6269    3210.7448    7346.6884    870.76048    708.12545    2134.5538    20.063427    20.207922    20.314921           90           90           90 
   82500    261.49869    -159.9364   -127.11528    -159.9364            0    995.07527     19.97166    20.564305    20.422204            0            0            0    8387.4666    2582.4605    513.78736   -111.02208    662.65661   -609.59747   -715.82222     19.97166    20.564305    20.422204           90           90           90 
   83000    246.88698   -159.26672   -128.27954   -159.26672            0   -295.08661    20.051013    20.275233    20.445227            0            0            0     8311.781   -1148.1024    1658.8211   -1395.9785    1255.7521    -188.7156   -569.28559    20.051013    20.275233    20.445227           90           90           90 
   83500    257.82551   -161.01509     -128.655   -161.01509            0    3891.4455    20.160829    20.036351    20.531181            0            0            0    8293.5592    4198.9751    4288.4415    3186.9201    216.49969   -1612.9197   -2162.6346    20.160829    20.036351    20.531181           90           90           90 
   84000    255.63081    -158.9278   -126.84317    -158.9278            0    1813.4319    20.249362      20.0468    20.599451            0            0            0    8362.0363    938.84501    4038.9613    462.48923     353.9838    501.09445    1968.9469    20.249362      20.0468    20.599451           90           90           90 
   84500    258.34089   -160.87812   -128.45334   -160.87812            0     6354.947    20.163896     20.08315    20.524094            0            0            0    8311.3255    7202.5355    6241.3057         5621   -896.68408   -364.58963   -2092.4607    20.163896     20.08315    20.524094           90           90           90 
   85000    245.62338   -160.34349   -129.51491   -160.34349            0    3276.1938     20.14753    20.126907    20.428586            0            0            0    8283.9445    1458.6957    5942.9999    2426.8858   -837.04145    1375.9232   -121.76645     20.14753    20.126907    20.428586           90           90           90 
   85500    252.33705   -159.20031   -127.52909   -159.20031            0    3586.6257    20.190958     20.19843    20.391626            0            0            0    8316.2282    5450.7517    2809.7418    2499.3837      370.095    1499.3838   -1704.3792    20.190958     20.19843    20.391626           90           90           90 
   86000    249.07908   -159.69496   -128.43265   -159.69496            0    3548.3819    20.197544    20.139094    20.339325            0            0            0    8273.2287    2503.8236    3482.1347    4659.1873   -1445.3272   -1667.0146   -1545.7018    20.197544    20.139094    20.339325           90           90           90 
   86500    244.60607   -160.94933   -130.24843   -160.94933            0     3090.992    20.136725    20.160265    20.391558            0            0            0    8278.1917    6013.6669    2483.6003    775.70871   -1560.5823   -1577.9105    853.84988    20.136725    20.160265    20.391558           90           90           90 
   87000    240.86326   -161.29358   -131.06245   -161.29358            0    3218.1782    20.093011    20.235655    20.633799            0            0            0    8389.6041    2890.1704    3351.7302    3412.6341   -22.374453    438.84723   -791.72865    20.093011    20.235655    20.633799           90           90           90 
   87500    247.79295   -161.01746   -129.91657   -161.01746            0    1730.9885    20.055998    19.989239    20.638512            0            0            0    8274.0651     402.8549    6419.0781   -1628.9674   -1055.4915   -1055.7932    543.47314    20.055998    19.989239    20.638512           90           90           90 
   88000    251.19447   -160.26769   -128.73987   -160.26769            0    3617.1336    20.257749    20.011672    20.497003            0            0            0    8309.3096   -973.14261    9133.8371    2690.7063    57.865522    589.70154    774.43693    20.257749    20.011672    20.497003           90           90           90 
   88500    247.38899   -160.91239    -129.8622   -160.91239            0    6477.4129    20.260421    20.153424    20.223074            0            0            0    8257.4218    6422.6504    5894.4842     7115.104   -1520.5404    1481.3326    1472.5042    20.260421    20.153424    20.223074           90           90           90 
   89000    240.66347   -162.39366    -132.1876   -162.39366            0    2434.3483    20.193808     20.27394     20.23028            0            0            0    8282.4394    2044.5764    817.48904    4440.9793    2.8645666   -1142.2677    2735.7973    20.193808     20.27394     20.23028           90           90           90 
   89500    239.64121   -161.96915    -131.8914   -161.96915            0    2870.3775    20.103667    20.142518    20.402555            0            0            0    8261.7794    4914.7044    4190.1268   -493.69872    576.46878   -1479.5139    2471.9755    20.103667    20.142518    20.402555           90           90           90 
   90000    237.44389   -161.47062   -131.66866   -161.47062            0    4111.8985     20.07319    20.019778    20.592444            0            0            0    8275.2961    1829.6522    4810.0178    5696.0254    660.06467    1440.1489     -1995.46     20.07319    20.019778    20.592444           90           90           90 
   90500    246.92074   -160.55482    -129.5634   -160.55482            0    1324.3946    20.180948    20.060125    20.764836            0            0            0    8406.2768     4107.271   -1165.2803    1031.1932   -1342.2606     1901.795   -147.17092    20.180948    20.060125    20.764836           90           90           90 
   91000    254.72983   -161.56077   -129.58922   -161.56077            0    1673.5138    20.134727    20.074824    20.445733            0            0            0    8264.1882    2902.0726    254.10979     1864.359     2004.876   -997.15355    1225.9778    20.134727    20.074824    20.445733           90           90           90 
   91500    240.31786   -163.09911   -132.93643   -163.09911            0    2646.0649    20.211633    20.186942    20.170238            0            0            0      8229.68    5418.4995    822.35126     1697.344   -1692.0965    957.41771   -2272.4372    20.211633    20.186942    20.170238           90           90           90 
   92000    249.63045   -162.03866   -130.70714   -162.03866            0    5450.4247    20.219141    20.270345    20.185804            0            0            0    8273.1309    3412.7287    7772.3178    5166.2276    1748.0469   -16.512844    3662.3753    20.219141    20.270345    20.185804           90           90           90 
   92500    239.74662   -160.45835   -130.36737   -160.45835            0    2417.1435    20.118171    20.189421    20.512905            0            0            0    8331.8131    2327.8601    980.94961    3942.6209    438.81495    64.481935    1846.3339    20.118171    20.189421    20.512905           90           90           90 
   93000    247.08481   -160.50211    -129.4901   -160.50211            0    3375.9298    19.980869    19.972313    20.693949            0            0            0    8258.2134    5544.1341    3627.5393    956.11596    161.05851    3554.7415   -145.38899    19.980869    19.972313    20.693949           90           90           90 
   93500    243.66365   -160.76277   -130.18016   -160.76277            0    2155.3971    20.109729    20.077933    20.676004            0            0            0      8348.18   -1370.7338    7223.6895    613.23558   -457.87754    1922.6259   -809.23991    20.109729    20.077933    20.676004           90           90           90 
   94000     249.5831   -161.94449   -130.61891   -161.94449            0   -457.46368    20.177226    20.197724    20.495138            0            0            0    8352.4665   -2348.7053    128.22801     848.0863    1331.9925    85.562009     -865.638    20.177226    20.197724    20.495138           90           90           90 
   94500    249.54962    -161.4366   -130.11523    -161.4366            0    2091.4351    20.138055    20.083211    20.289175            0            0            0     8205.689    2481.9988    2173.6086     1618.698   -2088.6625    425.42432    3035.6972    20.138055    20.083211    20.289175           90           90           90 
   95000     245.3445   -162.92138    -132.1278   -162.92138            0    518.00666    20.288422    20.057425    20.380801            0            0            0    8293.6308    900.35195    1127.3384   -473.67037    342.26887   -2671.8115   -1390.0942    20.288422    20.057425    20.380801           90           90           90 
   95500    248.52262   -160.56416   -129.37169   -160.56416            0    5943.0599    20.212056    20.012253    20.491418            0            0            0    8288.5487    6845.7046    4905.6213    6077.8537    60.518563    135.24596    82.179438    20.212056    20.012253    20.491418           90           90           90 
   96000    253.30615   -160.11171   -128.31885   -160.11171            0     3287.361    20.061025    20.195855    20.582004            0            0            0      8338.79     4807.936    3145.0751    1909.0718    1242.6121   -1612.3705    3551.4436    20.061025    20.195855    20.582004           90           90           90 
   96500    248.70197    -160.1764   -128.96142    -160.1764            0    4003.6994    19.899861    20.204262    20.436931            0            0            0    8216.9137    6368.8191   -1990.9402    7633.2193     574.1748    1669.2605    1304.7798    19.899861    20.204262    20.436931           90           90           90 
   97000     249.5937   -160.93557   -129.60866   -160.93557            0    2278.5846    20.121747    20.268672    20.526278            0            0            0    8371.4601    1935.5196    440.78218     4459.452    1187.4041   -222.73204    -748.5946    20.121747    20.268672    20.526278           90           90           90 
   97500     244.3119   -160.08019   -129.41622   -160.08019            0    4731.1323    20.248644    20.073379    20.502409            0            0            0    8333.3826    3361.8411     5124.959    5706.5967   -571.72394    1011.6001   -1559.8542    20.248644    20.073379    20.502409           90           90           90 
   98000    247.63833    -161.6151   -130.53362    -161.6151            0    4879.9572    20.213694    19.954337    20.446255            0            0            0    8247.0145     7290.351    4870.9869    2478.5338    354.01734    1315.6137   -1762.1908    20.213694    19.954337    20.446255           90           90           90 
   98500    255.96618   -161.98083   -129.85411   -161.98083            0    4328.7861    20.159723    20.094404    20.539059            0            0            0    8320.3242    7821.2973    -164.5592    5329.6203   -9.3332719   -3173.6785    4048.1467    20.159723    20.094404    20.539059           90           90           90 
   99000     249.1319   -161.12142   -129.85248   -161.12142            0    3478.8854    20.016275    20.149164    20.488904            0            0            0    8263.4044    4072.4908    2090.6937    4273.4717   -208.34989   -498.06216   -794.73538    20.016275    20.149164    20.488904           90           90           90 
   99500    248.00126   -158.95189   -127.82485   -158.95189            0    1103.5432     20.09815    20.228327    20.448457            0            0            0    8313.3602    742.35663    677.31469    1890.9584     205.5796     306.6048    2489.0403     20.09815    20.228327    20.448457           90           90           90 
  100000     255.4194   -161.36331   -129.30522   -161.36331            0    7439.9009    20.272833    20.109377    20.356086            0            0            0    8298.6481    7873.6138    5663.0983    8782.9907    1232.6898   -2565.0848   -631.10318    20.272833    20.109377    20.356086           90           90           90 
  100500    247.82026   -159.64481    -128.5405   -159.64481            0    2723.7069     20.37289    20.056555    20.500761            0            0            0    8376.8158   -168.91482    5691.9198    2648.1158   -841.16296    958.66491   -138.26074     20.37289    20.056555    20.500761           90           90           90 
  101000    253.03364   -161.64037   -129.88172   -161.64037            0    6323.2055    19.959664    20.129737    20.600933            0            0            0    8277.1001    9769.0882    3508.6024    5691.9258   -933.26921    1128.9337   -909.40078    19.959664    20.129737    20.600933           90           90           90 
  101500    243.97637   -160.60761   -129.98574   -160.60761            0    2077.2638    19.847416    20.331333    20.710373            0            0            0    8357.1413    3668.1486    773.86624    1789.7765   -1141.3462    471.18698    887.81038    19.847416    20.331333    20.710373           90           90           90 
  102000     241.7233   -160.07189   -129.73281   -160.07189            0    1545.9724    20.180137    20.168218    20.605697            0            0            0    8386.4654    3248.9606    2250.1968   -861.24035   -807.60505   -2393.9045    830.54966    20.180137    20.168218    20.605697           90           90           90 
  102500     242.7627    -160.3769   -129.90736    -160.3769            0    3911.2701    20.455512    19.827507     20.29687            0            0            0    8232.0412    930.44329    6655.8964    4147.4707   -1098.3778    1838.4255    1678.3836    20.455512    19.827507     20.29687           90           90           90 
  103000    251.93089   -160.58636   -128.96611   -160.58636            0    1474.8266    20.384577    20.018185    20.349025            0            0            0    8303.6686    837.83837    4119.8619   -533.22038   -905.05939   -915.85832    226.09929    20.384577    20.018185    20.349025           90           90           90 
  103500    245.79401   -161.54308   -130.69308   -161.54308            0    4461.3281    20.065029    20.291243    20.464268            0            0            0    8331.9116    5316.8402    1664.8279    6402.3163    -1000.643    1601.5359   -41.079592    20.065029    20.291243    20.464268           90           90           90 
  104000    255.24207   -160.54931   -128.51347   -160.54931            0    4423.7347    19.966791    20.266558    20.579938            0            0            0    8327.8396    4303.5902    3259.8101    5707.8038    1862.1577    614.46752   -2168.3746    19.966791    20.266558    20.579938           90           90           90 
  104500    250.34452   -161.77444    -130.3533   -161.77444            0    2623.7858    20.212542    20.019741    20.577833            0            0            0    8326.8172    1945.1156    3070.3402    2855.9015   -379.33413    1606.2112   -122.76301    20.212542    20.019741    20.577833           90           90           90 
  105000    249.36707   -159.16296    -127.8645   -159.16296            0    3831.3017    20.305064    19.993698    20.401256            0            0            0    8282.3652    2872.0913    5882.3731    2739.4408   -492.57055    977.53893   -3074.3185    20.305064    19.993698    20.401256           90           90           90 
  105500    258.90491    -160.5416   -128.04603    -160.5416            0    2223.5213    20.215759    20.277325    20.295172            0            0            0    8319.4279    190.90213     4487.503    1992.1589    2136.8179    610.55026    653.71139    20.215759    20.277325    20.295172           90           90           90 
  106000    246.87478   -160.01098   -129.02533   -160.01098            0    5310.2187    19.995252    20.332473    20.277253            0            0            0    8243.7766    7789.4952    4028.7367    4112.4242   -194.54416    386.17101    1741.5017    19.995252    20.332473    20.277253           90           90           90 
  106500     248.3181   -160.58888   -129.42207   -160.58888            0    2127.4043    20.174923    20.224835     20.57852            0            0            0    8396.7456    801.83758       3587.8    1992.5755     1098.472     1516.193   -947.54486    20.174923    20.224835     20.57852           90           90           90 
  107000     235.6432   -159.37008   -129.79413   -159.37008            0    766.04089    20.182011    19.967002    20.643639            0            0            0    8318.8551    98.679601    2773.7979   -574.35484    1138.2859    -311.2527   -2051.5343    20.182011    19.967002    20.643639           90           90           90 
  107500     243.5537   -159.77737   -129.20856   -159.77737            0    2753.7065    20.129165     19.95703    20.554635            0            0            0    8257.1742    951.96781    1800.7331    5508.4185   -230.97587    -2473.498    13.769838    20.129165     19.95703    20.554635           90           90           90 
  108000    254.46509    -160.2341   -128.29577    -160.2341            0    2487.4117    20.217414    20.200644    20.562369            0            0            0    8397.7697    4168.4772    3061.3183    232.43944     359.3518    2124.1166    -570.4098    20.217414    20.200644    20.562369           90           90           90 
  108500    254.40168     -159.382   -127.45164     -159.382            0    2448.0138    20.221112    20.147796    20.396883            0            0            0    8309.9112    2440.6739   -964.90401    5868.2714   -55.041481    700.22854     62.64811    20.221112    20.147796    20.396883           90           90           90 
  109000    248.99374   -160.80431   -129.55271   -160.80431            0    3903.5391    20.157425    20.079711    20.371663            0            0            0    8245.5381    7164.8922    766.34617     3779.379    283.18326   -1633.1513   -2741.7222    20.157425    20.079711    20.371663           90           90           90 
  109500    245.81936   -159.82596   -128.97278   -159.82596            0    5202.3052    20.197616    20.156427     20.47625            0            0            0    8336.1225    4958.8158    5154.5028    5493.5969    1136.8458    153.32619    926.42273    20.197616    20.156427     20.47625           90           90           90 
  110000    239.15073   -159.37741   -129.36122   -159.37741            0     3281.007    20.151366    20.251984    20.518456            0            0            0    8373.6875    3729.9232    2399.1886    3713.9091   -488.49642    359.60545   -1057.2274    20.151366    20.251984    20.518456           90           90           90 
  110500    235.15307   -160.39303    -130.8786   -160.39303            0    2466.6732    20.039755    20.122647    20.523193            0            0            0    8276.0374    5482.1203    1631.2823    286.61711    -1344.038    3108.3565   -174.70665    20.039755    20.122647    20.523193           90           90           90 
  111000    253.78806   -161.02895   -129.17561   -161.02895            0    1385.3352    20.137188    19.924388    20.590974            0            0            0    8261.5343    458.11689    1774.4794    1923.4094   -337.06185    721.23948   -2004.3004    20.137188    19.924388    20.590974           90           90           90 
  111500    249.91371   -160.79295   -129.42588   -160.79295            0    224.80961    20.426727     20.03429    20.640889            0            0            0    8446.9739    1203.0342    1259.8096    -1788.415   -273.86158    391.44837   -27.825098    20.426727     20.03429    20.640889           90           90           90 
  112000    249.45054   -160.60206   -129.29312   -160.60206            0    2732.4409    20.163869     20.12157    20.340145            0            0            0    8252.5804    1862.6541    2891.4843    3443.1842   -554.71514    136.42983   -1046.3468    20.163869     20.12157    20.340145           90           90           90 
[...]
  373000    233.40252   -162.25984   -132.96512   -162.25984            0    3090.2934    20.232685    20.196107    20.314325            0            0            0    8300.8694    3116.2471     2675.108    3479.5252   -1640.0476    263.37767   -164.85009    20.232685    20.196107    20.314325           90           90           90 
  373500    252.98561     -162.377   -130.62437     -162.377            0     4750.798    20.288209    19.999514    20.229703            0            0            0    8208.2894     5696.659    4911.4495    3644.2854    1603.2263    1195.9331    1424.1671    20.288209    19.999514    20.229703           90           90           90 
  374000    247.72168   -159.47062   -128.37867   -159.47062            0    2563.8943    20.248597    20.024777    20.494704            0            0            0    8310.0621    5866.9826   -2131.6835    3956.3837    175.44287    313.65674    1441.1577    20.248597    20.024777    20.494704           90           90           90 
  374500    258.66125    -159.2568   -126.79181    -159.2568            0     1937.571    20.048044    20.129464    20.624792            0            0            0    8323.2663    1361.0583    4513.6045   -61.949725   -1057.1103    1611.9994   -832.31259    20.048044    20.129464    20.624792           90           90           90 
  375000    261.90425   -159.92872    -127.0567   -159.92872            0    2659.1374     20.06629    20.302385      20.6036            0            0            0    8393.7737    1924.7155    2539.9221    3512.7745    878.55205    277.04272   -441.16445     20.06629    20.302385      20.6036           90           90           90 
  375500    261.43387   -162.23274   -129.41976   -162.23274            0    7822.2826    20.076496    20.210604    20.261677            0            0            0    8221.3399    6730.5024    8041.1837    8695.1618    300.74237   -87.986663    1826.2479    20.076496    20.210604    20.261677           90           90           90 
  376000    252.15585   -160.15964   -128.51115   -160.15964            0    4720.4777    20.306467    20.205618    20.221049            0            0            0    8296.7915    4597.3028       2802.1    6762.0304   -1217.9844    625.26561    1836.4724    20.306467    20.205618    20.221049           90           90           90 
  376500     253.4769   -159.53968   -127.72538   -159.53968            0    4171.6072    20.332784    20.112328    20.479255            0            0            0    8374.7785    31.636462    7636.1776    4847.0075   -412.95525    43.417972   -728.13591    20.332784    20.112328    20.479255           90           90           90 
  377000    245.79893   -161.46731   -130.61669   -161.46731            0    3756.8439     20.12505    19.937352    20.652853            0            0            0     8286.755     3234.441    3629.0932    4406.9973    996.98345    1480.0099    909.15823     20.12505    19.937352    20.652853           90           90           90 
  377500    241.45954   -160.75642   -130.45044   -160.75642            0    5901.8753    20.055241    19.978526    20.699667            0            0            0    8293.8211    3984.0191    10771.471    2950.1359   -295.55293    1915.0445    464.50357    20.055241    19.978526    20.699667           90           90           90 
  378000    249.90962   -160.45421   -129.08765   -160.45421            0    2699.0851    20.170553    20.081016    20.481602            0            0            0    8295.9746    5093.4437   -2595.3825    5599.1941    89.532749   -549.70988    -1004.037    20.170553    20.081016    20.481602           90           90           90 
  378500    245.72313   -161.38456   -130.54345   -161.38456            0    2166.3257    20.335999    20.220766    20.334198            0            0            0    8361.6147    614.14057    3383.9908    2500.8457   -1133.8471    1735.4993    2575.2053    20.335999    20.220766    20.334198           90           90           90 
  379000     246.5458   -160.06044   -129.11608   -160.06044            0    7995.0446    20.132314    20.209463    20.351752            0            0            0    8280.3799    6975.5128    8308.8593    8700.7619   -789.42222   -4618.0785     297.4462    20.132314    20.209463    20.351752           90           90           90 
  379500    240.57029   -160.41135   -130.21699   -160.41135            0    4767.9347    20.025893    20.197445    20.527276            0            0            0    8302.7059    6221.4092    3390.6782    4691.7168    503.82569    2974.6032    1060.9018    20.025893    20.197445    20.527276           90           90           90 
  380000    236.84609   -159.96001   -130.23308   -159.96001            0    5580.7247    20.129418    20.078431    20.603845            0            0            0    8327.3972    5816.0265    7610.7083    3315.4393    402.06725    2116.9031    575.62214    20.129418    20.078431    20.603845           90           90           90 
  380500    247.36413   -161.65399   -130.60692   -161.65399            0    1234.4628     20.23484    19.967719    20.516201            0            0            0    8289.4397   -639.48261     2705.355    1637.5161    294.16264    1366.6987    173.52859     20.23484    19.967719    20.516201           90           90           90 
  381000    247.18424   -161.37697   -130.35248   -161.37697            0    3598.2156    20.196242    20.103145    20.394312            0            0            0    8280.2534    3109.5117       3665.6    4019.5351    -321.5205    94.835555   -972.19679    20.196242    20.103145    20.394312           90           90           90 
  381500    260.07586   -159.29311   -126.65057   -159.29311            0    2732.7831    20.166676    20.282995    20.467665            0            0            0    8372.1054    1340.0972    1912.1328    4946.1193   -795.65018   -2452.3689    447.18648    20.166676    20.282995    20.467665           90           90           90 
  382000    244.83017   -159.45255   -128.72352   -159.45255            0    2735.9112    20.071414    20.209158    20.566256            0            0            0    8342.2157    4484.0667    332.77859    3390.8884   -354.92946    2036.7106    4534.9577    20.071414    20.209158    20.566256           90           90           90 
  382500    252.45518   -158.75104   -127.06499   -158.75104            0    5646.8505     20.03871    20.085612    20.524053            0            0            0    8260.7208    7253.7715    5078.7955    4607.9844    173.51199    248.63804   -1804.1759     20.03871    20.085612    20.524053           90           90           90 
  383000     259.3536    -160.6523   -128.10042    -160.6523            0     2798.912    20.252573    20.176025    20.493146            0            0            0    8373.8362    5406.0241    1232.5819      1758.13    253.28955   -349.92293   -922.81612    20.252573    20.176025    20.493146           90           90           90 
  383500    259.77479   -158.56367   -125.95892   -158.56367            0    5158.1431    20.302848    20.151347    20.290701            0            0            0    8301.5289    5442.4218    3702.6857    6329.3218   -1179.1872    327.79897    1051.6505    20.302848    20.151347    20.290701           90           90           90 
  384000    249.28655   -160.98053   -129.69218   -160.98053            0    1717.4662    20.282559    20.101204    20.285497            0            0            0    8270.4751     5168.293   -808.72942    792.83492   -528.23015   -937.08516   -1843.2693    20.282559    20.101204    20.285497           90           90           90 
  384500    245.26375    -160.9615   -130.17806    -160.9615            0    5188.8136    20.139955    20.108402    20.614545            0            0            0     8348.526    6975.8008     5530.594    3060.0462    787.36685     1452.205   -917.36356    20.139955    20.108402    20.614545           90           90           90 
  385000     237.0108   -160.34157   -130.59396   -160.34157            0    4999.4356    20.013291    20.018523    20.774387            0            0            0    8322.9783    7322.5004    2922.4174     4753.389    403.31779    1636.1568    971.79431    20.013291    20.018523    20.774387           90           90           90 
  385500    240.26626   -160.76335   -130.60714   -160.76335            0      4549.79    20.060974    20.013009    20.579023            0            0            0    8262.0753    5287.1325    5859.5127    2502.7249    2.0121637   -3713.1109   -1258.1157    20.060974    20.013009    20.579023           90           90           90 
  386000    255.98912   -162.03487   -129.90527   -162.03487            0     73.20526    20.350879    20.250883    20.309346            0            0            0    8369.9544   -2090.5475    2660.5524    -350.3891    975.50523    -683.0413    4280.1913    20.350879    20.250883    20.309346           90           90           90 
  386500    250.19157   -159.80598   -128.40404   -159.80598            0    913.01768    20.286652    20.374295    20.199843            0            0            0    8349.1252    3265.5647    -2244.267    1717.7553   -1617.7335   -892.01566   -1583.6192    20.286652    20.374295    20.199843           90           90           90 
  387000    252.20279   -161.33732   -129.68295   -161.33732            0    4943.1982    20.058305    20.183967    20.385839            0            0            0    8253.3325     7187.179    3502.4932    4139.9223    306.18519   -208.27266   -253.22326    20.058305    20.183967    20.385839           90           90           90 
  387500     256.4472   -161.24681   -129.05971   -161.24681            0    1803.3189    20.099709    20.047751     20.73142            0            0            0    8353.8078    973.57108    4693.7425    -257.3568    215.77416    1195.1988    0.9848151    20.099709    20.047751     20.73142           90           90           90 
  388000    242.87312   -161.91276   -131.42936   -161.91276            0    3106.9127    20.147055    20.027807     20.72033            0            0            0    8360.6807    4088.9471    3357.3772     1874.414   -254.63133    1247.8519   -436.50742    20.147055    20.027807     20.72033           90           90           90 
  388500    231.72006   -160.85405   -131.77049   -160.85405            0    2338.3293    20.199324    20.139519     20.52463            0            0            0    8349.5149    3188.0564    1362.0718    2464.8598   -1383.4405    1670.7434   -291.70004    20.199324    20.139519     20.52463           90           90           90 
  389000    244.43186   -161.63343   -130.95439   -161.63343            0    5750.0166    20.164459    20.114298     20.29255            0            0            0    8230.5353    4610.0956    7711.3314    4928.6229    1553.2185    2353.1558    1029.0658    20.164459    20.114298     20.29255           90           90           90 
  389500     242.9723   -161.75048   -131.25464   -161.75048            0    4508.8786    20.148836     20.17394    20.343803            0            0            0    8269.3779      5569.58    3676.3971    4280.6586   -2332.7784   -2328.8072     1322.236    20.148836     20.17394    20.343803           90           90           90 
  390000     241.2717    -162.0915    -131.8091    -162.0915            0    3288.2684    20.253615    20.177143    20.547427            0            0            0    8396.9128    3552.3028    4834.2561    1478.2462    1069.1072   -1059.8275    1523.2645    20.253615    20.177143    20.547427           90           90           90 
  390500    248.20281   -160.16912   -129.01679   -160.16912            0    1001.6493    20.116425     20.00437    20.521852            0            0            0    8258.3298    1013.4913   -1679.4735      3670.93    1699.5877    175.97412   -2326.4328    20.116425     20.00437    20.521852           90           90           90 
  391000     260.1226   -160.78863   -128.14023   -160.78863            0    3979.8511    20.220089    20.166316    20.627043            0            0            0      8410.98    2315.3896    8369.9294    1254.2342   -456.81385    590.25693    1977.4954    20.220089    20.166316    20.627043           90           90           90 
  391500     267.3624   -159.41606   -125.85898   -159.41606            0   -260.61779    20.110338    20.253943    20.469006            0            0            0    8337.3052   -646.39928    1450.2308   -1585.6849    1692.6841    777.29667   -76.941545    20.110338    20.253943    20.469006           90           90           90 
  392000    238.72424    -161.6773   -131.71464    -161.6773            0    2400.7535      20.0697    20.273161    20.340986            0            0            0    8276.2642     5900.045   -801.43939    2103.6549   -378.96278    1879.4301    1162.8133      20.0697    20.273161    20.340986           90           90           90 
  392500    241.15736   -161.27378   -131.00574   -161.27378            0    4782.9347    20.175639    20.158416    20.408478            0            0            0    8300.3101     3298.611    2244.2266    8805.9663   -145.48498    -1969.653    875.48532    20.175639    20.158416    20.408478           90           90           90 
  393000    245.64909   -159.66317   -128.83136   -159.66317            0     4162.612    20.230757    19.976741    20.579408            0            0            0    8317.0564    4243.7167    6441.2866    1802.8327    324.74255    3687.0797     1056.501    20.230757    19.976741    20.579408           90           90           90 
  393500    259.04464   -158.76416   -126.25105   -158.76416            0    886.45679    20.216297    20.134502      20.8065            0            0            0    8469.1831   -1007.9722    1597.3763    2069.9662    1172.6247   -2037.1774    1883.1846    20.216297    20.134502      20.8065           90           90           90 
  394000    248.35846    -160.7979   -129.62603    -160.7979            0    4557.7364    20.001918    20.125051    20.616949            0            0            0     8299.139    7795.4865    1374.1786     4503.544     1060.628   -570.25037   -2622.7176    20.001918    20.125051    20.616949           90           90           90 
  394500    243.53757   -160.88618    -130.3194   -160.88618            0    4711.9906    20.025701    20.176294    20.401635            0            0            0     8243.167    4731.7537    3594.1787    5810.0395   -1302.7938    1692.3305    1408.3815    20.025701    20.176294    20.401635           90           90           90 
  395000    243.65114    -159.2098   -128.62875    -159.2098            0   -502.75472    20.290957    20.288616    20.452223            0            0            0    8419.6776   -1544.2358   -876.06783    912.03941    1945.8411   -1820.2291   -247.06379    20.290957    20.288616    20.452223           90           90           90 
  395500    240.22042   -160.83529   -130.68484   -160.83529            0    4158.9494    20.115559    20.103736    20.431623            0            0            0    8262.5052    4873.9365    3977.5689    3625.3427   -148.08388    2373.1669     2678.385    20.115559    20.103736    20.431623           90           90           90 
  396000     235.9696   -160.44654   -130.82962   -160.44654            0   -56.217034    20.117592    20.032968    20.563116            0            0            0    8287.2457   -1780.3032    999.84619    611.80594    34.301721     368.7626   -996.73315    20.117592    20.032968    20.563116           90           90           90 
  396500    251.41957   -163.22188   -131.66581   -163.22188            0    712.17551    20.239455    20.005422    20.656925            0            0            0     8363.965    3019.8843     1899.833   -2783.1907   -929.40614   -381.87765   -1066.1997    20.239455    20.005422    20.656925           90           90           90 
  397000    245.51539   -160.30801   -129.49298   -160.30801            0    2771.4953    20.284932    20.017232    20.523592            0            0            0    8333.5674    322.28857    5623.8886    2368.3088    1311.6469    1458.5155     34.05081    20.284932    20.017232    20.523592           90           90           90 
  397500     248.8039   -160.38298   -129.15521   -160.38298            0    56.086471    20.153252    20.209319     20.46188            0            0            0    8333.7857    2485.8474   -2083.5298   -234.05816     30.30374   -271.30205   -1894.4401    20.153252    20.209319     20.46188           90           90           90 
  398000    248.48762   -160.61658    -129.4285   -160.61658            0    4607.4509    19.936609    20.348701    20.473447            0            0            0    8305.7518    7111.8242    4328.6503    2381.8782   -692.08015   -250.43335   -685.23334    19.936609    20.348701    20.473447           90           90           90 
  398500    245.11881   -159.30913   -128.54387   -159.30913            0    5046.9303    20.068607    20.211764    20.589334            0            0            0    8351.4862    4990.3211    5625.5123    4524.9576   -832.82479   -1190.9276   -1787.3395    20.068607    20.211764    20.589334           90           90           90 
  399000    238.03603   -162.41073   -132.53445   -162.41073            0    4202.6429    20.300765    19.953114    20.503634            0            0            0    8305.2734    2572.3553     6494.717    3540.8562    -1173.889   -853.48957   -768.51635    20.300765    19.953114    20.503634           90           90           90 
  399500    253.27763   -162.36976   -130.58048   -162.36976            0    4544.5516    20.353594    20.023755    20.413651            0            0            0     8319.693    1665.6051    7690.4249    4277.6248   -93.074991   -1911.2894    754.91655    20.353594    20.023755    20.413651           90           90           90 
  400000    248.46694   -162.37853   -131.19304   -162.37853            0    1577.6586     20.08968    20.259425    20.440798            0            0            0    8319.5145   -184.18719    2482.1393    2435.0236   -215.48208    756.34952   -82.643131     20.08968    20.259425    20.440798           90           90           90 
Loop time of 2422.69 on 1 procs for 400000 steps with 972 atoms

Performance: 7.133 ns/day, 3.365 hours/ns, 165.106 timesteps/s
69.6% CPU use with 1 MPI tasks x 1 OpenMP threads

MPI task timing breakdown:
Section |  min time  |  avg time  |  max time  |%varavg| %total
---------------------------------------------------------------
Pair    | 2152.1     | 2152.1     | 2152.1     |   0.0 | 88.83
Bond    | 0.065552   | 0.065552   | 0.065552   |   0.0 |  0.00
Neigh   | 241.68     | 241.68     | 241.68     |   0.0 |  9.98
Comm    | 9.6235     | 9.6235     | 9.6235     |   0.0 |  0.40
Output  | 2.1246     | 2.1246     | 2.1246     |   0.0 |  0.09
Modify  | 15.735     | 15.735     | 15.735     |   0.0 |  0.65
Other   |            | 1.392      |            |       |  0.06

Nlocal:        972.000 ave         972 max         972 min
Histogram: 1 0 0 0 0 0 0 0 0 0
Nghost:        4607.00 ave        4607 max        4607 min
Histogram: 1 0 0 0 0 0 0 0 0 0
Neighs:         0.00000 ave           0 max           0 min
Histogram: 1 0 0 0 0 0 0 0 0 0
FullNghs:      243958.0 ave      243958 max      243958 min
Histogram: 1 0 0 0 0 0 0 0 0 0

Total # of neighbors = 243958
Ave neighs/atom = 250.98560
Ave special neighs/atom = 0.0000000
Neighbor list builds = 40000
Dangerous builds not checked

unfix		3
unfix		2

write_data	data.final.${pid}
write_data	data.final.0
System init for write_data ...

write_restart   restart.lmp.${pid}
write_restart   restart.lmp.0
System init for write_restart ...
Total wall time: 0:40:26
