LAMMPS data file via write_data, version 29 Sep 2021, timestep = 400000

1008 atoms
2 atom types

0.1554222159736085 18.244132784028746 xlo xhi
-0.1558727734535843 22.726261773454013 ylo yhi
0.16005548630363187 19.345660513696117 zlo zhi
-0.19987250511926807 -6.743460223159638 0.032401274913101845 xy xz yz

Masses

1 1.008
2 15.999

Atoms # full

1 0 1 0 6.625240716483243 1.0595545471162688 5.006542861242166 0 0 0
2 0 2 0 7.117829381702544 1.595851961668356 5.708859491826391 0 0 0
3 0 2 0 5.698703470674028 0.9420976830449684 5.270647486282387 0 0 0
4 0 1 0 3.9230700054245906 0.9390777143342682 5.3613639291333355 0 0 0
5 0 2 0 3.391427966011599 0.1708969388324149 5.0722633125824155 0 0 0
6 0 2 0 3.595934168460732 1.6339464505032302 4.782948023300823 0 0 0
7 0 1 0 -0.6534838896047437 6.39656694589861 5.157378696370442 0 0 0
8 0 2 0 -0.5181540800679343 5.906729769657863 5.993396272055905 0 0 0
9 0 2 0 -0.9076478932218013 5.7465569335650235 4.496881954957087 0 0 0
10 0 1 0 1.9359935665869794 6.553551273475617 4.52610357832825 0 0 0
11 0 2 0 2.3848261340792263 5.982392668230221 5.209965102938066 0 0 0
12 0 2 0 0.9837755244012001 6.548510910171407 4.795978252165791 0 0 0
13 0 1 0 4.942084005831332 4.448596672643072 10.180978346048523 0 0 0
14 0 2 0 4.028399411192804 4.391171424355087 10.06716138248864 0 0 0
15 0 2 0 5.177601152459999 5.270256576700055 10.624744546544227 0 0 0
16 0 1 0 5.377917000417751 4.789746823007558 0.44176308283230514 0 0 0
17 0 2 0 6.267002889602085 4.398976474989764 0.3268879103286123 0 0 0
18 0 2 0 4.824778404293479 3.945479889834348 0.36137398788205777 0 0 0
19 0 1 0 1.1299459330566943 2.419775020388564 0.42086310529769216 0 0 0
20 0 2 0 -5.752100753069435 1.7405094312958669 18.88997587842954 0 0 -1
21 0 2 0 1.2109326966095257 1.9485627112585915 1.2908432653885622 0 0 0
22 0 1 0 0.42289352871536945 2.655193849921232 9.428606931974777 0 0 0
23 0 2 0 0.632945355527097 1.8937479987957992 9.958596555588095 0 0 0
24 0 2 0 0.9625712660923829 3.427145078911876 9.763007736312971 0 0 0
25 0 1 0 4.7698724658740606 5.847901153153214 7.488256971373817 0 0 0
26 0 2 0 4.941375258509282 5.67174543575857 6.553434312886549 0 0 0
27 0 2 0 4.917268612557159 5.110305569947385 8.101063734072568 0 0 0
28 0 1 0 5.526081193626409 6.381395658081551 2.6456131516891586 0 0 0
29 0 2 0 4.958128235011773 7.114226689138061 2.44790328158428 0 0 0
30 0 2 0 5.35593583700527 5.677826030072896 1.9781096659041684 0 0 0
31 0 1 0 1.5006500815177066 0.5441309213479049 2.5568852556479205 0 0 0
32 0 2 0 1.248509795473497 0.9952632275725105 3.3795892722992895 0 0 0
33 0 2 0 0.8465112862753577 -0.03526226100950826 2.242698717970213 0 0 0
34 0 1 0 0.3182004045017459 1.0998305388657073 7.10057148943453 0 0 0
35 0 2 0 0.3075356790907606 1.7885917771826987 7.807870636577208 0 0 0
36 0 2 0 -0.5663330360499705 0.8087541581750002 7.219349790085508 0 0 0
37 0 1 0 5.939786640862015 2.3472214650192442 2.5806316865083323 0 0 0
38 0 2 0 6.117925090586737 1.8886015010254598 1.7427640147151182 0 0 0
39 0 2 0 6.158448967685146 1.7538568939815702 3.3708276234426062 0 0 0
40 0 1 0 4.165189824217073 2.538565880375296 7.523466428034472 0 0 0
41 0 2 0 4.049768883040637 1.7946460355956715 6.951216380609041 0 0 0
42 0 2 0 3.9827568258332633 2.182744021831534 8.42011310996237 0 0 0
43 0 1 0 -0.04633327323106773 5.308915272075295 7.583229167879451 0 0 0
44 0 2 0 0.0057480032345100796 5.5612779731668 8.526103374337694 0 0 0
45 0 2 0 0.7837778935633661 4.91047779382894 7.385403408942161 0 0 0
46 0 1 0 1.6464806229660063 4.613684972556263 2.2204714949371014 0 0 0
47 0 2 0 2.0515267242925876 5.121713889297905 1.4906934117825508 0 0 0
48 0 2 0 1.8852752488132647 5.215266516634107 3.012742080642455 0 0 0
49 0 1 0 6.9664788579622865 3.2659950620518527 6.646246881970229 0 0 0
50 0 2 0 6.067901112232265 3.156379663125548 7.011274111408801 0 0 0
51 0 2 0 6.944267158934445 3.865551198400475 5.926345701522632 0 0 0
52 0 1 0 3.5269284838915844 2.9789586992688206 3.7203659481283347 0 0 0
53 0 2 0 4.28046275602612 2.8288805189934854 3.0374156415669065 0 0 0
54 0 2 0 2.8360564595227036 3.3801528958316607 3.244795020664846 0 0 0
55 0 1 0 -0.7326725156903166 4.3325455431811575 3.552768641658463 0 0 0
56 0 2 0 16.62827790897751 3.893290387692853 3.084926970497529 -1 0 0
57 0 2 0 -0.09836874747685864 4.473482259665009 2.7743996483722966 0 0 0
58 0 1 0 2.1222899356550937 4.213490109565623 6.357706427749221 0 0 0
59 0 2 0 1.8105234901914715 3.6393516834605935 5.639389442574597 0 0 0
60 0 2 0 2.8716477047717732 3.6993286370047875 6.666800032812646 0 0 0
61 0 1 0 8.264236884541395 6.910784978791947 2.032100386723905 0 0 0
62 0 2 0 7.903921871181692 7.5971656451499685 1.4580179747138104 0 0 0
63 0 2 0 7.425071830823377 6.60176311906876 2.4043198022549115 0 0 0
64 0 1 0 2.4383067809082464 6.991434153687087 8.570038520051126 0 0 0
65 0 2 0 2.767958816269163 7.5569929147077 9.290521086260682 0 0 0
66 0 2 0 3.21641732216418 6.575401037424268 8.095895304386916 0 0 0
67 0 1 0 -2.21509404441899 0.43989998102395345 8.21947580127904 0 0 0
68 0 2 0 15.101122081378852 0.15592461313253303 7.72481080616412 -1 0 0
69 0 2 0 -2.486393909470482 1.2131446768800656 8.81737352753192 0 0 0
70 0 1 0 3.912068587137727 0.1611852367844765 1.5654291479054636 0 0 0
71 0 2 0 3.091977802418623 0.4157962739979591 2.0180073735429795 0 0 0
72 0 2 0 4.4183135200358645 22.727276761204408 2.144884268073281 0 -1 0
73 0 1 0 5.354580272835511 4.856835588250635 5.039670602557004 0 0 0
74 0 2 0 4.713734646439833 4.234529653509135 4.707807551333654 0 0 0
75 0 2 0 5.483381208046788 5.5387261795375435 4.355536928021295 0 0 0
76 0 1 0 0.7352729435803618 2.2478799159640244 4.515338371818804 0 0 0
77 0 2 0 0.24958399884476434 1.7414021546218688 5.16207122799744 0 0 0
78 0 2 0 0.007057015279253731 2.8104300126623003 4.142659800170229 0 0 0
79 0 1 0 6.599583590487129 1.2005476919840645 0.3201954774167648 0 0 0
80 0 2 0 -0.6384434960850465 0.5806458862720825 19.008451243840014 0 0 -1
81 0 2 0 7.446794089708085 0.7266311764557197 0.5947811696696372 0 0 0
82 0 1 0 -4.298910184700588 6.281457171677263 19.264890241992113 0 0 -1
83 0 2 0 -5.005877191874645 6.813610017486955 18.878481721352784 0 0 -1
84 0 2 0 -3.8318885347504654 5.807293961684049 18.565333286039404 0 0 -1
85 0 1 0 15.524257040821258 0.9895905869697665 5.140829279571244 0 0 0
86 0 2 0 15.655053854424478 1.3072224731990814 4.243282456093573 0 0 0
87 0 2 0 14.556875113446168 0.7602449787639614 5.237455147070981 0 0 0
88 0 1 0 12.753919098344221 0.8765985248096996 5.166779835906715 0 0 0
89 0 2 0 12.191141196589777 0.10896639090703368 4.9417492018781255 0 0 0
90 0 2 0 12.638590085582297 0.952381273746914 6.13569005951495 0 0 0
91 0 1 0 8.522983088219384 6.293741405538199 5.243578433501712 0 0 0
92 0 2 0 7.981827067685505 7.115547855099479 5.2581618444842 0 0 0
93 0 2 0 8.096457475081554 5.803038098887824 4.512425339843296 0 0 0
94 0 1 0 11.25185395794742 6.270092375567414 4.992120593316707 0 0 0
95 0 2 0 10.340605394487099 6.595301102379143 5.288793556122498 0 0 0
96 0 2 0 11.81087350777306 7.067121987933822 4.866379683175766 0 0 0
97 0 1 0 14.512636927703463 5.26364403658828 9.864806851343126 0 0 0
98 0 2 0 14.30979048827771 5.429894943250867 8.891211148406592 0 0 0
99 0 2 0 14.27596039895033 6.02544905440279 10.42977990547095 0 0 0
100 0 1 0 14.57228891305872 4.48660828191703 0.4693359274451691 0 0 0
101 0 2 0 15.458535622621248 4.072606576215647 0.4470562962614703 0 0 0
102 0 2 0 7.930343534256126 5.333145142278096 19.120404476655516 0 0 -1
103 0 1 0 9.759933080185965 2.5349673028329347 0.25481859439399845 0 0 0
104 0 2 0 2.3716528419399534 3.2862265501196046 19.339310888438135 0 0 -1
105 0 2 0 3.927462427646385 2.962006878267121 19.32763994453053 0 0 -1
106 0 1 0 9.664974290713554 2.826695166076289 9.441719408824856 0 0 0
107 0 2 0 9.684648752485069 2.3225832359944407 8.590234094281184 0 0 0
108 0 2 0 9.75296944370799 1.9571014210859716 9.951478513780895 0 0 0
109 0 1 0 13.376987070156094 6.307630240667946 7.399883676826785 0 0 0
110 0 2 0 13.542505290334184 6.032287252986439 6.500175674872649 0 0 0
111 0 2 0 12.441647221310156 6.663314425191975 7.46264843061538 0 0 0
112 0 1 0 14.866518559115317 6.362176946663479 2.452142996945228 0 0 0
113 0 2 0 14.711442995582908 6.019962763601736 3.3581127194113405 0 0 0
114 0 2 0 14.786800020492125 5.600619237449855 1.8977062311637463 0 0 0
115 0 1 0 10.28996183268719 1.3275135677618104 2.822809363090442 0 0 0
116 0 2 0 11.195314315059932 0.949953851124105 2.6022727649262816 0 0 0
117 0 2 0 10.101212318110882 2.0277388390837454 2.1877478988947936 0 0 0
118 0 1 0 9.283897527947186 0.8479302341247733 7.508286302411548 0 0 0
119 0 2 0 9.501470235933557 1.2618894149779551 6.635986466478353 0 0 0
120 0 2 0 10.020662438121079 0.23912160488321144 7.8106880791539846 0 0 0
121 0 1 0 15.298651133768109 2.1979849081945755 2.7423253822590072 0 0 0
122 0 2 0 15.16730362237231 1.6573594338803317 1.9233282324268084 0 0 0
123 0 2 0 14.380227123455068 2.3965904364579047 2.98056611365509 0 0 0
124 0 1 0 13.23767220979061 2.5151660608607997 7.415318310066232 0 0 0
125 0 2 0 12.565127096412452 3.1493259861398677 7.166410698610433 0 0 0
126 0 2 0 14.116162522758467 2.952285301566229 7.227699737265702 0 0 0
127 0 1 0 8.553934806369577 5.166114684120107 7.817856438668187 0 0 0
128 0 2 0 8.520014273555326 5.552136248417823 6.97152300772396 0 0 0
129 0 2 0 8.155511039202558 4.289200450896773 7.732894829329974 0 0 0
130 0 1 0 10.766905005258248 4.6146916762257995 2.7682222363741027 0 0 0
131 0 2 0 9.859253662752506 4.262316810217668 2.8279297335641775 0 0 0
132 0 2 0 10.825931152263712 5.251282493663219 3.501990821381101 0 0 0
133 0 1 0 15.666795147717604 3.217691640102949 6.740909345162978 0 0 0
134 0 2 0 15.80729204019466 2.379487614379388 6.185708009682469 0 0 0
135 0 2 0 -1.6192947270463949 3.5173465465710687 7.210736138831958 1 0 0
136 0 1 0 12.972148116942668 2.9699302755963557 3.4805856340583428 0 0 0
137 0 2 0 12.29134629796538 3.5420906037075532 3.086231214334004 0 0 0
138 0 2 0 12.626487204565478 2.2689071271686827 4.065326433837351 0 0 0
139 0 1 0 7.989144554044687 4.061367014468374 3.4733638692427284 0 0 0
140 0 2 0 7.322817620921997 3.5027640896631875 2.9478804418981888 0 0 0
141 0 2 0 8.414641064897006 3.4511019147618716 4.071788917305346 0 0 0
142 0 1 0 11.156489183166869 4.059865696358183 6.5990865166797095 0 0 0
143 0 2 0 11.451879346887505 4.853516806583117 6.145392962865082 0 0 0
144 0 2 0 10.42558555447735 4.390205032146934 7.218938770753971 0 0 0
145 0 1 0 17.493496801321744 6.984177506954011 1.4322607244181318 0 0 0
146 0 2 0 16.697421767992076 6.79131552673631 1.9286872902141312 0 0 0
147 0 2 0 17.169567241452143 7.617140095718386 0.7818014212818593 0 0 0
148 0 1 0 11.030100212540047 6.8944740957532336 8.315616195836238 0 0 0
149 0 2 0 10.92887281306549 6.082303167217375 8.87616359326714 0 0 0
150 0 2 0 10.165681286760815 7.280239114111769 8.101272395848497 0 0 0
151 0 1 0 7.0297137178109645 0.12953370762579483 8.673067227495123 0 0 0
152 0 2 0 7.762003648304951 0.42601500894973365 8.185876986067708 0 0 0
153 0 2 0 6.636429520170992 0.882010441666127 9.188998966140568 0 0 0
154 0 1 0 12.581130200910557 0.4711562323533008 2.040059216773913 0 0 0
155 0 2 0 12.774365353739702 1.2389322916495789 1.452666556970603 0 0 0
156 0 2 0 12.039035226609915 22.703141626168687 1.417264416109013 0 -1 0
157 0 1 0 14.227774270554951 5.0694904354298105 5.123571314844144 0 0 0
158 0 2 0 13.656636755229577 4.493823544988375 4.5665980338259535 0 0 0
159 0 2 0 14.71076962861311 4.457462492285718 5.7095504153790255 0 0 0
160 0 1 0 9.451916774089245 2.2469499596995353 5.151311034966146 0 0 0
161 0 2 0 10.16020140352728 2.7954619126165516 5.541664053926484 0 0 0
162 0 2 0 9.71676511602382 1.9104033929208117 4.304700082789946 0 0 0
163 0 1 0 15.727299387266006 1.2384727888338816 0.29280046797819104 0 0 0
164 0 2 0 9.283826967200977 1.7471660367618733 18.642550111427497 0 0 -1
165 0 2 0 8.599415843139926 0.4332689480486943 19.106311577660442 0 0 -1
166 0 1 0 11.21847937699976 6.096649907763975 0.37871513657250977 0 0 0
167 0 2 0 10.879087371483719 5.730502883702859 1.211194732113611 0 0 0
168 0 2 0 3.7327875483634108 6.672642917539679 19.226098997153926 0 0 -1
169 0 1 0 6.6100454936196655 8.25085508453313 4.892036484701058 0 0 0
170 0 2 0 5.619756230287379 8.092428191013388 4.918241899266335 0 0 0
171 0 2 0 6.618243649341005 9.004652621651866 5.537691794054389 0 0 0
172 0 1 0 3.58820322693859 8.660884110301602 5.261200877418819 0 0 0
173 0 2 0 2.911484076790458 8.019027167683788 5.034137006911284 0 0 0
174 0 2 0 3.732730972214328 9.23148394769172 4.499583649902905 0 0 0
175 0 1 0 -0.7289875121144624 14.150264748549976 4.819292354282767 0 0 0
176 0 2 0 -1.4154074665849632 14.884201024822362 4.813482754260404 0 0 0
177 0 2 0 0.08654822362262671 14.56334764235043 4.5685102926788375 0 0 0
178 0 1 0 2.203541240021356 14.022596274939133 4.6329836254993335 0 0 0
179 0 2 0 2.120418176977644 13.380044649429012 5.338722735086012 0 0 0
180 0 2 0 2.2008099667309704 13.470436647222312 3.8109806000366158 0 0 0
181 0 1 0 4.749097633209457 12.566748144894612 9.731433771465818 0 0 0
182 0 2 0 5.029074896851483 13.13287119801342 10.46984792168627 0 0 0
183 0 2 0 5.22858100302969 11.754814457871944 9.914980716209849 0 0 0
184 0 1 0 5.482792902243425 12.599610836205631 0.47984543185949535 0 0 0
185 0 2 0 -1.545035517662395 13.336589239005997 19.046084107071692 0 0 -1
186 0 2 0 6.418065771019258 12.405405915474642 0.1689435857861672 0 0 0
187 0 1 0 0.8112316356957835 10.162724401444262 0.18273688916841418 0 0 0
188 0 2 0 0.8781488653374241 9.774318714609905 1.0657450956384023 0 0 0
189 0 2 0 -4.987637574961376 10.347682763063034 19.19330756381899 0 0 -1
190 0 1 0 0.2919265908531714 10.299015536645012 9.651525203603633 0 0 0
191 0 2 0 0.4640156905852262 9.894050135051216 8.785794735012887 0 0 0
192 0 2 0 0.7979425344332958 11.107181053031498 9.693541688797215 0 0 0
193 0 1 0 4.256404750389619 13.940501094954637 7.284489262218606 0 0 0
194 0 2 0 4.4796700487950725 13.582574575815485 6.415634526210925 0 0 0
195 0 2 0 4.436779057167069 13.232195408000418 7.91146956884001 0 0 0
196 0 1 0 5.787639362809117 13.823827512074295 2.7443480516601317 0 0 0
197 0 2 0 5.627668284397856 13.19042296040511 2.02822831666366 0 0 0
198 0 2 0 5.733946418227362 13.301592882408254 3.5917572285200507 0 0 0
199 0 1 0 1.145084944273572 8.722960456317939 2.528460029122193 0 0 0
200 0 2 0 0.5822418449452635 7.963179217826807 2.240152183398057 0 0 0
201 0 2 0 2.082119197547913 8.414748056998476 2.399182152432451 0 0 0
202 0 1 0 -0.022636012158371965 8.546434063720186 7.55832074489286 0 0 0
203 0 2 0 -0.8669765055540224 8.118517124667324 7.655143348256601 0 0 0
204 0 2 0 0.6392588818522911 7.90884996360233 7.883709471381217 0 0 0
205 0 1 0 6.3716380054883315 9.82440333933024 2.4864649410627853 0 0 0
206 0 2 0 6.653053717692159 9.149124410043463 3.236640193097082 0 0 0
207 0 2 0 6.940771954029999 10.616485598861214 2.6628673919047596 0 0 0
208 0 1 0 4.0261380525339145 10.049605096437553 7.50569849412809 0 0 0
209 0 2 0 3.3129261134149566 10.714565516398599 7.343281841471335 0 0 0
210 0 2 0 3.8231667605505386 9.376975409511 6.815178727526963 0 0 0
211 0 1 0 -0.6852988893530594 12.352710686591337 7.008335167116061 0 0 0
212 0 2 0 -0.650674033053309 12.740696744710693 7.90669740460142 0 0 0
213 0 2 0 -0.787333030775462 13.167773573454049 6.429100192441897 0 0 0
214 0 1 0 1.8971463604730627 12.37899126811613 2.4321606306114747 0 0 0
215 0 2 0 1.7188344400517948 12.645407752246104 1.5257010355203435 0 0 0
216 0 2 0 1.0596868660870329 12.049600621296298 2.7586555945083604 0 0 0
217 0 1 0 6.619034734107835 10.208069355184746 6.768623442343247 0 0 0
218 0 2 0 5.639921682767565 10.282904220243669 6.900633844762394 0 0 0
219 0 2 0 7.0133940501980545 11.102884575730455 6.911724719378855 0 0 0
220 0 1 0 3.959735244829756 10.823044916303422 3.491862133333904 0 0 0
221 0 2 0 4.5820916332448 10.376461940085969 2.8525180992271504 0 0 0
222 0 2 0 3.2016409455216 11.215011978605302 2.969531486594644 0 0 0
223 0 1 0 -0.8356819716079249 11.367441728900253 3.4885811219787946 0 0 0
224 0 2 0 -0.3228935468766474 10.715021742452713 4.047440010761036 0 0 0
225 0 2 0 -0.9467692411782849 12.267278422994664 3.8653342044126617 0 0 0
226 0 1 0 2.0811037880942544 11.768588878469181 6.407756893040663 0 0 0
227 0 2 0 1.2546393707243202 11.592520730578363 6.865619670174779 0 0 0
228 0 2 0 1.9506220482839105 11.090087758752428 5.743229263449899 0 0 0
229 0 1 0 8.169869160847492 14.721413210545698 1.7076934187297823 0 0 0
230 0 2 0 7.45537532208773 14.346496127505242 2.2419290271656758 0 0 0
231 0 2 0 8.867164521787597 14.954097914160023 2.309034463999792 0 0 0
232 0 1 0 1.9538922756217887 14.566237848705574 8.6455731367755 0 0 0
233 0 2 0 2.6169856310319934 14.344125651461283 7.956623443173586 0 0 0
234 0 2 0 1.20997002362388 15.037611665772603 8.211909134109515 0 0 0
235 0 1 0 -2.4651794341303996 7.972706204005324 8.316712233115558 0 0 0
236 0 2 0 14.685923882212073 7.724450593081155 8.073050176193576 -1 0 0
237 0 2 0 -2.5496042648975195 8.837237129119481 8.809130600660088 0 0 0
238 0 1 0 3.64869783044963 8.049931542606236 1.6606198478320744 0 0 0
239 0 2 0 3.780937740258026 8.87495830150414 1.1216347418367434 0 0 0
240 0 2 0 3.199895765046675 7.332101445438812 1.1113308575601897 0 0 0
241 0 1 0 5.401529636602948 12.490785625659605 5.164881118501581 0 0 0
242 0 2 0 6.28513747913961 12.10142302356277 5.076323923448506 0 0 0
243 0 2 0 4.728188033046505 12.05253166186665 4.589936503292716 0 0 0
244 0 1 0 0.7303775028947168 9.633098418999893 5.138131952434501 0 0 0
245 0 2 0 1.0125329577209972 9.002494600174243 4.403884283736871 0 0 0
246 0 2 0 0.5186352169804942 9.081101052536416 5.905960363458433 0 0 0
247 0 1 0 0.267391518449962 8.673745228707828 19.20689143319649 0 0 -1
248 0 2 0 6.743995270791651 9.146952085633277 0.7440621265569207 0 0 0
249 0 2 0 -0.4344127798956414 8.06664282949831 18.94739230541107 0 0 -1
250 0 1 0 -4.853804757121292 14.021597209084334 19.250946139037282 0 0 -1
251 0 2 0 -5.4805197577583735 14.549816724317129 18.714513879113504 0 0 -1
252 0 2 0 2.5446268702007386 14.552441472888749 0.5079983807988224 0 0 0
253 0 1 0 15.390454095318674 8.344736644771743 4.909404950795656 0 0 0
254 0 2 0 16.015053704098637 7.633411069744663 5.2285717590840495 0 0 0
255 0 2 0 15.681036133022907 8.685182513416386 4.060632413179231 0 0 0
256 0 1 0 12.340298905738479 8.620082127956804 4.896279494274385 0 0 0
257 0 2 0 13.311949164933834 8.402130797437094 4.870953879146788 0 0 0
258 0 2 0 12.207419292017768 9.02545035438526 5.747355740100508 0 0 0
259 0 1 0 8.234158753004825 13.853911245787044 4.932803308584483 0 0 0
260 0 2 0 9.208872142250652 13.93072717232399 4.81088900544269 0 0 0
261 0 2 0 8.119683112572186 13.002953111283214 4.620425668442187 0 0 0
262 0 1 0 10.97508037365443 13.628500507352449 4.613696169834247 0 0 0
263 0 2 0 11.107899899209034 13.242206313121516 3.7392696738860782 0 0 0
264 0 2 0 11.537298762044252 14.387503156358669 4.757306318240218 0 0 0
265 0 1 0 13.934244258233724 12.268905212689512 9.445240417699015 0 0 0
266 0 2 0 14.515654409460193 11.523890318400875 9.455867466292142 0 0 0
267 0 2 0 14.045776135686406 12.747639496499207 8.621219758935672 0 0 0
268 0 1 0 14.738367103960126 12.234347659653057 0.2546282643373542 0 0 0
269 0 2 0 14.606860787450294 12.797094243552394 1.053273854500419 0 0 0
270 0 2 0 14.048819966452799 11.563914737568476 0.2900680792246556 0 0 0
271 0 1 0 9.79620514410508 10.010428993312678 0.31000837617503996 0 0 0
272 0 2 0 10.777270851536676 9.94936425280745 0.1713861268844024 0 0 0
273 0 2 0 9.757045304227352 9.721636648410426 1.2395338499476487 0 0 0
274 0 1 0 9.506386326232189 10.322279915323975 9.535374133549618 0 0 0
275 0 2 0 10.196415807522868 11.031150112775066 9.60569545532198 0 0 0
276 0 2 0 9.552426750618539 10.025151128767202 8.634941742626724 0 0 0
277 0 1 0 13.720967150438721 13.856961370129158 7.288527943263986 0 0 0
278 0 2 0 14.319049581759957 14.592501053182925 7.3141517290764995 0 0 0
279 0 2 0 12.806480532076119 14.163590332015985 7.388374433853007 0 0 0
280 0 1 0 14.657317551652262 14.044374976146118 2.36447748703935 0 0 0
281 0 2 0 14.768799933527418 13.673674347516169 3.278831649876325 0 0 0
282 0 2 0 15.563201055712767 14.334175247354695 2.1612451314756864 0 0 0
283 0 1 0 10.274259311888287 8.905745787653725 2.9082128719617724 0 0 0
284 0 2 0 9.675005975115216 8.209270844701576 2.652280130987021 0 0 0
285 0 2 0 11.183225097748462 8.50055230365848 2.763104166260925 0 0 0
286 0 1 0 9.055753767580015 8.479824235794894 7.708838232033981 0 0 0
287 0 2 0 8.126573254626216 8.175834731485157 7.900582296009398 0 0 0
288 0 2 0 9.051674225859536 8.941947360527822 6.854673022109653 0 0 0
289 0 1 0 15.2216078589196 9.77280922453296 2.6474435934210887 0 0 0
290 0 2 0 15.914549799573273 10.447846028655773 2.887436055556173 0 0 0
291 0 2 0 14.362476315052804 10.190919241547515 2.742112048884229 0 0 0
292 0 1 0 13.026032709326097 9.900848077141674 7.093337336851337 0 0 0
293 0 2 0 13.938642353113838 10.10547971161952 7.018129241832745 0 0 0
294 0 2 0 12.867818142364648 9.576051030469934 8.021646249720224 0 0 0
295 0 1 0 8.390343400806298 12.54022592371436 7.539332074071008 0 0 0
296 0 2 0 8.148014981000593 13.061646663113866 6.766557949694925 0 0 0
297 0 2 0 9.228051886556358 12.174919343488346 7.206482604519678 0 0 0
298 0 1 0 10.785221649083304 12.336355800345478 2.225073305657102 0 0 0
299 0 2 0 10.99091101274945 12.877277004482153 1.4526707936470191 0 0 0
300 0 2 0 11.515077816938236 11.682188507213848 2.269626500360957 0 0 0
301 0 1 0 15.47956388489513 10.769190922478895 6.205975312570428 0 0 0
302 0 2 0 15.747522847173835 9.983752428842589 5.7157274332369745 0 0 0
303 0 2 0 -1.7906973120098193 11.201776028775871 6.5650185998345485 1 0 0
304 0 1 0 12.905104682390029 10.915885434315774 3.0797227595116956 0 0 0
305 0 2 0 12.546303651311002 10.149606064642335 3.4801181283022844 0 0 0
306 0 2 0 13.182871030054155 11.509988207400491 3.794246469192286 0 0 0
307 0 1 0 8.317755987157863 11.51054889392315 3.4113317143309496 0 0 0
308 0 2 0 9.075115003062653 11.739604941916577 2.8726905120559283 0 0 0
309 0 2 0 8.663630041412674 10.789795475048521 3.9929695997109174 0 0 0
310 0 1 0 10.898437162564715 11.784014702027955 6.677776727190729 0 0 0
311 0 2 0 11.658663760502431 11.285174239970862 7.03870513068173 0 0 0
312 0 2 0 11.275997088568596 12.470414291767158 6.131703876320109 0 0 0
313 0 1 0 17.201844625867746 14.51489859502139 1.3753521957306154 0 0 0
314 0 2 0 -0.07753682032255116 14.72333578963567 1.8399520917843264 1 0 0
315 0 2 0 17.370545192124293 13.7172137068246 0.9373584309650832 0 0 0
316 0 1 0 11.029896418386764 14.578471383472392 7.894565878980991 0 0 0
317 0 2 0 10.977152411900587 13.628242625182367 8.22862412177673 0 0 0
318 0 2 0 11.468880445633166 15.056589351529423 8.608738814707534 0 0 0
319 0 1 0 6.624198341409979 7.633472604150348 8.67885186744355 0 0 0
320 0 2 0 7.08916479135733 6.944347387377741 9.222542029445579 0 0 0
321 0 2 0 6.077549688141753 7.129125132858766 8.090396747915023 0 0 0
322 0 1 0 12.60766405226173 8.067759053091187 1.8171615545919502 0 0 0
323 0 2 0 12.348348941379292 7.275226944822467 1.3601970109845034 0 0 0
324 0 2 0 13.471077407633276 7.8105179679934045 2.1488602312273457 0 0 0
325 0 1 0 14.45014950919948 12.717111672164007 4.81533660221179 0 0 0
326 0 2 0 14.947867578129943 12.00191077435569 5.2295875042065285 0 0 0
327 0 2 0 13.967805527865284 13.207694107888221 5.506066583701256 0 0 0
328 0 1 0 9.48058804264187 9.888715527356776 5.305825418945761 0 0 0
329 0 2 0 9.94357444671614 9.328281738930158 4.694186834300649 0 0 0
330 0 2 0 10.124985954069805 10.537669566149436 5.682967087182151 0 0 0
331 0 1 0 16.046243068453528 8.95218591412287 0.22327604303481047 0 0 0
332 0 2 0 15.66667139046149 9.428822378057392 1.009712985359895 0 0 0
333 0 2 0 9.49819124308447 9.552178318583366 18.61922302894655 0 0 -1
334 0 1 0 4.271565999092741 14.052829715901533 19.22390736000287 0 0 -1
335 0 2 0 4.521487324792635 13.407593027806001 18.560388446281237 0 0 -1
336 0 2 0 3.5205605042579133 14.55159441016022 18.799299178156375 0 0 -1
337 0 1 0 6.693771814672072 16.21153589970977 4.694677136729299 0 0 0
338 0 2 0 7.1211539775241395 15.365132127057842 4.596927634546964 0 0 0
339 0 2 0 6.467688892569316 16.51829468262085 3.8015604136073233 0 0 0
340 0 1 0 3.69149510632957 16.324452721892875 5.213838850334387 0 0 0
341 0 2 0 3.188538192813181 15.489250643235845 5.06323453420453 0 0 0
342 0 2 0 4.620853210520448 16.19816112028608 4.947787709877248 0 0 0
343 0 1 0 -0.9015355375251233 21.791922612360047 4.750567487381858 0 0 0
344 0 2 0 -0.9820404087412579 21.368622040862984 5.6479578388919816 0 0 0
345 0 2 0 -1.552772550770806 22.48788450827524 4.876726130731979 0 0 0
346 0 1 0 1.8887793316232724 21.715393645973556 4.946219712087896 0 0 0
347 0 2 0 1.9864755171317396 20.917926489884945 5.515985774426736 0 0 0
348 0 2 0 0.9193146886827996 21.832377112119172 4.874748091374899 0 0 0
349 0 1 0 4.9845575182704955 20.0222144712483 9.546723530496006 0 0 0
350 0 2 0 5.23303987805199 20.57897714411174 10.307466491844142 0 0 0
351 0 2 0 5.091685145307814 20.5451168462069 8.713131724336945 0 0 0
352 0 1 0 5.566743199450447 20.00069476566346 0.19164203738276686 0 0 0
353 0 2 0 4.911807307265496 19.268948794295582 0.2623922534068498 0 0 0
354 0 2 0 5.484581017192508 20.542693734168164 0.9764213717053556 0 0 0
355 0 1 0 1.0382951159395648 17.752587298181762 0.42955218781095134 0 0 0
356 0 2 0 0.9334651754358961 16.929589992978098 0.9580004066189202 0 0 0
357 0 2 0 -5.67747994535898 17.373760411301554 18.743399794604997 0 0 -1
358 0 1 0 0.45003203296167626 18.195794340197356 9.468916917991944 0 0 0
359 0 2 0 0.6276002536269778 17.66222183311408 10.271295012307963 0 0 0
360 0 2 0 1.2036490939290476 18.86718032344815 9.542984179542465 0 0 0
361 0 1 0 4.800453950058936 21.51387005031471 7.277711061757417 0 0 0
362 0 2 0 5.392310798263859 22.235135246010156 7.476925710869708 0 0 0
363 0 2 0 3.8881967379042925 21.87855801324962 7.1319220328259805 0 0 0
364 0 1 0 5.847686395263438 21.670433739118412 2.700051906340114 0 0 0
365 0 2 0 6.730200209354688 22.02154011983654 2.579618542633718 0 0 0
366 0 2 0 5.8945768896940836 21.131426523282027 3.5553100588114432 0 0 0
367 0 1 0 1.1854764584143815 15.938114784128848 2.640299421993829 0 0 0
368 0 2 0 2.0635717478800286 15.64521772187559 2.4609611677992587 0 0 0
369 0 2 0 1.2497756935791435 16.409108082958863 3.4458942884589376 0 0 0
370 0 1 0 0.09968822550085488 16.178307886700235 7.549614821812318 0 0 0
371 0 2 0 0.29196888250128117 17.065924818204103 7.864594290217363 0 0 0
372 0 2 0 -0.008007682997711374 16.338378813202027 6.595791978743817 0 0 0
373 0 1 0 6.137355822447546 17.954506463073393 2.388994179258153 0 0 0
374 0 2 0 6.359076704976591 17.474252949725404 1.5381833149627657 0 0 0
375 0 2 0 5.2126455133350955 18.262030358915812 2.34104741767783 0 0 0
376 0 1 0 3.6969725904448136 17.944760626615807 7.304808172801358 0 0 0
377 0 2 0 3.528576894067366 17.104274522210147 6.793045092111938 0 0 0
378 0 2 0 4.628264275131448 18.1219605805279 7.014842451136065 0 0 0
379 0 1 0 -0.9198561308856914 20.33229920881739 7.006558123700074 0 0 0
380 0 2 0 -1.6117232191106474 19.631511396515343 7.094284856642239 0 0 0
381 0 2 0 -0.9524988128966498 20.73736665687475 7.872154968630035 0 0 0
382 0 1 0 1.4753227982740342 19.99816393992278 2.6834814405393126 0 0 0
383 0 2 0 2.16117102943016 19.332304029106833 2.7080082808741683 0 0 0
384 0 2 0 1.629180205843021 20.677638999758408 3.3778389500039436 0 0 0
385 0 1 0 6.420192401683495 18.578807683510217 6.6840042401324755 0 0 0
386 0 2 0 7.175598271441604 19.09869988076077 7.062273956734987 0 0 0
387 0 2 0 6.869941022634224 17.862189575863525 6.099629524268715 0 0 0
388 0 1 0 3.492488823086818 18.342562327914514 3.3767299834709603 0 0 0
389 0 2 0 3.423114341504461 17.5341197847905 3.877266170667386 0 0 0
390 0 2 0 3.8545729042894843 19.047976625440075 3.9294502935410995 0 0 0
391 0 1 0 -1.0848693590390737 19.261986896858915 3.4960153288034124 0 0 0
392 0 2 0 -0.22384575593065814 19.554856246559428 3.2901314859543556 0 0 0
393 0 2 0 -1.3635460268353374 19.85789431343422 4.244638257808602 0 0 0
394 0 1 0 1.4793270705766477 19.34509000001323 6.363953107861138 0 0 0
395 0 2 0 0.7141882591304944 19.731581275467963 6.8494260015230655 0 0 0
396 0 2 0 2.198320186905681 19.2246269931707 6.977019786376012 0 0 0
397 0 1 0 8.386365731243954 22.524701522589886 1.5211630629435782 0 0 0
398 0 2 0 8.666944139250388 21.66824325534571 1.1011674556484126 0 0 0
399 0 2 0 9.336711151049936 -0.03260749140512731 2.0109621648682827 0 1 0
400 0 1 0 2.098275308057744 22.31320835196646 8.077949310676317 0 0 0
401 0 2 0 2.4549625742127525 -0.05787399564863824 8.9113401256809 0 1 0
402 0 2 0 1.3127386014415223 22.71894047923749 7.667549409516938 0 0 0
403 0 1 0 -2.373985997409906 15.670222158080394 8.44091458408768 0 0 0
404 0 2 0 -1.4636435251116569 15.903585746436693 8.17835030986815 0 0 0
405 0 2 0 -2.6376904064042335 16.479277086871573 8.89251912475462 0 0 0
406 0 1 0 3.681831807160575 15.477483908182693 1.8340889395934865 0 0 0
407 0 2 0 4.335966507950168 14.979333853573971 2.300217188022448 0 0 0
408 0 2 0 4.151920686630069 16.337716549977944 1.613497537316108 0 0 0
409 0 1 0 5.198512392456297 20.085776126996524 4.766108999154898 0 0 0
410 0 2 0 5.601927842204557 19.36289681836766 5.274221303663943 0 0 0
411 0 2 0 4.896494856208175 20.675794567652424 5.439779005864682 0 0 0
412 0 1 0 0.4752020812710127 17.21682156063595 4.993370426159533 0 0 0
413 0 2 0 0.9071337983374566 17.89208625573658 5.508905513503575 0 0 0
414 0 2 0 -0.17232563858732197 17.78049814585369 4.510797004899726 0 0 0
415 0 1 0 6.468654327822965 16.434147918134556 0.33090804412258623 0 0 0
416 0 2 0 7.293842233401298 16.00228998259425 0.6660073865424506 0 0 0