LAMMPS (29 Sep 2021 - Update 2)
  using 1 OpenMP thread(s) per MPI task
echo both

include		in.partitions
variable        pid world 0
include		in.temp
variable        temperature equal 245
variable        tempDamp equal 0.100 # this is 0.1 ps
include		in.pressure
variable        pressure equal 6079.5
variable        pressureDamp equal 1.0 #this is 1ps
include		in.seed
variable        seed world 745823

units           metal
atom_style	full
include		in.box
read_data       iceV.data
Reading data file ...
  triclinic box = (0.0000000 0.0000000 0.0000000) to (18.399555 22.570389 19.505716) with tilt (0.0000000 -6.7926110 0.0000000)
  1 by 1 by 1 MPI processor grid
  reading atoms ...
  1008 atoms
Finding 1-2 1-3 1-4 neighbors ...
  special bond factors lj:    0        0        0       
  special bond factors coul:  0        0        0       
     0 = max # of 1-2 neighbors
     0 = max # of 1-3 neighbors
     0 = max # of 1-4 neighbors
     1 = max # of special neighbors
  special bonds CPU = 0.000 seconds
  read_data CPU = 0.044 seconds
include 	in.setup
variable	out_freq equal 500
variable	out_freq2 equal 500

timestep        0.0005

neigh_modify    delay 7 every 1

include         in.deepmd
# This is deepMD model

# create groups ###
#group ox type 2
#group hy type 1

mass 2 15.999
mass 1 1.008

pair_style      deepmd ../graph.pb
pair_coeff      * *

bond_style      none
angle_style     none
dihedral_style  none
improper_style  none
neigh_modify exclude none


neighbor        2.0 bin
neigh_modify    every 10 delay 0 check no

thermo          ${out_freq}
thermo          500
thermo_style 	custom step temp pe etotal epair emol press lx ly lz xy xz yz vol pxx pyy pzz pxy pxz pyz

restart 	${out_freq} restart.lmp.${pid} restart2.lmp.${pid}
restart 	500 restart.lmp.${pid} restart2.lmp.${pid}
restart 	500 restart.lmp.0 restart2.lmp.${pid}
restart 	500 restart.lmp.0 restart2.lmp.0


include         in.dump
dump            myDump all atom ${out_freq2} dump.water.${pid}
dump            myDump all atom 500 dump.water.${pid}
dump            myDump all atom 500 dump.water.0
dump            myDump2 all dcd ${out_freq2} dump.dcd
dump            myDump2 all dcd 500 dump.dcd
dump_modify     myDump append yes
dump_modify     myDump2 append yes


timer           timeout 03:55:00 every 1000
New timer settings: style=normal  mode=nosync  timeout=03:55:00

fix             2 all nph tri ${pressure} ${pressure} ${pressureDamp}
fix             2 all nph tri 6079.5 ${pressure} ${pressureDamp}
fix             2 all nph tri 6079.5 6079.5 ${pressureDamp}
fix             2 all nph tri 6079.5 6079.5 1
fix             3 all temp/csvr ${temperature} ${temperature} ${tempDamp} ${seed}
fix             3 all temp/csvr 245 ${temperature} ${tempDamp} ${seed}
fix             3 all temp/csvr 245 245 ${tempDamp} ${seed}
fix             3 all temp/csvr 245 245 0.1 ${seed}
fix             3 all temp/csvr 245 245 0.1 745823
velocity 	all create ${temperature} ${seed} dist gaussian
velocity 	all create 245 ${seed} dist gaussian
velocity 	all create 245 745823 dist gaussian

run             400000

CITE-CITE-CITE-CITE-CITE-CITE-CITE-CITE-CITE-CITE-CITE-CITE-CITE

Your simulation uses code contributions which should be cited:

- USER-DEEPMD package:

@article{Wang_ComputPhysCommun_2018_v228_p178,
  author = {Wang, Han and Zhang, Linfeng and Han, Jiequn and E, Weinan},
  doi = {10.1016/j.cpc.2018.03.016},
  url = {https://doi.org/10.1016/j.cpc.2018.03.016},
  year = 2018,
  month = {jul},
  publisher = {Elsevier {BV}},
  volume = 228,
  journal = {Comput. Phys. Commun.},
  title = {{DeePMD-kit: A deep learning package for many-body potential energy representation and molecular dynamics}},
  pages = {178--184}
}

CITE-CITE-CITE-CITE-CITE-CITE-CITE-CITE-CITE-CITE-CITE-CITE-CITE

Neighbor list info ...
  update every 10 steps, delay 0 steps, check no
  max neighbors/atom: 2000, page size: 100000
  master list distance cutoff = 8
  ghost atom cutoff = 8
  binsize = 4, bins = 7 6 5
  1 neighbor lists, perpetual/occasional/extra = 1 0 0
  (1) pair deepmd, perpetual
      attributes: full, newton on
      pair build: full/bin
      stencil: full/bin/3d
      bin: standard
Per MPI rank memory allocation (min/avg/max) = 7.699 | 7.699 | 7.699 Mbytes
Step Temp PotEng TotEng E_pair E_mol Press Lx Ly Lz Xy Xz Yz Volume Pxx Pyy Pzz Pxy Pxz Pyz 
       0          245   -178.42725   -146.53684   -178.42725            0    35817.161    18.399555    22.570389    19.505716            0    -6.792611            0    8100.4335    35362.553    36572.983    35515.947   -447.97578    1248.7085    370.09265 
     500    242.02432   -166.55156   -135.04847   -166.55156            0     13328.69    18.008286    22.206616    19.239271 -0.027497647   -6.7451285 -0.0063563446    7693.8439     11922.32    14141.075    13922.676   -2864.4254    -98.25269   -179.21219 
    1000    246.38832   -166.67148   -134.60036   -166.67148            0    8343.5798    18.068043    22.597772    19.474988 -0.024257587   -6.8673663  0.020740702    7951.5891    9085.3914    8805.5458    7139.8022    1700.4364   -20.334491   -7.2740751 
    1500    243.77932   -167.16106   -135.42953   -167.16106            0    17263.037    18.034862    22.629855    19.330019 -0.0098438602   -6.9221915 0.0076617499    7889.0891    17431.042    16322.116    18035.954   -578.58193     3692.964    323.21946 
    2000    239.20118   -164.62946   -133.49385   -164.62946            0   -444.21881    18.036292    22.631883    19.246662  0.018292082   -6.9729295 -0.035885584    7856.3957    2056.4966    916.91134   -4306.0644   -268.57282     24.61615   -1306.7076 
    2500    250.19864   -165.41054   -132.84345   -165.41054            0    5555.7895    18.117318    22.829639    19.299646  0.020657888   -7.0345407 -0.055964368    7982.5619    4998.9161    4961.8341    6706.6183      2758.39   -7.8146382    346.03854 
    3000    257.83302   -165.71055   -132.14972   -165.71055            0     12948.06    17.941474    22.643073    19.152493  0.012144277   -7.0115953  0.029995325    7780.7019    13242.433    12103.531    13498.215   -1146.1393   -218.55435     360.6559 
    3500    243.41246   -166.02679   -134.34301   -166.02679            0    2096.7194     18.08001    22.833574    19.367117 -0.0039064853   -7.0788973   0.21750922    7995.3509   -177.23649    2546.7325    3920.6622    775.96291    523.99159   -191.31527 
    4000    240.47854   -165.66595   -134.36407   -165.66595            0    10566.492    18.035181     22.62564    19.292866 -0.077576919   -7.0265556   0.26087163     7872.599     9937.932    10672.272    11089.272   -36.358219    1933.3768    343.84289 
    4500    239.82557   -166.07808   -134.86119   -166.07808            0    9917.4658    18.093855    22.449274    19.298019  -0.13972052   -6.9720771   0.10537533    7838.7379    8833.2674    9673.5393    11245.591     2223.101   -1538.5228   -630.93409 
    5000    237.25434   -165.11167   -134.22947   -165.11167            0    747.05893    18.229019    22.461492    19.410029  -0.11558036   -6.9700226 -0.062878517    7947.4551    94.481526    1683.4654    463.22983   -3635.5419   -591.46425   -776.02599 
    5500    236.29879   -165.84073   -135.08291   -165.84073            0     5094.886    18.074846    22.292217    19.403872 -0.035447083   -6.9073729 -0.041584654    7818.3712    5017.0018    4816.7209    5450.9353   -118.41407    444.36678   -1541.2214 
    6000    250.79959   -166.65782    -134.0125   -166.65782            0     3679.546    18.085966    22.470923    19.456271  0.078150053   -6.8736962  0.067639883    7907.1911    7143.5255    4530.0786   -634.96612   -772.31909    475.01655   -105.86423 
    6500    238.74112   -165.96167   -134.88594   -165.96167            0    5546.3565    18.025615     22.77821    19.213055   0.11793207   -6.7969237   0.14235083    7888.7123    6760.9366    4084.6211    5793.5118    981.39508   -592.74502   -1933.9739 
    7000    256.82041   -166.15295   -132.72393   -166.15295            0    8134.5444    17.990641    22.980409    19.039605   -0.0272415   -6.7192136  0.065403991    7871.5875    7079.0838    9065.7988    8258.7506   -1931.2852   -1465.8594   -627.85788 
    7500    244.89246   -164.67626   -132.79984   -164.67626            0    6475.5649    17.892839    23.074857    19.143597  -0.29099953   -6.7272596 -0.041037822    7903.9071    6578.4755    4509.6475    8338.5716    3528.5968    1327.6486   -2586.3727 
    8000    247.35307   -166.35663   -134.15993   -166.35663            0    7785.0063    17.871207    22.716903    19.369416  -0.40942977   -6.7546713 -0.00010716212     7863.566     5620.808    11033.079    6701.1323    3619.3362   -33.735093    2537.9702 
    8500    241.10186   -166.51176   -135.12875   -166.51176            0    4567.4374    18.079485    22.330931    19.507392   -0.2303008   -6.9492841   0.16119884    7875.7528    5957.0096    3023.1458    4722.1568    2480.8858    1306.5065   -2178.7443 
    9000    250.15898   -164.94489   -132.38296   -164.94489            0    5732.2935    18.383664     22.14799     19.44367  0.055612913   -7.1708266   0.21899922    7916.7082    6546.4271    6436.8813    4213.5721   -1271.0888    675.72851     154.0966 
    9500    243.84653   -164.58737   -132.84709   -164.58737            0    6020.2528    18.303449    22.223365    19.316455   0.19064127   -7.1616065   0.11013368    7857.2425    2644.5956    8318.0646    7098.0982   -2797.5198   -693.82847   -518.75164 
   10000    246.98001   -164.84082   -132.69268   -164.84082            0    5426.5638    18.059458    22.628979    19.418052   0.10773167    -7.016537 -0.050219121    7935.5188    8104.0853    5159.9671     3015.639   -4109.3657    3050.0728    88.273273 
   10500    255.90011   -164.38919   -131.07996   -164.38919            0    4284.1784    17.831039    22.836621    19.377621  0.030034544   -6.8340967  -0.10745366    7890.5806    4790.6084    3802.0535    4259.8733    521.31032   -558.86092    1876.5237 
   11000    243.85766   -165.09689   -133.35517   -165.09689            0    3245.7227    17.888863    22.917186    19.278162  -0.01593546   -6.7589514  0.012093458     7903.322    2575.3917    3026.1732    4135.6032   -3630.3761    2230.4081   -1259.4086 
   11500    236.86615   -164.82143   -133.98976   -164.82143            0    4484.1788    18.112405    22.693893    19.147082  -0.10388408   -6.8084642   0.15445997    7870.2352    1988.9588    5516.7901    5946.7875    -659.2104   -2221.1256   -3653.8225 
   12000      239.922    -163.5996   -132.37016    -163.5996            0    2951.3881    18.232369    22.533523    19.232913   -0.1868576   -6.8462834   0.17281685    7901.6407    1072.1631    3205.2225    4576.7788   -1863.4457   -1037.3705   -266.09107 
   12500    246.68434   -164.26491   -132.15525   -164.26491            0    4747.5632    18.172028    22.376004    19.482322  -0.14039684   -6.7874668   0.15836739    7921.8505    2747.8347     6207.512    5287.3429   -1153.6826   -1632.1858    -665.4541 
   13000     255.6897   -164.81043   -131.52859   -164.81043            0    7323.0054    17.972183     22.23868    19.624503  0.020895696   -6.7492114   0.13137122    7843.4747    12762.963    7196.6211    2009.4322   -1260.7927   -2882.7496    902.30437 
   13500    244.28466   -166.46562   -134.66831   -166.46562            0     2003.307     18.04286    22.513713    19.583603   0.23187845   -6.9546112  0.067289055    7955.0897    328.90748    3322.5446    2358.4688   -1603.3567    2845.0299    157.47115 
   14000     244.3092   -166.60558   -134.80508   -166.60558            0    7127.7596    18.074946    22.654747    19.148509   0.25149024   -7.0785449   -0.1295286    7840.9953    7194.0401    6517.5658     7671.673   -1559.2954    656.33732    4.9204431 
   14500    240.11525   -167.53681   -136.28222   -167.53681            0    4582.9952    18.046028    22.850024    19.047431   0.13025516   -7.1298385  -0.20078454    7854.2496    2552.4502    5746.0245    5450.5108   -317.25741   -560.80041    -103.0621 
   15000    239.99569   -164.55071   -133.31168   -164.55071            0    3559.1185    18.005961    22.881799    19.277859  0.013790189   -7.0734164 -0.059649998     7942.647     2648.841    3562.1243    4466.3903    1653.2558    1197.1996    3229.5383 
   15500    243.99904   -165.43896   -133.67884   -165.43896            0    3716.1111    17.876218    22.622355    19.331474  -0.11268433   -6.8524268    0.1238727    7817.6898    2611.0859    2796.9604     5740.287   -201.79856   -2443.6326    820.08812 
   16000    243.23717   -164.90328   -133.24232   -164.90328            0    6331.4649    18.095105    22.550088    19.456006  -0.21459808   -6.8057448   0.16946456    7938.9496    4534.2874    6306.4265    8153.6807    57.377641    -3102.635    1591.1783 
   16500    249.13211   -165.48265   -133.05438   -165.48265            0    7071.2881    18.231909    22.402519    19.272148  -0.15093112   -6.7951866   0.13815138    7871.5295    10039.981    4824.8613    6349.0222    295.92781   -513.58838    -5249.559 
   17000    240.90763   -164.57979   -133.22206   -164.57979            0    5499.0795    18.160143    22.416696     19.20997 -0.056842965   -6.8367222   0.06722668     7820.194    1444.4392    6708.9094      8343.89   -743.09589    151.28965    2468.7251 
   17500    241.03237   -165.09768   -133.72371   -165.09768            0    3613.4437    18.082681    22.701098    19.392925  0.035683541   -6.9115521 0.00044189555     7960.732    6558.4123    1877.3069    2404.6119   -2890.0038    287.52861   -4781.7581 
   18000    240.99499   -166.50546   -135.13636   -166.50546            0    6482.7011    17.847261     22.63289    19.266885  0.064320835    -6.906769 -0.046838712    7782.5707    10827.805    7796.1449    824.15334    18.161216   -635.79455    5539.3727 
   18500    243.76168   -166.96756   -135.23833   -166.96756            0    3080.0975    18.050617    22.739688    19.301947  0.067062162   -6.9785145 -0.056670601    7922.7811    982.49905    3039.6279    5218.1655   -69.097003    306.34499    2933.5733 
   19000    240.07903   -165.38033   -134.13045   -165.38033            0     5221.238    18.079674    22.657887    19.186507 -0.026242684    -7.010414 0.0006497387     7859.699    7086.6344    6992.6788    1584.4008    616.36664    1039.1189    1875.6074 
   19500    247.32822   -166.32024   -134.12677   -166.32024            0    8999.8542    18.087246    22.592438    19.220645  -0.14899841   -7.0379155   0.11278265    7854.2279    10869.783    6503.4051     9626.375    1638.1861    1498.7628   -2314.1647 
   20000    239.25538   -166.63381   -135.49114   -166.63381            0    6019.0592    18.050711    22.561363    19.406103  -0.15261908   -6.9886248   0.21329896    7903.1088    4922.8078    8080.4328    5053.9369   -1562.7681     2553.255   -1604.6643 
   20500    242.95609    -166.3221   -134.69773    -166.3221            0    6950.4821    18.016309    22.408397    19.374237 -0.046382534   -6.8536602   0.13269367     7821.701    9634.8848    6071.4372    5145.1242   -256.70456    1123.4599    -3556.744 
   21000    244.85536    -166.6115   -134.73991    -166.6115            0    7870.4557    18.178946    22.501432    19.324213   0.17713121   -6.7581309  -0.10035457    7904.6137    8342.8928    8279.2626    6989.2118    529.78472   -897.79615    2839.6282 
   21500    236.24388   -166.70707    -135.9564   -166.70707            0    8683.2952    18.072756    22.521468    19.200069   0.31223226   -6.7021341  -0.29476191    7814.9081    10530.967    8115.9174    7403.0013    548.01682   -1677.4815    1131.5769 
   22000    247.74094    -166.3324   -134.08521    -166.3324            0    3570.3823    17.974922    22.747478    19.360105   0.37251537   -6.7534722  -0.27628247      7916.04    5558.7016     4272.338    880.10745   -2798.5595    419.24266    548.88469 
   22500     247.0986   -165.56595   -133.40236   -165.56595            0    6843.0266    17.777726    22.850643    19.381688   0.17539009   -6.8311789  0.024757107    7873.4714    8803.7311    6636.7602    5088.5886   -2649.8587   -636.36019    1225.9116 
   23000    234.06786   -166.10973   -135.64229   -166.10973            0    7943.2094    17.914176    22.771663    19.273277  -0.21130205   -7.0115151   0.25858222    7862.2555    9200.0178    7214.3369    7415.2735    1474.5654    973.32133   -2834.3136 
   23500    238.06573   -165.00451    -134.0167   -165.00451            0    8082.5129    18.145051     22.68756    19.208116  -0.48007814   -7.0683249   0.29235245    7907.3465    6060.1492    6506.0675    11681.322    379.70629   -441.59985    12.884044 
   24000    250.10307   -164.39702   -131.84236   -164.39702            0    9814.7436     18.17829    22.444346    19.320764  -0.43540162   -7.0054216   0.19829938    7882.8682    8524.6932    11175.365    9744.1725   -2152.7939   -401.32503   -2244.0967 
   24500     247.2654   -165.54389    -133.3586   -165.54389            0    6826.2952    18.092554    22.468076    19.460062 -0.081212718   -6.8546407  0.026904335    7910.6106    6569.8099    6630.1809    7278.8949    -1339.226    859.81032   -382.41643 
   25000    249.59526   -165.35252   -132.86396   -165.35252            0    7320.7868    17.985797    22.538733    19.397733   0.24128038   -6.7053689 -0.083712268    7863.3963    5709.4034    8804.7958    7448.1613    1099.0772   -584.33596   -138.24905 
   25500    249.57307   -165.16525   -132.67958   -165.16525            0    5366.8339    18.078651    22.668038     19.37214   0.33416375   -6.7618356  -0.11481456    7938.8489    6421.4275    5055.3686    4623.7057   -1907.4656   -1380.7751   -2566.0413 
   26000     253.8509   -165.11218   -132.06969   -165.11218            0    4066.5225     18.02441    22.690516    19.164798   0.16457688   -6.8388343 -0.070843983    7838.0801    1854.2538    4155.3447     6189.969    2916.7749    -1723.876    1284.5298 
   26500    245.71879   -166.63663   -134.65265   -166.63663            0     4777.753    18.039889    22.819913    19.214182  -0.24497449   -6.9327992  0.093632829    7909.8772    7264.3034    2661.7559    4407.1996    1149.5572    1826.5449   -627.95068 
   27000    253.65382   -164.95251   -131.93567   -164.95251            0    6884.8785    17.971679    22.761113    19.369236  -0.50063968   -6.9759087   0.25703634    7923.0909    9363.8986    7416.7753    3873.9616    915.62601   -624.69056   -292.31089 
   27500    246.03224   -165.29939   -133.27461   -165.29939            0    9116.9876    18.010185    22.449089    19.381846  -0.42700253   -7.0288488    0.2524877    7836.3177    6364.6916      10846.8    10139.471    1722.1814    709.98886   -312.76297 
   28000    238.38913   -165.75779   -134.72788   -165.75779            0    5635.5933    18.221825    22.465009    19.449855 -0.085395082   -7.0649497   0.10029688    7961.8655    5709.3056    5374.5269    5822.9474    1050.2893   -3224.9218   -3031.9427 
   28500    245.25722   -165.16601   -133.24211   -165.16601            0      7408.71     18.08217    22.411556    19.311075   0.28217748   -6.9431107 -0.034703445    7825.8047    5046.6911    9340.2299    7839.2088   -2088.8788     1556.974   -1644.2692 
   29000    238.74369   -165.29809   -134.22203   -165.29809            0    3577.2923     18.07202    22.620841    19.392981    0.4086438   -6.8654614 -0.081491551     7927.934    3836.1549    2572.3994    4323.3226   -1689.9908   -202.58672    1496.5878 
   29500    254.49325   -165.36992   -132.24381   -165.36992            0    3882.8887    18.025379    22.693359    19.304666   0.21084023   -6.8051367 -0.038868219    7896.6968    5088.1782    2490.4351     4070.053     -1870.67   -637.56594   -4923.1151 
   30000    260.77737   -164.30415   -130.36007   -164.30415            0    3925.6661    18.077133    22.623306    19.308449  -0.13669763   -6.8208794  0.066021049    7896.4703    3557.6903    3990.7066    4228.6013   -1609.1646   -849.51009   -1977.5735 
   30500    247.21381    -164.4388   -132.26022    -164.4388            0    8140.4004     18.11051    22.600542     19.36693  -0.30851933   -6.8711768    0.1888053    7927.0261     9260.936    7543.0512    7617.2139   -669.51175    2541.4035   -520.08164 
   31000    253.38279   -164.64975   -131.66819   -164.64975            0    9588.1776    18.082113    22.535995     19.28003  -0.28727368   -6.9321631   0.22742263    7856.5813    8129.1638     10321.53     10313.84     4703.688   -313.02564    2759.3634 
   31500    248.77111    -165.0493   -132.66802    -165.0493            0    8605.9007     18.03532    22.680203     19.35283 -0.059386536   -7.0388855  0.035239338    7916.1731    10795.389    6590.9713    8431.3418   -925.98292    927.24477    3577.8982 
   32000     243.6583   -165.60111   -133.88534   -165.60111            0    6751.6538    18.015802    22.751586    19.329595   0.31287523   -7.1097186  -0.21468433    7922.9702    6721.1532    7039.0526    6494.7557    419.21236   -959.13736    3418.6492 
   32500    247.64709   -165.07757    -132.8426   -165.07757            0    6184.3372    17.988059    22.639674    19.228188   0.51182783   -7.0922389  -0.27162499    7830.5602    4625.9655    7119.5212    6807.5249    3773.8509   -1200.2159    3687.5528 
   33000    248.72506   -165.48165   -133.10636   -165.48165            0    5457.7191    18.187018    22.733621    19.328888   0.32147106   -7.0261844  -0.10220283      7991.66     7328.605    5337.1371    3707.4151    1919.4877    2202.8934    1988.1434 
   33500    248.36831   -165.96098   -133.63213   -165.96098            0    10540.319    18.072281    22.478896    19.221752 -0.091295811   -6.8180575   0.14004259    7808.7395    10999.132    10044.708    10577.117    867.82721   -1445.0695    228.54734 
   34000    241.38911   -166.89187   -135.47147   -166.89187            0    6180.1124    18.127726    22.517055    19.399893  -0.34393973   -6.7900716   0.26499421    7918.7067    2965.7863    7652.4868    7922.0641   -69.838828    1683.9258    2142.7284 
   34500    234.11591   -166.51786   -136.04417   -166.51786            0    5821.8353    18.039435    22.521239    19.366774   -0.3550325   -6.7658504   0.24218005    7868.1477    8601.5431    3978.1247    4885.8382    1712.1703    306.31183    213.63639 
   35000    231.42688   -166.83553   -136.71185   -166.83553            0    5726.9687    18.051646    22.568764    19.244863  -0.16830379   -6.8650678   0.11567095    7840.4215    7058.5896    4457.6552    5664.6613    2652.9937   -542.90066      703.424 
   35500    244.86215   -166.60519   -134.73271   -166.60519            0    5071.4483    18.185924    22.791617    19.193435   0.17746866   -7.0515189 -0.021931236    7955.4219      6490.19    3229.4959    5494.6589   -1245.2604    1274.9141   -1304.8133 
   36000    244.81303    -165.9836   -134.11752    -165.9836            0    4383.6838    17.961474     22.76785    19.187048   0.41230046   -7.0694659  -0.18038841    7846.4309    5090.7513    2906.7698    5153.5302    2133.9536    803.07654    1586.8931 
   36500    234.63487    -164.7537   -134.21246    -164.7537            0    7781.1955    17.916384    22.720569    19.411078    0.3839288   -7.0952244  -0.20569584    7901.6763    8838.8644    9714.6675    4790.0547   -2079.6979    1081.7528    -335.6419 
   37000    243.27848   -165.55456   -133.88823   -165.55456            0    2653.4881    18.040154    22.538384    19.417729   0.01191218   -7.0581025 -0.097582508    7895.1693    1765.0727    4817.3345    1378.0571    2030.5635   -670.03568   -792.24933 
   37500    243.06726   -165.61548   -133.97664   -165.61548            0    6861.8551    18.210108    22.379225    19.265006  -0.40129733   -7.0224107  0.091604485    7851.0312    2988.3495      7595.32    10001.896    121.30706    1878.1277   -1718.9251 
   38000    245.18605    -164.4162   -132.50157    -164.4162            0    4097.9455    18.283051    22.467322    19.317778  -0.45847753   -6.9754757   0.22765913    7935.1868    1575.8784    5707.4115    5010.5464    2394.2527   -1870.8579   -245.95473 
   38500    246.95932   -165.29474   -133.14928   -165.29474            0    4910.0928    18.103954    22.630146    19.312185  -0.14316046   -6.8475992   0.26613304     7912.108      5563.75    6891.9111    2274.6173    4158.5797    3099.3103   -686.02851 
   39000    243.48202   -166.24374   -134.55091   -166.24374            0    7585.3858     17.93302    22.729367    19.307531   0.14316181   -6.7779909    0.1637625    7869.8689    5274.2222    7105.0818    10376.853   -2299.3888   -1593.5323   -1997.1609 
   39500    251.83722   -165.67236   -132.89198   -165.67236            0    7792.3022    17.995726    22.740256    19.336925   0.21144948   -6.8052436 -0.043368876    7913.1999    7581.3839    9468.7085    6326.8141    4339.3186    516.04154   -191.98214 
   40000    252.42628   -166.68406   -133.82701   -166.68406            0    9368.6773    18.024329    22.671335    19.261419   0.10128981   -6.8481411  -0.13390062    7870.9015     9889.417    7917.8591    10298.756   -1824.8419    736.68919   -289.78331 
   40500    243.69669   -166.63134   -134.91057   -166.63134            0    3908.2986    18.155998    22.558779    19.350002 -0.088244227   -6.9757759 -0.055146197    7925.3187    1860.2795    5037.3815    4827.2349    1439.4941   -169.24499   -1586.9461 
   41000    244.42542   -166.69125   -134.87563   -166.69125            0    6350.0215    18.141577    22.345075    19.377043  -0.31685879   -7.0391315   0.13286986    7854.9668    5811.7103    8785.4507    4452.9035    431.09129    1041.1168    1080.1497 
   41500     249.3227   -166.20106   -133.74798   -166.20106            0    4244.3655    18.050008    22.479481    19.349599  -0.35424232   -6.9877214   0.35473518     7851.193    2846.8319    6595.0725    3291.1919    2543.1795    1922.6789   -4089.2254 
   42000    245.46579   -166.04988   -134.09884   -166.04988            0    5636.2822    18.008063    22.836577    19.311684  -0.21922468   -6.8978456   0.35888246    7941.7858    3612.1356    7582.3313    5714.3797   -692.06298   -50.650966    349.48578 
   42500    243.98547   -164.86115   -133.10278   -164.86115            0    9522.3992    17.885219    22.927692    19.039521 -0.056285914   -6.7274444   0.12476799    7807.4751    6266.6685    10510.946    11789.583    -1598.015     1601.953   -2228.5157 
   43000    242.58398   -164.38066   -132.80472   -164.38066            0    864.75322    17.995672    23.061049    19.152453   0.10995225   -6.6504415  -0.22540472    7948.2499    43.810562    679.41388    1871.0352    3285.3578    209.04036   -377.43232 
   43500    249.19583   -165.67805   -133.24148   -165.67805            0    9044.8098    17.934025    22.703654    19.249017   0.24188869   -6.6321228  -0.32987622    7837.5814    6638.3659    9781.7985    10714.265   -2448.2274   -35.104003     2632.095 
   44000    245.15943   -165.98144   -134.07027   -165.98144            0     5166.504     18.07822    22.501154    19.440131   0.25933255   -6.7399762 -0.089127385    7907.8725     4353.052    4525.6907    6620.7695    383.70496   -990.74517    2078.8787 
   44500    243.78176    -165.4505   -133.71865    -165.4505            0    5813.9408    18.101401    22.333412    19.458172   0.12479208   -6.8874386   0.10968541     7866.278    3914.9644    7484.3014    6042.5567    929.72238    -906.0585    -924.6604 
   45000    238.59054   -166.95693    -135.9008   -166.95693            0    8022.6315    18.200324    22.419068    19.419106 -0.048782561   -7.0480999   0.12046883    7923.6613    5952.1396    8821.2491    9294.5057   -3585.7714    1140.6616   -2133.6635 
   45500    243.67629   -166.79268   -135.07457   -166.79268            0    4010.4743    18.125684    22.514003    19.223701  -0.21273639   -7.0644877  0.091880791    7844.8405    2844.5157    3784.8297    5402.0775    -333.0234   -2103.9971    1486.3543 
   46000    246.87246   -166.64946   -134.51531   -166.64946            0    5606.6771     18.07735    22.653061    19.270897  -0.19037169   -7.0681541  0.075957492    7891.5734    3170.4476     7025.017    6624.5667   -1620.4774    1008.0842   -2866.5185 
   46500    241.51096   -165.95087    -134.5146   -165.95087            0     5186.605    18.026737    22.710702    19.336182 -0.019621964   -6.9726983  0.078854906      7916.23    3734.5233    6142.2473    5683.0444    835.47852    1059.6582    665.31768 
   47000    246.64006   -166.09839   -133.99449   -166.09839            0    7052.6743    17.998689    22.708566    19.308289   0.12992534   -6.7874943  0.077042634    7891.7692    6167.7588    5763.2981    9226.9661   -2579.2019   -2232.5493   -1412.0916 
   47500    241.46317   -164.15423   -132.72418   -164.15423            0    7161.5876    18.068551      22.5926    19.312734   0.21009147    -6.697814   -0.1053073    7883.7583    8598.3247    6239.5149    6646.9232   -982.86795    688.24812   -732.11298 
   48000    251.20148   -165.81839   -133.12076   -165.81839            0    4153.0135    18.190965    22.508615    19.430334  0.075535539    -6.588072   -0.3737228    7955.8168     9747.694    2608.4246    102.92184    1710.5564   -2018.5812    1979.5411 
   48500    240.57236   -164.45308   -133.13899   -164.45308            0    7348.0596    18.015691     22.25324    19.414836 -0.089862783   -6.5430678  -0.24181674    7783.5534    6983.4987    9917.7008    5142.9792    2056.3509    543.11788    3328.3733 
   49000    253.26026   -165.29528   -132.32967   -165.29528            0    5058.2994    18.206666    22.539696    19.576354 -0.086221647   -6.7200798   0.23409088     8033.602    6001.4682    6503.1982     2670.232    33.384196   -1319.1471   -2204.5312 
   49500    264.11024   -163.19558   -128.81768   -163.19558            0    5565.0004    18.083383    22.540163    19.256157  -0.11763523   -6.8171854   0.41952087    7848.8562    3901.8317    5705.1529    7088.0166   -39.802259    2365.2453   -3990.5613 
   50000    254.16883   -165.06446   -131.98059   -165.06446            0    2352.2866    18.116647    22.682921    19.349231  -0.19826951   -6.9010207   0.25639382    7951.3434    3209.9331    2803.3947    1043.5321    155.96234   -2315.8404   -4246.2247 
   50500    245.42844   -165.48388    -133.5377   -165.48388            0    6149.6196    18.028963    22.549917    19.283869  -0.22425911   -6.9537805 -0.033026264     7839.888    6158.8219    4750.7432    7539.2938   -2175.0693    400.09328    732.36302 
   51000    244.29439   -164.50691   -132.70834   -164.50691            0    5861.1635    18.062962    22.575807    19.326078 -0.0072088952   -6.9743088  -0.12477853    7880.9029     3069.648    8850.8621    5662.9803    2405.1615    1897.8966   -418.21043 
   51500    241.16814   -164.99859   -133.60695   -164.99859            0    5741.4255    18.063228    22.644984    19.346387    0.3040709   -6.9218162 -0.064167548    7913.4755    4821.9913    5489.8174    6912.4677    1539.5934    333.21386    887.52466 
   52000    237.28233   -166.29876   -135.41291   -166.29876            0    8115.2896    17.958143    22.634138    19.228212   0.38798468   -6.7636066  0.026462568     7815.635    8106.2358    7836.2276    8403.4055    560.08796    559.02101    475.00736 
   52500    243.18809   -164.44924   -132.79468   -164.44924            0    3822.1684    18.049064    22.869081    19.307682  0.048606898   -6.6973227  0.068954983    7969.5451    4487.2383    3121.3439    3857.9229   -2691.7039   -1878.5857    458.19371 
   53000    247.19938   -165.59425   -133.41755   -165.59425            0    4479.5528    17.982755     22.70751    19.258431  -0.46858933   -6.6557196 -0.019566241    7864.0564    3812.4421    2917.2075    6709.0089    1532.0901    275.97326    1847.5167 
   53500    248.25094   -165.92894   -133.61536   -165.92894            0    5366.4978    18.019157    22.582721    19.413515  -0.51372265   -6.7187688 0.0038313601    7899.7783    6783.1622    4584.0271     4732.304    3509.2287    -1838.057    2233.5864 
   54000    250.69698   -164.75805   -132.12609   -164.75805            0    4102.6977    18.084828    22.503438     19.42684  -0.11390827   -6.8305222   0.15015001    7906.1567    1921.3232    5704.7239    4682.0459    2089.4566   -1184.0387    807.77911 
   54500    240.83753   -166.73424   -135.38563   -166.73424            0     3086.951    18.093152     22.52882     19.29951   0.30524688   -6.9000906   0.21961327    7866.8153    1005.3604    2810.4551    5445.0375   -1618.6952    2259.2957   -601.68213 
   55000    249.19576    -166.4219   -133.98534    -166.4219            0    5578.9346    18.142503    22.543238    19.260689   0.35606401   -6.9837294  0.010812579    7877.4439    4228.4514     6224.003    6284.3493    56.727852      980.429   -812.31605 
   55500    239.75154   -166.76374   -135.55649   -166.76374            0    3170.7644    18.165279    22.608253     19.31572  0.096534497   -6.9994409  -0.30712907    7932.6806    931.08708    2577.3092     6003.897    911.57425    783.52058    463.10047 
   56000    258.14625   -165.76928   -132.16768   -165.76928            0    7497.2485    17.968073    22.546911    19.372721 -0.083943826   -6.9428118  -0.31251269    7848.3649    10796.058    6674.3493    5021.3382    1619.8673    1613.4973    3809.3908 
   56500    242.75151   -164.69235   -133.09461   -164.69235            0    4574.7689    18.067062    22.557454    19.549818 -0.037774124   -6.9737135  0.019978408    7967.4682    6379.6318    6407.0431    937.63171    671.15189    642.41674   -1025.3742 
   57000     242.2128   -164.88141   -133.35379   -164.88141            0    6639.7432     18.06909    22.422259    19.368376  0.072081966   -6.9552882   0.34762294    7847.0935    8099.2887    5480.6683    6339.2727   -539.72521   -676.82222   -606.94698 
   57500    245.66271   -165.85868     -133.882   -165.85868            0    6189.2242    18.184361    22.528485     19.31346  -0.03957869   -6.9844562   0.30664744    7912.0698    9201.4871    7208.7929    2157.3926    2002.9514    1240.0681   -915.05883 
   58000    249.80815   -166.32407    -133.8078   -166.32407            0    1981.3381    18.069181    22.655414    19.278657  -0.23658344   -6.9630198 -0.028554299     7892.003    2522.9348    2133.4672    1287.6125   -204.73871   -483.97275   -360.40235 
   58500    254.89475   -166.67489   -133.49653   -166.67489            0    7538.1494     17.94791    22.776292     19.25713  -0.18453407   -6.8956183  -0.15475995    7872.0609    6076.4823     6407.419    10130.547   -794.58233   -184.13137    3941.2993 
   59000    253.30242   -165.84232   -132.87122   -165.84232            0    3857.5471    18.015202    22.834254     19.27651  0.066422991   -6.8917773  0.018600817    7929.6564    1680.6007    6993.6864    2898.3542    474.81146   -1360.3209    668.66414 
   59500    249.12335   -164.59463    -132.1675   -164.59463            0    5606.5379    18.020089    22.756304    19.189339   0.17428894   -6.8481616   0.19303481    7868.9841    6489.6417    4022.2648    6307.7072    -1618.332   -2176.9374   -368.01147 
   60000    238.59619   -165.61472   -134.55786   -165.61472            0    6914.9688    18.124683     22.61403    19.338864  0.052743687   -6.8299222  0.068696912    7926.4611    6912.5444    7810.7494    6021.6126    570.06402    1111.9249    1294.3258 
   60500    236.23784   -165.17455   -134.42465   -165.17455            0    6959.9285    18.131238    22.390335    19.458574  -0.13282285   -6.7463032  -0.18803856    7899.4896    4772.7717    5451.9453    10655.068    95.720862   -1301.8083   -393.79301 
   61000    238.64661   -165.00603    -133.9426   -165.00603            0     8033.751    18.165635    22.281111    19.514272  -0.21611426   -6.6669554  -0.25372372     7898.412    10921.241    10559.989    2620.0231     2787.423   -640.24129    1421.9623 
   61500    254.06747   -166.23741   -133.16672   -166.23741            0     5035.492    18.149557    22.399127    19.352733  0.060310732   -6.6319108  0.087866343    7867.5482    705.00679    7297.4265    7104.0425    426.55395   -1116.6075   -3488.4706 
   62000    244.95127   -164.58009   -132.69601   -164.58009            0    8048.0193    18.091478     22.74512    19.279428   0.29700023   -6.7089081   0.39247122    7933.3466    6976.2253    8936.1566     8231.676   -2429.5971    -1191.119   -2389.4793 
   62500    240.18974   -165.07326   -133.80897   -165.07326            0    6787.2001    17.994433    22.874733    19.163479   0.04794509   -6.8077496   0.20623764    7888.0306    8649.0146     5845.157    5867.4287    227.52722   -1447.7158   -1436.4459 
   63000    250.98258   -163.79726   -131.12812   -163.79726            0    2721.5064    17.986733    22.879125    19.224309  -0.21215684   -6.9452865   -0.1164936    7911.2013    4622.8366    501.77559     3039.907    1322.1155    1576.8352    32.832565 
   63500    248.98668   -166.18163   -133.77229   -166.18163            0    5388.5195    18.033891     22.70403    19.405913  -0.24421605   -6.9899792  -0.17224113    7945.5955    8934.1692    4705.3391    2526.0503    851.46436    1932.7976   -1604.4376 
   64000    250.15593   -165.39473   -132.83319   -165.39473            0    7626.8578    18.027394    22.452779    19.465211  -0.04894417   -6.9341381 -0.024037078    7878.8379    7421.3033    6912.2663    8547.0037     1567.673    123.37269    441.83449 
   64500    254.10507   -167.10769   -134.03211   -167.10769            0    3272.6596    18.158896    22.411945    19.521434   0.17122138   -6.8776768   0.16423674    7944.7586    1623.7943    5988.7589    2205.4256   -646.53972    2777.1892   -205.15394 
   65000    232.07326   -165.82613   -135.61833   -165.82613            0    6792.9786     18.13069    22.438167     19.29546  0.087003547   -6.7609791   0.16372066    7849.7683    4401.9263    8261.6938    7715.3158   -1858.7529   -2893.1768   -3956.4837 
   65500    237.64232   -165.66218   -134.72948   -165.66218            0    6335.6701    18.200536    22.614799    19.302313  -0.15109041   -6.7529192 -0.069926143    7944.8606    7709.5154    5006.3944    6291.1004   -481.34968    1324.0185   -628.89662 
   66000    260.67346   -165.51838   -131.58783   -165.51838            0     8577.451    17.950037    22.657502    19.361601  -0.23329894   -6.7109197  -0.17711133    7874.4214    8158.7472      8234.33    9339.2757   -1075.1755   -803.77049    1220.9603 
   66500    246.87205   -164.12777   -131.99368   -164.12777            0    7255.9924     17.84626     22.78142    19.490479  -0.14136952   -6.8172194 -0.089603441    7924.1104    10236.318    6941.0168    4590.6418    2262.9881      506.954   -15.363299 
   67000     246.6541   -166.32947   -134.22374   -166.32947            0    5928.6491    17.958513    22.752712    19.355134  0.020069871   -7.0032288   0.10140927    7908.6026    6053.3875    4407.2783    7325.2815    1063.0474   -1101.3418   -459.80695 
   67500    241.56565   -165.09929   -133.65591   -165.09929            0    4725.8926    18.173765    22.562177    19.159367   0.10711697   -7.1953892   0.24723176    7856.1011    2875.7449    5592.0149     5709.918   -1188.8845    1953.7751    189.07087 
   68000    243.78335   -166.33701   -134.60496   -166.33701            0    4554.2372    18.362468    22.495662    19.332047  0.017545501   -7.2784698   0.15623751    7985.6024    2020.8616    7230.2913    4411.5588    -1466.056    1266.3226    64.061214 
   68500    257.47435     -166.201   -132.68686     -166.201            0    8019.7833    18.021215    22.233318    19.462624  -0.13641304   -7.0740531  -0.10236607    7798.1171    8518.9513    7728.7099    7811.6886     936.6791   -2682.5257    2269.1855 
   69000    236.48936   -166.14855   -135.36592   -166.14855            0    6263.4284     18.01957    22.476583    19.716587  -0.10187787   -6.9221976  -0.13960955    7985.5798    6863.2474    8498.2983    3428.7395    429.78142    2611.9844    2222.7877 
   69500    244.13255   -166.49096   -134.71346   -166.49096            0    6395.4911    17.985054     22.50506    19.350477  0.014492745   -6.7886657 -0.029955704    7832.1966    4914.2683    8302.7635    5969.4416    3023.1674   -3165.3837   -134.05241 
   70000    242.39546   -166.14295   -134.59155   -166.14295            0    6859.8692     18.11095    22.667249    19.205948  0.077018948   -6.7858992  0.027128978    7884.5296    5552.3154    6238.7753     8788.517   -823.51535   -773.87359   -162.65497 
   70500    237.15462   -166.13581   -135.26659   -166.13581            0    5274.7524    18.118984    22.754865    19.190676 -0.0096316111   -6.8311955  0.040625291    7912.2205    4351.8763    5819.5364    5652.8445    2405.5606   -2169.8826    1109.1121 
   71000    247.61357   -166.32496   -134.09435   -166.32496            0    10010.001     17.97308    22.735783    19.191198 -0.091506283   -6.9170225  0.027777875    7842.1387    10301.654    7758.9095    11969.439    2057.6148   -933.02511   -810.82935 
   71500    237.76079    -165.2257   -134.27758    -165.2257            0    2408.7154    17.957099    22.709118    19.393851 -0.015966603   -7.0857776  0.066781979    7908.6161    4432.8368    2121.9726      671.337   -131.99132    48.201929    2902.7381 
   72000    262.79726   -165.41652   -131.20953   -165.41652            0    6349.2934    18.014664    22.563083    19.468116   0.04293836   -7.1860549   0.12196304    7913.1345    7133.7671    7750.2822    4163.8309   -432.99593    3412.3425    1728.9077 
   72500    251.77763   -166.36853    -133.5959   -166.36853            0    5548.3234    18.250509    22.438569    19.353852  0.070578347   -7.1362985  0.068060057    7925.6988    1711.7422    8718.2012    6215.0267   -547.52152    1530.9964    1736.0075 
   73000     235.1817   -165.69986   -135.08745   -165.69986            0    3772.7731    18.174717    22.391171    19.292195 -0.048651406   -6.8394997 -0.098461395    7851.0205    145.81661     6383.904    4788.5987   -1873.8901    706.51882   -251.36555 
   73500    249.13166   -165.88797   -133.45975   -165.88797            0    5171.1303    17.996091    22.633755    19.486592   -0.1363377    -6.468451 -0.069251663    7937.2614    5446.3339    3663.8573    6403.1998   -106.15885   -780.61006    -960.4985 
   74000    241.71041   -165.89338   -134.43115   -165.89338            0    6156.0606    17.801708    22.678556    19.474403  0.027916104   -6.3169608   0.15984938     7862.148    7142.9905     4091.895    7233.2962   -1119.0656   -1547.4165    62.930983 
   74500    235.63117   -164.96397   -134.29304   -164.96397            0    6089.0084    17.962416    22.750166    19.301284   0.16191258   -6.5135683   0.29060418    7887.4303    4714.2315    6476.6023    7076.1914   -2302.0282    1398.4898    -1475.692 
   75000    248.70895   -165.19444   -132.82125   -165.19444            0    5578.3162    18.140163    22.712974    19.146058 -0.022506096   -6.8161031   0.17313112    7888.5026     1890.399    7649.6964    7194.8532    1280.3966    -502.0468    2770.1953 
   75500    235.30995   -166.05919   -135.43007   -166.05919            0    5582.9677    18.130672    22.711312    19.217175  -0.19750594   -6.9616696 -0.024079956    7913.0822    3820.8037     5687.345    7240.7544   -1644.3919    35.395524    870.20481 
   76000    251.74753   -166.50752   -133.73881   -166.50752            0    7478.9903    17.979128    22.621675    19.388831  -0.18324394   -7.0673287 -0.039916699    7885.7864    7367.6715    9375.8918    5693.4076   -1378.9857    299.42799    72.919695 
   76500    224.22008   -166.58633   -137.40073   -166.58633            0    5676.6504    17.994555    22.638717    19.425208 0.0056292988   -7.1015415  0.039937711     7913.318    7788.9726    7249.5922    1991.3862   -1628.8425    614.96497   -1908.0038 
   77000     238.0324   -167.78628    -136.8028   -167.78628            0    7207.4618    18.013459    22.485597    19.263075   0.23541435   -7.0170962  0.075354778    7802.3811     5956.626    6770.3792    8895.3801   -511.04409    1123.4321    469.85229 
   77500    245.43545   -166.42215   -134.47505   -166.42215            0    4044.7853    18.247329    22.658355    19.303554    0.1757237   -6.8914264 -0.054270885    7981.1401    2160.5496    4956.7761    5017.0302    3049.9817    2676.9718    1713.5177 
   78000    264.18783   -165.23634   -130.84834   -165.23634            0    4714.9837    18.069405    22.693278    19.190282  -0.11395905   -6.5604581  -0.20846452    7869.0523    3501.1319    3894.6148    6749.2044   -1494.4186    -45.56947   -653.66436 
   78500    238.05599   -166.37328   -135.38673   -166.37328            0    5282.4713    17.943983    22.695373    19.338291  -0.31436145   -6.4552607 -0.060666271    7875.4298    10196.162    2313.4166    3337.8356    1413.5763   -1654.1858    2350.5312 
   79000    246.56811   -167.06084   -134.96631   -167.06084            0    5493.6551    17.969833    22.705945    19.463614  -0.18492715   -6.5898409     0.239408    7941.5834    4270.5749    6272.7539    5937.6366    -1651.319   -1483.6108   -1077.0688 
   79500    248.00141   -165.25763   -132.97654   -165.25763            0    4773.1677    17.970889    22.574393    19.347474 -0.052431334   -6.7592149    0.3183354      7848.92    5765.3715    3061.4921    5492.6395   -220.45335    -1531.923   -4832.4212 
   80000    253.59475   -165.75232   -132.74317   -165.75232            0    5877.0222     18.16759    22.512713    19.331485 -0.065652278   -7.0224879  0.098741391    7906.6109    6751.3851    5749.0846    5130.5968     -1552.59   -959.75881    2055.5487 
   80500    248.04279   -165.81992   -133.53344   -165.81992            0    9559.5633    18.232564    22.505379    19.306603 -0.074745893   -7.1490611  -0.15989252    7922.0929     9302.531    10040.847    9335.3116    255.08103    2599.6527    1108.2498 
   81000    249.62596   -165.78957   -133.29702   -165.78957            0    6153.1754    18.050667    22.503874    19.297162  0.055446006   -7.0918495  -0.13203419     7838.699    7360.6649    8216.3329    2882.5285    1103.6412   -687.51292    871.80777 
   81500    237.95474   -165.45036   -134.47699   -165.45036            0    7552.7073    17.947426    22.748573    19.426251   0.27461015   -6.9660387   0.11366095    7931.3172    7878.4321    7104.5132    7675.1765    151.60485   -323.16459    1060.9503 
   82000     244.8648    -166.3934   -134.52058    -166.3934            0     8641.343    17.894622     22.80839    19.302221   0.22175476   -6.7636205   0.19702068    7878.1535    5708.1643    9553.7977    10662.067   -594.51104   -494.62056   -1347.1186 
   82500    254.03349   -164.91994   -131.85368   -164.91994            0    2811.3144    18.053218    22.798379    19.136447  -0.18921353   -6.6227165  0.017951797    7876.2576    1003.1458    2572.2835     4858.514    3476.0184   -2698.9182    2669.1839 
   83000    244.60674   -164.56182   -132.72259   -164.56182            0    4952.2323    18.230041    22.743243    19.210345  -0.48553669   -6.5579146 -0.058184397    7964.8058    6069.9144    4462.0304     4324.752   -9.7408559    586.55628   -2062.9097 
   83500    250.86878   -165.92996   -133.27564   -165.92996            0     6111.846    18.076373    22.515361    19.323901  -0.38738025   -6.5677298  0.081272017    7864.7517    7089.2414    5849.2529    5397.0437    667.89075     219.6678    2352.9553 
   84000    249.15389    -163.9021   -131.47099    -163.9021            0    4256.9123    18.073928    22.554455    19.496686   -0.1029153   -6.6822364   0.24069941    7947.7776    2477.1653    3640.8903    6652.6812   -455.83853    1105.4967   -1190.6512 
   84500    251.58146   -165.84357   -133.09648   -165.84357            0     5332.373    18.015429    22.510959    19.448378  0.096214487   -6.8022485   0.23674182    7887.1845    5465.5757    5885.4256    4646.1178   -3810.4463    609.54248   -447.06848 
   85000    247.26551   -166.54011   -134.35481   -166.54011            0    7206.4024    18.103776    22.613064    19.243917   0.13324279   -6.9471444  0.042374057    7878.1102    7973.1101    7856.8079    5789.2893   -2783.7189   -506.06077     207.7072 
   85500    257.13042   -165.80513   -132.33576   -165.80513            0    3630.6523    18.088282    22.779263    19.236404  0.046283609   -7.0210279   -0.1640361    7926.1239    4371.8573    3454.0677    3066.0318   -516.24795    329.83416      404.106 
   86000    244.27576   -164.98536   -133.18922   -164.98536            0    6363.8381    17.981466    22.715512    19.339788 -0.0074026118   -7.0436773  -0.17761685     7899.495    6964.6691    4911.1012    7215.7439   -541.75394    933.45222    2220.8248 
   86500    239.57781   -165.99277   -134.80813   -165.99277            0     9254.073    18.042615    22.579314     19.31647  0.054701499   -6.9790222  0.052231186    7869.3342    10028.293    7999.0152    9734.9114    1464.5017    1028.9432    1588.4201 
   87000      244.179   -167.20173   -135.41818   -167.20173            0    5167.3385     18.17768    22.420183    19.350097  0.052810518   -6.7823999   0.31780255    7886.0726    2087.3841    5747.4471    7667.1844    1375.3799   -2758.5428   -764.50143 
   87500    237.42537    -164.9715   -134.06704    -164.9715            0    6534.3501     18.13526    22.360327    19.465497 -0.093706362   -6.5474831    0.2433812    7893.4604      10593.3    7552.1162    1457.6342   -351.39136   -130.14211   -386.27334 
   88000    244.18539   -164.94685   -133.16247   -164.94685            0    5871.4295    17.969599     22.45752    19.506524  -0.25192563   -6.4062791 -0.044431918     7871.909    6108.9871    5947.1331    5558.1683    796.47298    107.38117   -140.47892 
   88500    240.86845   -165.68696   -134.33432   -165.68696            0    7670.6503    18.034486    22.646874    19.395995  -0.11054937   -6.4388028  -0.19468406    7921.8037    8314.5929    8406.4055    6290.9525    952.00161    648.81017   -4272.6642 
   89000    235.18794    -166.7951   -136.18187    -166.7951            0    3577.1016     18.01898    22.790744     19.12329   0.23856927   -6.7009417 -0.061237935    7853.2845     2943.784    3776.8461    4010.6747   -3645.0301    482.00005      1729.88 
   89500    238.20034   -167.37563   -136.37029   -167.37563            0     5614.615     18.00337    22.843923    19.143205    0.2923363   -7.0425278  0.077096804    7872.9801    5691.1933    3884.4947    7268.1571    1297.1578    599.50171   -2968.0492 
   90000    229.44397   -165.87217    -136.0066   -165.87217            0     6372.223    17.979593     22.75015    19.317876   0.09436512   -7.2172368  0.057526776     7901.754    9013.7037    4247.4241    5855.5411   -1194.0449    275.00688    320.72549 
   90500    250.62354   -166.47401   -133.85161   -166.47401            0    5143.7937    17.963617    22.587141     19.36726  -0.13521936   -7.2276664   0.04180579     7858.203    2700.5735    6266.8757    6463.9319    1902.2319    479.41387    1555.1223 
   91000    243.74077   -165.94374   -134.21724   -165.94374            0    4859.9358    18.096304     22.55691    19.433904  -0.20193012   -7.1564934  0.057927639    7932.8551    6663.8378    5820.8468    2095.1227    946.86269    2216.8753   -2068.1207 
   91500    239.57513   -168.11111   -136.92682   -168.11111            0    5971.4815    18.115134    22.443097     19.27482 -0.054144037    -6.914773  0.061858573    7836.3652    2872.1502    8394.7901    6647.5043    1648.6752   -1542.4105   -3174.6379 
   92000    245.11498   -166.93809   -135.03271   -166.93809            0    7249.6039    18.125554    22.580073    19.245298   0.14317482   -6.7048862  0.083681217     7876.645     9591.315    4728.9015     7428.595    -2008.641    544.46255   -2844.6732 
   92500    245.79745   -166.81127   -134.81705   -166.81127            0    5231.2661    18.030933    22.751672      19.4168   0.21596463   -6.5635619  0.057094729    7965.4286     7415.956    7082.3035    1195.5387   -792.36188    -839.0841   -186.11499 
   93000    243.60328    -165.3117   -133.60309    -165.3117            0    11103.365     17.81233    22.562986    19.331741  0.099505429   -6.5841323 -0.021898062     7769.414    10963.717    11279.678    11066.702    1268.8312    666.57359   -1224.7295 
   93500    241.62095   -167.20897   -135.75839   -167.20897            0    3914.6082    18.154076    22.718515    19.422223 -0.056507235   -6.8622493 -0.063775444    8010.3781    4089.7188    4074.7715    3579.3344   -616.86079   -1936.8035    2598.2282 
   94000    241.12903    -166.3073   -134.92075    -166.3073            0    6565.1363    18.112101    22.439391     19.24238  -0.12251311   -6.9719295 -0.043613544     7820.575    3400.6316    7741.6701    8553.1071    1239.8575    1495.0483    705.04778 
   94500    241.42529   -166.32689   -134.90178   -166.32689            0    2120.8147    18.126227    22.463123    19.361612  -0.13048965   -7.0128524  0.014961974    7883.4999    2021.0831    1783.9389    2557.4221   -294.87394    2039.8337    794.24941 
   95000    240.37535   -167.53179   -136.24334   -167.53179            0     6701.995     18.12417    22.510931    19.343871 -0.079579411   -7.0264454   0.12270999     7892.144    7362.9508    7682.8471    5060.1871    1954.4627   -1849.9755    1314.9799 
   95500     243.2648   -165.68638   -134.02182   -165.68638            0    7318.0162    18.105039    22.603842    19.242901   0.08632453   -6.9739425   0.17247957    7875.0311    9061.4431    6646.5967    6246.0088   -859.15404    1283.2553   -1419.1332 
   96000     246.0944   -164.65818   -132.62531   -164.65818            0    4514.4282    18.108514    22.736515    19.232852   0.13269328   -6.8698171  0.057097251    7918.6365    4076.6303    4374.8704    5091.7838    2596.5276   -2005.9523    1532.6466 
   96500    247.88353   -165.16706   -132.90131   -165.16706            0    7086.1143    17.928607    22.655581    19.326365  0.062544333   -6.7019736  -0.22720944    7850.0409    10689.776    4726.7483    5841.8188   -2512.7538   -1718.2941   -4170.7328 
   97000    245.93732   -165.79028   -133.77785   -165.79028            0    5916.8445    17.957814    22.583487    19.583735   0.12304088   -6.6153509  -0.41095471    7942.1849    4141.0452     7493.445    6116.0434   -485.62834    2326.4807    6405.7911 
   97500    252.96797   -166.35121   -133.42365   -166.35121            0    7558.2167    18.096694    22.306996     19.44777   0.26901394   -6.6281617  -0.14473969    7850.7315    7379.9577    7876.3238    7418.3686     895.2125   -1390.6748    1143.6021 
   98000    235.93813   -166.28957   -135.57869   -166.28957            0    6223.1342    18.304551    22.326468    19.342779   0.28448637   -6.7913117   0.20100839    7904.9294    3121.3921    9274.8048    6273.2058   -1934.0631    -856.9771    414.50292 
   98500    249.42772   -166.98925    -134.5225   -166.98925            0    6776.7896    18.145934    22.482558    19.282407  0.042180294   -6.9169551   0.23718311    7866.5861    7306.6187    7292.9682    5730.7819   -3888.9123   -1964.7169    2639.9382 
   99000    244.84398    -166.1834   -134.31329    -166.1834            0    6315.2862    17.975505    22.712292    19.328549  -0.23565051   -6.9690446    0.1197202    7891.1683    4237.8784    7743.9497    6964.0304    2473.6598    2007.7597    4531.3384 
   99500    256.06304    -165.5825   -132.25206    -165.5825            0     4908.304    17.974089    22.768894    19.305247  -0.23204125   -6.9898774 -0.026000066    7900.6746    313.88155    7174.7065    7236.3241    574.97072    28.875601   -486.77719 
  100000     248.3083   -166.86193   -134.54089   -166.86193            0    5035.6011    18.000936    22.792121    19.248638 -0.00065801895   -6.9279428  0.024320646    7897.3221    9434.6607     2841.995    2830.1476   -822.84808    -1202.215    1105.2867 
  100500    240.62746   -164.85287    -133.5316   -164.85287            0    3466.7001    18.172694    22.643228    19.215888    0.2625432   -6.8676663    0.0637815    7907.1162    2564.8026    4448.0309    3387.2669   -719.54721    2992.5896   -1411.5776 
  101000    237.88735   -165.74714   -134.78254   -165.74714            0    5592.1981    18.137427    22.413606    19.296963   0.29282683   -6.7805529 -0.021709639    7844.7006     2304.949    7217.7248    7253.9204    1475.3752   -1077.6313    2118.4519 
  101500    232.46799   -164.86679   -134.60761   -164.86679            0    5223.3459    18.138308     22.52807     19.55507  0.028441335   -6.7490607  -0.18892608    7990.6139    5673.6515    6139.2948    3857.0913   -229.08706    190.42068    3465.3534 
  102000     247.8872   -166.25932   -133.99309   -166.25932            0    7993.3979    17.918948    22.404795    19.423889   -0.2429823   -6.7148163  -0.16504885    7798.1156    7202.3057    9689.8107    7088.0773    4919.8239    750.11109    4335.5413 
  102500      245.119   -166.99908   -135.09317   -166.99908            0    4449.9899     18.10061    22.700455     19.42418  -0.29028144   -6.8232194  0.074310162    7981.2417     8747.246    1988.8924    2613.8313    237.74222   -1601.7813   -1305.6496 
  103000    251.12402   -166.01632   -133.32877   -166.01632            0    4357.5931     18.07422    22.715029      19.1485  -0.14725071   -6.9115477   0.25612937    7861.5397    4108.9576    4142.4632    4821.3585    59.103508    2878.1524    3417.5967 
  103500    238.94726   -166.46047   -135.35791   -166.46047            0    5358.6052    18.024605    22.801643     19.19854 -0.014418484   -6.9389594   0.20142339    7890.4198    8509.7175    3669.3804    3896.7177   -271.15072   -779.13568   -850.66834 
  104000    249.49676   -166.16584    -133.6901   -166.16584            0    4316.2424    18.003757    22.760117    19.335079  0.020374648   -6.9842625  0.040344859    7922.8894    4836.9669    2817.4723     5294.288    1050.4352    1073.4037   -943.87393 
  104500    231.78692   -165.20225   -135.03171   -165.20225            0    6559.2481      17.9735    22.527873    19.404169  0.046159583   -6.9018759 -0.059229329    7856.8399    7422.0174    7153.9649    5101.7621    1957.0655    280.70427    4099.3334 
  105000     245.9986   -165.05653   -133.03613   -165.05653            0    5313.7593    18.147615    22.473221    19.388843   0.03661507    -6.883655 -0.096210759    7907.4559     4646.499    5651.8714    5642.9075   -361.01159    619.68497    -2115.431 
  105500    256.77731   -165.87425   -132.45084   -165.87425            0    6599.5415    18.330964    22.478112    19.315719 0.0040265324   -6.7787716  0.040827992    7958.9542    4999.9159    7446.3837    7352.3249   -860.56821   -52.421548   -3157.4938 
  106000     241.8651   -165.24167   -133.75931   -165.24167            0    8966.5682    18.153088    22.370507    19.201991  -0.05179101   -6.6560398   0.19491398    7797.8095    7049.3064     11675.94    8174.4582    840.03893    175.13415     2119.142 
  106500    239.81439   -165.18091   -133.96548   -165.18091            0    5076.3059    18.042849    22.730899    19.485358  -0.28966286   -6.6510387   0.17541593    7991.5333    6233.3592    4706.8232    4288.7353   -1417.9781    931.41414   -4623.9875 
  107000    246.14977   -166.15724   -134.11717   -166.15724            0    10420.212    17.808245    22.712593    19.375707  -0.32889862    -6.669127  0.075403644    7836.9199     10753.62    12299.652    8207.3655   -643.60658   -2224.3181   -2405.9992 
  107500    248.58559   -166.17881   -133.82167   -166.17881            0    6143.9735    18.058007    22.809224    19.271261 -0.089150075   -6.8924796  0.018069061    7937.6231    5885.5195    4168.9363    8377.4646    163.98164   -1109.8728   -1299.3028 
  108000    230.45177   -163.43187   -133.43512   -163.43187            0    6318.5891    18.177653    22.735272     19.14209   0.19114399   -7.0830861 -0.014450916    7910.9262    3832.6282    5566.0545    9557.0846   -150.07691   -1848.2919   -1962.9855 
  108500    250.01239   -165.12523   -132.58238   -165.12523            0    6097.7874    18.117349    22.621245    19.216186   0.22877267    -7.084865  -0.11532912    7875.5041    8308.9735    3967.8788    6016.5098     36.06605   -753.22131   -909.46634 
  109000    239.39639   -164.87754   -133.71651   -164.87754            0    7117.5462    18.017466    22.563007    19.488176   0.12543646   -6.9360358  -0.13024315    7922.4934    9993.9308    6646.1662    4712.5417    549.70821   -1625.6178   -1153.8732 
  109500    250.15533   -166.39675   -133.83529   -166.39675            0    8146.0943    17.951159    22.455171    19.551661  -0.10728134   -6.7761339  0.031242936    7881.2033    11030.437    7041.2599    6366.5857    1090.8879   -79.308118    368.05126 
  110000    238.18002   -165.20401   -134.20131   -165.20401            0    4585.8583    18.172993    22.432902    19.435246  -0.40878252   -6.7114236   0.31356403    7923.2245    1589.1967    8434.3149    3734.0633    1779.8755    748.52897   -918.13161 
  110500    239.42617   -166.11022   -134.94532   -166.11022            0    5401.2916    18.279299    22.365768    19.189911  -0.56379158   -6.6683156   0.43393176    7845.4222   -932.03962    6150.7509    10985.163     3700.652   -1641.2799     500.9594 
  111000    243.66367    -165.5472   -133.83072    -165.5472            0    6199.6729    18.219673    22.562172    19.276608  -0.38543093   -6.6822243    0.2267068    7924.1393       4370.3    6496.6683    7732.0505      1960.29   -668.96578    3691.1883 
  111500    245.39429   -166.10843   -134.16669   -166.10843            0    7206.9461    17.947108    22.640584    19.420994 -0.044256384   -6.7729989 -0.092623546    7891.3911    9163.6026    6359.5332    6097.7025   -1940.4699    239.64449   -405.61126 
  112000    238.36395   -164.83511   -133.80848   -164.83511            0    6751.1763    17.877733    22.673626    19.383219   0.22940471   -6.8955275  -0.19923086    7857.0466    4146.1462    6219.6434    9887.7393    -708.0906    1736.3247    1580.2228 
  112500    241.95834   -166.87196   -135.37747   -166.87196            0    6211.5824    18.003046    22.704704    19.296309   0.29885305   -6.9735903  -0.12268731    7887.4404    4270.7338    6920.5257    7443.4876   -1269.5951    149.70218     79.33416 
  113000    232.24712   -165.05666   -134.82622   -165.05666            0    4760.6038    18.153689    22.583042    19.207992   0.14164153   -7.0153832  0.022519937    7874.6144    2607.5319    6047.6648    5626.6147    120.58421    52.448056   -1371.5353 
  113500    246.88798   -166.48599   -134.34983   -166.48599            0    6450.2876    18.140687    22.551717    19.290169 -0.081669732   -7.0197699   0.10634874    7891.6784     7117.825    6787.6745    5445.3633    1278.5065    704.47326    798.39126 
  114000    251.20302     -167.063   -134.36517     -167.063            0    7333.6753    17.953473    22.538899    19.457172  -0.32551305   -6.9212701   0.15890606    7873.3741    9613.8429    7703.8241     4683.359      26.9966    2021.5957   -143.12097 
  114500    256.03472   -165.96273   -132.63598   -165.96273            0    4727.0112    17.872217    22.704961    19.537501  -0.32335095   -6.7841859   0.19788595    7928.0833    6141.5549    5289.0774    2750.4013    263.33628   -1136.5257   -1343.6372 
  115000    249.76698   -165.39637   -132.88546   -165.39637            0    9285.2885    17.945183    22.796278    19.270823 -0.047034126   -6.6080614   0.12754462    7883.3733    12167.544    6522.7748     9165.547    1184.4899   -2028.6732     -249.543 
  115500    240.26357   -164.19044   -132.91654   -164.19044            0    6385.8264     18.14336    22.836605    19.007218   0.17597346   -6.5686858 -0.053744589     7875.313    5648.8476    5913.1836    7595.4479    551.13201   -522.73643   -2472.5499 
  116000    244.60457   -166.93226   -135.09332   -166.93226            0    4898.7312    18.158227     22.84193    19.191089    0.2523583   -6.6460928  -0.12580023    7959.8678    5359.2595    977.58149    8359.3525   -2346.9159   -1898.0141   -2164.9146 
  116500    253.98888   -165.63536   -132.57491   -165.63536            0    6432.6885    17.903474    22.506335    19.400938   0.29986492   -6.7070816  -0.10084079    7817.4445    6056.5559     7019.909    6221.6005    1579.0414    -1023.621    1279.5446 
  117000    234.19096   -166.10019   -135.61673   -166.10019            0    6228.2682    17.963343    22.535659    19.599523   0.17098172   -6.9052332 -0.0090977338     7934.196    7389.7667    5337.6316    5957.4064   -1400.3753    417.68049    683.03279 
  117500    237.39351   -165.91399   -135.01367   -165.91399            0    6615.0995    18.046142    22.485699     19.41958 -0.069604068   -7.0732955      0.13032    7880.0796    7286.8214    5834.9271      6723.55    1733.1645   -67.566865   -2638.4489 
  118000    242.54824    -167.0458   -135.47452    -167.0458            0    5509.4395    18.136989    22.580502    19.206103  -0.19921079   -7.1607874    0.1552474    7865.7118    4864.5641    5426.6879    6237.0664    2504.8728   -694.11771    471.11337 
  118500    247.51647   -165.81671   -133.59874   -165.81671            0    7370.3921    18.061287    22.753125    19.228736  -0.18570366   -7.1093575     0.104514    7902.0629    7800.6801    5902.8269    8407.6693    798.55167      674.101   -1191.5246 
  119000    240.99563    -166.4887   -135.11951    -166.4887            0    6557.6063    17.927924    22.801202    19.326674 -0.072099832   -6.9499642  0.062081899    7900.3235    7353.3362    7897.4533    4422.0295     197.4576   -160.30789   -2049.9362 
  119500    244.58157   -164.91107   -133.07512   -164.91107            0    7368.9598    17.918918    22.747776    19.328353   0.11332726    -6.778498 -0.033733601    7878.5369    6649.6372    7538.6293    7918.6129    915.40131   -981.94554    422.02702 
  120000    243.66302   -165.68389    -133.9675   -165.68389            0    7988.0751    18.096387    22.710697     19.33623   0.21222638   -6.6690005  -0.18280677    7946.8341    7685.1622    6341.0454    9938.0178   -1121.0043   -2123.2697    196.37227 
  120500      243.155   -165.50232   -133.85206   -165.50232            0     7626.006    18.111124    22.343581    19.293291   0.18919704    -6.614224  -0.18976028    7807.3652    5655.3037    9270.0689    7952.6455    2878.0406    149.96401    1046.6216 
  121000    248.54132   -166.71935   -134.36797   -166.71935            0    3629.3622    18.230022    22.373802    19.526837  0.023407669   -6.7210148 -0.056379176    7964.5065    2461.4427    2678.3631    5748.2808   -552.77222    253.17625    930.93362 
  121500    243.72982   -165.44434   -133.71925   -165.44434            0    6248.6158    18.077942    22.260514    19.507946  -0.24178799   -6.9124855   0.10017313    7850.4713     7481.906    7392.7484    3871.1932   -11.125945   -67.403485    2590.0593 
  122000    248.58414   -164.60618   -132.24924   -164.60618            0    4914.0269    18.048558    22.566082    19.401786  -0.35110371   -7.1372298   0.23696299    7902.0613    5008.9587    5596.8524    4136.2697   -267.88327   -314.03166    1671.2709 
  122500    249.60243   -163.62117   -131.13168   -163.62117            0     1236.756    18.043537    22.813457    19.269833   -0.2607313   -7.2573728   0.21943925    7932.1461    3936.8769   -2318.7674    2092.1583    685.68163   -1050.3592    2676.5377 
  123000    243.52457   -165.47696   -133.77859   -165.47696            0    6913.5971    17.969968    22.729724    19.186013 -0.087920746   -7.1910498  0.066484407    7836.5732    8303.1318    9490.5249    2947.1345   -851.22162   -1750.1356   -2793.4632 
  123500    242.22484   -165.43826   -133.90907   -165.43826            0    7392.4052    18.065945    22.792965    19.285466   0.12995279   -7.0492844 -0.054093187    7941.3005    5514.6634    6736.6814    9925.8707   -3793.3581   -426.85348    349.63152 
  124000    242.47605   -165.17937   -133.61748   -165.17937            0    9153.8661    18.060372    22.532981    19.285992   0.22455375   -6.8171708  -0.12332181    7848.5118    6759.0052    12464.401    8238.1922    1102.9671   -1954.2168    1252.7626 
  124500    251.49023   -165.80797   -133.07275   -165.80797            0    8245.8413    18.084118    22.504866    19.363274   0.16422603   -6.7084334  -0.09129959    7880.4779    8760.2249    7909.6209     8067.678   -1514.0738     531.2393    3886.3029 
  125000    252.73685    -164.9256   -132.02811    -164.9256            0    5608.2732    18.087266    22.569855    19.492721 -0.088591591   -6.7356257   0.04517183    7957.4548    3637.2376    5340.8934    7846.6887    2354.5344   -583.60271   -2582.7213 
  125500    254.54439   -165.70233   -132.56957   -165.70233            0    4742.7268    17.931611    22.572693    19.358848  -0.40210209   -6.7865007   0.17572699    7835.7793    6940.5535    5587.0333    1700.5936   -606.48892   -1213.8005   -998.99252 
  126000    248.67205   -165.93836   -133.56998   -165.93836            0    5593.1334    18.044831    22.800005    19.348878  -0.54472227   -7.0080224   0.30564591    7960.5589    5438.4318    5375.9292    5965.0393    1189.5438    627.96584    303.42672 
  126500    247.41936   -167.56762   -135.36229   -167.56762            0     10759.04    18.017021     22.68208    19.189768  -0.36134936   -7.2190903   0.30587313    7842.1579    11944.316    11129.136     9203.667    871.89325    89.540105    -798.3891 
  127000    236.54787   -164.84994    -134.0597   -164.84994            0    3620.8949    18.168002    22.656916    19.231942   0.08044535    -7.428681  0.047438977    7916.4616    3054.4494    3966.3676    3841.8676   -2372.6096    533.49442   -87.619408 
  127500     245.4607   -165.47822   -133.52783   -165.47822            0    5928.5358    18.175378    22.529446    19.332824   0.31494355   -7.4525684  -0.23914868    7916.4281    4553.5305    7463.7411    5768.3358   -651.68308    1119.1022   -894.29877 
  128000    236.32431   -164.84313   -134.08198   -164.84313            0    6747.8762    18.100402    22.435189    19.358206   0.25360976   -7.2483797  -0.33679651    7861.0951    5520.3128    6486.5301    8236.7855   -363.34753    821.93648    1819.5423 
  128500    239.69375   -164.93673     -133.737   -164.93673            0    5145.8122    18.140756    22.554201    19.404355  0.007577424   -6.9564784  -0.11482235     7939.297    6348.5339    5996.0568    3092.8457    -568.7755    512.12226    2047.4673 
  129000    253.88239   -165.56776   -132.52117   -165.56776            0     7214.788    18.035445     22.56338    19.363424  -0.17589845   -6.6761013   0.20002765    7879.7633    10944.032    4228.0816    6472.2508   -744.47137   -2245.0303   -1596.6533 
  129500    260.02312   -166.68863   -132.84273   -166.68863            0    10036.098    18.049951    22.605775    19.297045  -0.20133869   -6.6444646   0.28386182    7873.8338    7842.3802    11157.489    11108.426     1672.427    3205.0344   -146.53074 
  130000    239.78062   -166.30941   -135.09838   -166.30941            0    4631.1448    18.085479    22.737328     19.26356  -0.18329248   -6.7648672   0.10191876    7921.4739    4804.8528    3056.2455     6032.336    -952.8235   -256.94501   -1072.5997 
  130500    250.22045   -165.88264    -133.3127   -165.88264            0    3895.3489    18.047218    22.626191    19.195571 -0.077668679   -6.9132452 -0.061734791    7838.3154    5427.3455    3887.4329    2371.2683    264.34743   -798.79186    1757.9005 
  131000    238.94961   -166.55684   -135.45397   -166.55684            0    6586.3281    18.121258    22.658643    19.354013  0.030974497   -7.1108759   -0.1640255    7946.8184    5412.3525    7225.6525    7120.9792    654.67131     624.3983    770.40017 
  131500    242.18011   -167.04356   -135.52019   -167.04356            0    5306.6418      18.0478    22.533313       19.347   0.16572098   -7.1392431   -0.1000927    7867.9748    6978.5184    5674.8713    3266.5356    2582.4571    2741.8393    2236.0533 
  132000    243.73039   -165.91562   -134.19046   -165.91562            0    8020.3793     18.04695    22.515509    19.295516   0.13277445   -7.1022228  0.045981065    7840.4677    10059.389    7564.4737    6437.2754   -789.59139    505.61021   -113.27187 
  132500    249.47794   -165.14376   -132.67048   -165.14376            0    6557.5912    18.230131     22.63612    19.320384  -0.12533786   -7.0341169   0.13461691    7972.7389    5620.2148    5810.1383    8242.4205   -2149.3729    18.000161   -1551.4088 
  133000    252.03591   -164.56532   -131.75907   -164.56532            0    6164.2793    18.110542    22.481593    19.194226    -0.353748   -6.7774914   0.11634317    7815.0025    7338.0479    4872.6089    6282.1812    1973.8388    3241.9012    409.69673 
  133500    258.67071   -166.42042   -132.75055   -166.42042            0    5630.7987    18.146332    22.607477    19.458653  -0.29064152   -6.6520501  0.068664705     7982.772     5193.903    5062.4509    6636.0424    1412.5831    714.76875   -2970.2578 
  134000    236.54372    -166.7778    -135.9881    -166.7778            0    9302.3629    17.877511    22.456072     19.43939  0.044518097   -6.5498013  0.072320258    7804.1121     8659.705    10388.939    8858.4443   -619.92964   -144.74859   -234.44211 
  134500    238.69426    -165.7858   -134.71617    -165.7858            0    6747.7367    18.010399    22.598151    19.460247   0.30307526   -6.7177437  0.016286388    7920.3539    4761.9137    6591.8165    8889.4797   -180.06576   -106.61899   -1067.1726 
  135000    242.11395   -166.97136   -135.45661   -166.97136            0    6688.1065    18.097169    22.729359    19.235822   0.29178158   -6.9344454 -0.083964645    7912.4062    6899.6893    7527.9299    5636.7002    3040.1614    721.66099    178.53788 
  135500     242.6112    -165.6998   -134.12032    -165.6998            0    7078.1779    18.116351    22.695633    19.157671   0.10874303   -7.0709779  -0.10232217    7876.9073    6261.9354    5620.7593     9351.839   -303.04269   -1961.6506    -488.0607 
  136000    248.67586   -165.85876   -133.48987   -165.85876            0    8214.5326    18.048861    22.676337     19.24985 -0.032254269   -7.1583837 -0.031460191    7878.6181    4958.7946    9027.5581    10657.245    2726.2378   -343.10119    2106.7358 
  136500    254.18902   -166.69236   -133.60585   -166.69236            0    7127.2448     18.04275    22.592139    19.384459  -0.15066612   -7.1694848   0.13850637    7901.5768     6034.279    9174.9073    6172.5481   -433.81141   -133.43794   -629.13716 
  137000    248.98453    -166.2461   -133.83704    -166.2461            0    5355.1436    18.002638    22.566417    19.379713  -0.20401714   -7.0725722   0.27512993    7873.1059    5826.3813    2669.9576    7569.0919    1295.8185   -173.60789   -502.88232 
  137500    240.55518   -163.83112   -132.51926   -163.83112            0    4228.1037    18.145809    22.606215    19.324273  -0.25383233     -6.95086   0.24165156    7926.9727    4022.2361    5738.4459     2923.629    1895.2473    586.28963    1449.7872 
  138000    246.26328   -165.35678   -133.30193   -165.35678            0    8664.6229    18.084698     22.58918    19.225045  -0.18549702    -6.668648 -0.030777163    7853.7866    9138.6769    9171.1835    7684.0085   -2597.0894     687.0107    -485.9928 
  138500    245.50548   -165.91806   -133.96185   -165.91806            0    8389.6523    18.032723    22.666975    19.341814  0.038368615   -6.4395776  -0.29659883    7905.9137    5723.3574    9742.5675    9703.0321     951.1849   -298.39071    3666.4645 
  139000    238.97696   -166.81991   -135.71348   -166.81991            0    2069.8332    18.005316    22.587895    19.380791   0.23316696   -6.3967128   -0.2863839    7882.2103    309.19969   -577.90241    6478.2022   -1454.3381   -2183.1778   -576.73376 
  139500    248.20236   -166.86519   -134.55794   -166.86519            0    8614.3285     17.99009    22.515701    19.364748   0.32940869   -6.5597517 -0.020553156    7843.8749    8967.6472    8766.1264    8109.2118   -2512.7025     2338.053    253.57541 
  140000    248.66306   -165.76814   -133.40092   -165.76814            0    4594.6219    18.146795    22.663697    19.425731   0.16223223   -6.9120772   0.18472145    7989.2875    6851.3464    4670.4496    2262.0696   -2452.1936    1799.0785    689.85476 
  140500    242.18169   -163.36466   -131.84109   -163.36466            0     11438.93    18.059164    22.506183    19.245903  -0.21385931   -7.1821672   0.15001927    7822.3599    9523.4471    10931.939    13861.405    467.17917    426.10647   -951.94372 
  141000    244.36851   -166.06164   -134.25342   -166.06164            0    9477.5728    18.198532    22.638541    19.295028  -0.29794957   -7.3394006  0.004455784    7949.3239     8203.191    11034.114    9195.4135   -3681.9044    715.72783   -3029.6308 
  141500    238.20386   -165.41943   -134.41364   -165.41943            0    7722.3944    18.053824     22.68483    19.222606  -0.16647404   -7.1421897 -0.027220426    7872.5783    5313.0269    7264.6216    10589.535    992.70122     1069.487   -2178.3244 
  142000    241.19996   -166.20455   -134.80877   -166.20455            0    4711.4676    18.043036    22.642277    19.256286  0.047854035   -6.9616519  0.090258858    7866.8749    7697.7958    5191.5945    1245.0124    1941.8548   -2514.8803    1251.3984 
  142500    248.59202   -165.25041   -132.89243   -165.25041            0     5473.194    18.116214    22.756317     19.34698   0.29853995   -6.7878996  0.074226152    7975.9531    4160.6328    6351.4475    5907.5017   -2945.8926   -621.03913   -1005.1572 
  143000    251.32422   -165.23886   -132.52525   -165.23886            0    7768.5468    18.062295    22.502474    19.337974   0.30501676   -6.6455056 -0.078693601    7859.8487    5670.7477    10861.085    6773.8073   -125.79626   -956.99765    1541.5756 
  143500    252.97683    -166.5606   -133.63188    -166.5606            0    5159.6539    18.083456    22.523531    19.402842  0.042616214   -6.6309775  -0.11410142    7902.8415    6152.8585    6140.6162    3185.4869    -1794.825   -2763.7175   -2607.2185 
  144000    242.01552   -165.02594     -133.524   -165.02594            0    8304.9226    18.129131    22.608031    19.404061    -0.233333   -6.7845728 -0.023799317    7953.0251    10678.828    6870.6705    7365.2698    1847.9697   -1122.9023    2766.0717 
  144500    245.60984   -165.30287   -133.33308   -165.30287            0    8070.1897    18.116452    22.521595    19.247284  -0.37465862   -7.0007558   0.19787132    7853.1113    3925.6772    10328.733    9956.1594    626.90304    1965.6581   -1574.1079 
  145000    248.56974   -165.06856   -132.71349   -165.06856            0    4376.5429    18.154251    22.701502    19.319809  -0.21137417   -7.2601152    0.4015274    7962.2492    4591.6573    2158.1994    6379.7719   -2202.9386    266.06218   -1784.0429 
  145500    248.60946   -164.75007   -132.38982   -164.75007            0     7206.058    17.975205    22.616096    19.329995  0.046763054   -7.3586657   0.34446382    7858.2028     5386.891    9116.6192    7114.6636   -1098.1957     841.7978   -571.23649 
  146000    238.55914   -165.63709   -134.58505   -165.63709            0      4018.39     17.95587    22.737541    19.368824   0.16569231   -7.3123392 -0.074143221    7907.7551     3027.893    4451.0749    4576.2022    -664.2947    3183.6733   -337.38912 
  146500    247.74147   -167.10157   -134.85431   -167.10157            0    5604.8936    18.075772    22.743236    19.231176   0.17335227   -7.1300875  -0.38946555    7905.9665     7040.882    6507.0934    3266.7055   -1912.5954    4117.7234    784.55408 
[...]
  365000    250.06615   -166.31181   -133.76196   -166.31181            0    4338.7583    18.065437    22.444131    19.396627  -0.06808896    -6.990673 -0.047965094    7864.6156     7177.845    6216.4468   -378.01708    254.28176   -2583.5778   -277.14588 
  365500    236.28507   -165.25996   -134.50392   -165.25996            0    3592.0828    18.214789    22.443265    19.271736  -0.12612089   -6.9086735 0.0082026619    7878.2735    2388.6641    4332.0982    4055.4862    1950.7484   -656.83267    1097.2417 
  366000    246.55808   -164.64999   -132.55676   -164.64999            0    2872.9924    18.191194    22.525421     19.21706 -0.074409603   -6.8281866  0.070529369     7874.465   -3351.5751    5821.6196    6148.9327    193.65883    1263.7713    2073.3247 
  366500    245.26451   -165.88852   -133.96368   -165.88852            0    4743.1585    18.000665     22.66277    19.282903  0.016440895   -6.7467646  0.088061164    7866.3627    5236.9145    5704.7651     3287.796    212.94988     878.9206   -2877.7276 
  367000    239.49197   -165.34025   -134.16679   -165.34025            0    8119.3369    17.919382    22.771899    19.382991  0.038314211   -6.7385851  0.059668424    7909.3913     9080.959    7157.7874    8119.2644   -535.50913   -1524.5322    2168.1996 
  367500    247.21018   -165.51761   -133.33951   -165.51761            0    8280.0073    17.951015    22.632003    19.266671 0.0017160808   -6.8096607 -0.077094677    7827.4209    5044.9564    8720.4808    11074.585    4414.6144    843.61482     3399.453 
  368000    243.95345   -165.28439    -133.5302   -165.28439            0    7610.3411    18.252299    22.630372    19.156263  -0.11124804   -7.0010779  -0.14860608    7912.6155    3500.4203    8533.0648    10797.538   -1738.9049   -439.28382   -1308.0866 
  368500    256.02065   -167.28338   -133.95846   -167.28338            0    7551.3494    18.224327    22.438202    19.165784   -0.1477731   -7.1138068 -0.042263292    7837.2941      7612.82    4498.4372    10542.791    2286.6448   -688.63852    1148.0001 
  369000    241.21088   -165.82723   -134.43002   -165.82723            0    6457.2897    18.010407    22.454245    19.494711 -0.093338358   -7.1559289   0.19647658    7883.8581    6034.8896    8101.4534     5235.526   -788.14908    892.48032   -458.62954 
  369500    248.52736   -165.84106    -133.4915   -165.84106            0    4994.8761    17.909167    22.562145    19.575712 -0.0052183147   -7.0953151   0.23880129     7909.943      4321.95    4351.4442     6311.234   -2052.5918   -832.76193    1615.2557 
  370000    246.16185   -164.37764   -132.33599   -164.37764            0    10871.043    18.032641    22.546662    19.267942  0.042223915   -6.9839364  0.095468775    7833.8802    10706.667    9998.9725     11907.49    41.178756   -744.10794   -2214.4457 
  370500    245.49749   -166.01561   -134.06044   -166.01561            0    3411.0103    18.235373    22.724972    19.123954 -0.040152732   -6.8652221 -0.091889959    7924.9347    3579.0861    1212.0653    5441.8795    525.22822    -3304.478    548.13674 
  371000    236.93836   -165.18739   -134.34632   -165.18739            0    5423.2411    18.051747     22.63539    19.163155 -0.062309795   -6.7119605  -0.12002682    7830.2247    5597.7333    6714.0442    3957.9459    629.88568   -662.01075   -1860.6855 
  371500    244.41145   -167.00001    -135.1862   -167.00001            0     2369.648    17.933998    22.696469     19.42595 -0.076594568   -6.6974452 -0.0053477469    7907.1081    6409.3797    3680.2523   -2980.6879   -1421.4354   -143.88684   -693.43056 
  372000    243.60742   -165.74236   -134.03321   -165.74236            0    5324.3981    17.889325    22.590646    19.452643 -0.074473866   -6.7627148   0.19294982    7861.4237    6095.7662    3246.0949    6631.3332    2285.3038   -2613.4409    674.98266 
  372500    241.11612   -166.11565   -134.73078   -166.11565            0    5626.9417    18.181698    22.418503    19.315392 -0.0072150048   -7.0384571   0.26403058    7873.0781    6012.5671    3703.9893    7164.2686   -3681.2593    333.87893   -1049.8257 
  373000    232.46369   -167.92327   -137.66465   -167.92327            0    3937.1493    18.327585    22.370999    19.235898 -0.032870141   -7.2114988   0.11236071    7886.8414    2985.8689    3958.2868    4867.2922    -1167.216   -1733.3228   -1637.7683 
  373500    245.52192   -167.65931   -135.70095   -167.65931            0     10165.42    18.075735    22.409323    19.299933 -0.086528848   -7.1882239 -0.089428347     7817.727    12834.849    7907.9188    9753.4933   -1924.6656    754.78168    1371.4907 
  374000    241.86622   -164.66973   -133.18722   -164.66973            0    6724.6373    17.939788    22.719118    19.503592 -0.010845342    -7.071894  -0.10103104    7949.1993    10905.436    7027.3681    2241.1075    1689.9789     434.1694     1121.242 
  374500    249.67364   -164.27375   -131.77499   -164.27375            0    8417.8355    17.802585    22.897156    19.271073  0.085890841   -6.8242062  0.072565572    7855.4401    9471.7197    7777.9778    8003.8091   -756.74351   -252.06636    474.11467 
  375000    247.89688    -164.1054   -131.83791    -164.1054            0    8048.7636    18.038806    22.959818    19.125217  0.052688298   -6.7261268   0.21603332    7921.0469    7230.4461    7172.6746    9743.1702   -838.28581   -1106.4666   -4811.8581 
  375500    248.98489   -165.86249   -133.45338   -165.86249            0      5044.53    18.104861     22.73331    19.114659 -0.034788106   -6.7042793   0.17389552    7867.2766    5088.0508    5606.0593      4439.48    1081.2787   -86.698016    954.05583 
  376000    238.58666   -164.49658   -133.44095   -164.49658            0    5116.8239    18.081592    22.564703    19.305945   -0.1683129   -6.6926813  0.037926318    7876.9369    7072.0077    5238.7587    3039.7053   -1871.4825   -449.59868    -1593.883 
  376500    256.00498   -165.78851   -132.46563   -165.78851            0     4691.679    17.993789    22.526063    19.491813  -0.14412252   -6.7678599 -0.079239043    7900.6014     5360.596    5483.5571     3230.884   -745.69804    800.92615   -820.72503 
  377000    241.60566   -166.86946   -135.42087   -166.86946            0    6269.6024    18.018628    22.517135    19.462491  0.011347071   -6.8763334 -0.081150709    7896.4752    4134.8407    6896.6035     7777.363   -2531.3177     729.9496    576.32849 
  377500    244.47201   -166.57238   -134.75069   -166.57238            0    10387.088    18.132712    22.481445    19.274704    0.2059041   -7.0552037  0.037015564    7857.3248    12009.669    10918.658    8232.9359   -263.29911   -2611.3299   -771.70385 
  378000    246.74778   -166.20075   -134.08283   -166.20075            0     6771.853    18.191831    22.688348    19.189925   0.16364397   -7.2046312  0.083286656    7920.4997    6400.2361    4330.9121    9584.4108   -3519.3927    2141.2823    1324.0494 
  378500     240.4862   -166.82182   -135.51894   -166.82182            0    6316.3946    17.998924    22.778156    19.173486   -0.1187279   -7.1932818 -0.034332364      7860.79    9410.5283    6152.4703    3386.1854    1993.6306   -587.14406    2563.9099 
  379000    238.28588   -164.92705   -133.91057   -164.92705            0    5521.3268    17.781072    22.840031    19.393108  -0.33175943   -7.0443608 -0.078729257     7875.933    6142.7932    5154.0672      5267.12    607.50385    617.31885   -1833.5136 
  379500    240.79469   -165.87191   -134.52888   -165.87191            0    6704.4217    17.845726    22.864639    19.412423  -0.34106892   -6.7924073  0.097953262    7920.9689    10623.303    4643.1461    4846.8165    218.25554   -923.82021    1276.9155 
  380000    240.45254   -165.99638   -134.69788   -165.99638            0    7706.8431    18.019563    22.653291     19.15223 -0.052026175   -6.5543566    0.2826705    7817.9866    9913.1654    6093.4417    7113.9223   -310.95659   -3076.7014   -2743.5754 
  380500    239.78566   -166.99843   -135.78673   -166.99843            0    9070.1888    18.187624    22.570976     19.24588   0.11219359   -6.5438104   0.18789364    7900.6726    5228.1026    9324.9367    12657.527   -978.58946   -781.14675    3487.2314 
  381000    242.78854    -166.1421   -134.53954    -166.1421            0    4476.3606    18.104559    22.452677     19.37292  0.019391266   -6.6810711 -0.046707071    7875.0111    3127.2925    4744.0614    5557.7279    3559.2253    224.56715    3377.1147 
  381500    255.29339   -164.51106   -131.28081   -164.51106            0    8612.8975    18.018553    22.500548    19.491556  0.040994573   -6.8440364  -0.14596498     7902.409    7193.2169    8510.7549    10134.721   -107.27783    320.84571   -1597.7091 
  382000    252.23184   -166.25817   -133.42643   -166.25817            0    5202.5997    17.998183     22.56414     19.45832   0.10459704   -7.0840874 -0.063528655     7902.287    8909.4549    5613.3695    1084.9748   -209.82642    -1277.064    2404.3161 
  382500    256.95519   -164.78403   -131.33747   -164.78403            0    7681.2239    18.093798    22.573138    19.294496   0.07800281    -7.297202  0.069152367    7880.5241    7614.8503    6668.3161    8760.5052    -924.3165    562.24461   -94.770032 
  383000    247.75992   -164.88862   -132.63896   -164.88862            0    5331.1132    18.242036    22.671659    19.180236 0.0026131662   -7.4197075  0.085826694    7932.5086    6986.2094      6582.39    2424.7403   -106.08947    3074.1232    495.95753 
  383500    256.75327   -164.69339   -131.27311   -164.69339            0    7022.6171    18.079389     22.71234     19.12704  -0.16219962   -7.2487324  0.068382222     7854.045    3236.9066    7240.3534    10590.591   -811.80292   -2069.1575    766.88971 
  384000    250.48393   -166.61195   -134.00772   -166.61195            0    9816.6451    17.847854    22.865073    19.417163  -0.28127711    -6.838221  0.052293195    7923.9984    12837.394    10782.611    5829.9302    3400.2584    3809.6458    1671.7347 
  384500    246.62759   -166.02492   -133.92265   -166.02492            0     6494.213    17.773644    22.737311    19.387106   -0.1997173   -6.4776081  0.071996254    7834.8122     7546.634    6814.9194    5121.0855    2708.9776   -412.08857    3236.3543 
  385000    232.79077   -165.76854   -135.46734   -165.76854            0     2306.234    18.037185    22.727633    19.282329  0.019877329   -6.3373086   0.11111901    7904.6467    1965.5015    1446.9882    3506.2122   -1324.8534   -26.947856   -3362.9462 
  385500    240.46224   -166.86079   -135.56103   -166.86079            0    9534.6691    18.204181    22.550341    19.145326  0.090978246   -6.4590358 -0.0052070352     7859.357    11931.054    8745.1107    7927.8431   -2133.3186     -1413.17   -609.67619 
  386000    235.47164   -165.14651   -134.49635   -165.14651            0    6748.1275     18.17059    22.470811    19.285937  0.067820022   -6.7519138  -0.12101698    7874.6002    4710.8739    8450.9968    7082.5118    1759.8282    2780.0417    -702.8909 
  386500     251.3658   -165.20677   -132.48775   -165.20677            0    4640.5699    18.046418    22.538021     19.50526  0.010834941    -7.026273  -0.12487147    7933.3852    5397.9483    3681.0809    4842.6803    2243.9952   -534.67058    197.62129 
  387000    245.93913   -166.25071   -134.23805   -166.25071            0    8611.4908    18.001449    22.531283    19.380809 -0.037958204   -7.1471634 -0.041057158    7860.7738    11791.382    6655.0949    7387.9953    112.89292    2125.2881   -796.34431 
  387500    247.02795   -166.76599    -134.6116   -166.76599            0    6874.9943    18.157303    22.671492    19.270493 -0.040257894   -7.2605972  0.099718234    7932.7594    7714.7407    5605.8579    7304.3843   -1946.4273    122.24679   -2818.7222 
  388000    239.17696   -167.32787   -136.19541   -167.32787            0    6670.2166    18.067201    22.701178    19.119567 -0.069364579   -7.1778594   0.16976584    7841.8279    6537.2677    5153.8804    8319.5017   -329.19497    301.11762    1897.7474 
  388500    241.22844   -167.89077   -136.49128   -167.89077            0    8940.5987    17.937299    22.751001    19.276009  -0.13044866   -6.9914149  0.052516312    7866.3758    10297.065      9371.83    7152.9011   -2530.8735   -374.97765   -1941.9142 
  389000     237.9066   -166.37083   -135.40373   -166.37083            0    5324.2725    17.952025     22.70703     19.40981  -0.13875191   -6.7905167  -0.11164577    7912.1597      9586.73    3583.4868    2802.6007    2738.7997   -200.28475    264.27741 
  389500    231.07988   -165.76797   -135.68947   -165.76797            0    6272.7728    18.051557    22.427038    19.302328  0.024781144   -6.5829849  -0.12647925    7814.4113    10013.843    5155.7041    3648.7717    1673.8759   -1947.5614    454.36917 
  390000     237.3533   -166.96961   -136.07452   -166.96961            0    6749.2607    18.258137    22.382005    19.365424   0.16560956   -6.5511233 -0.0045487112    7913.7522    5493.7608    7980.3824     6773.639     3076.908   -209.20232   -619.14611 
  390500    237.45872    -164.0188      -133.11    -164.0188            0    5961.7676    18.129533    22.299133    19.380314   0.27922277    -6.632264   0.14793722    7834.9353     7004.933    4377.1718     6503.198    1488.8138   -994.81556   -791.18304 
  391000    242.72748   -164.05369   -132.45907   -164.05369            0    4418.0586    18.075166    22.560806    19.456013   0.19062622   -6.9190685   0.18353881    7933.9736    7462.5218     1385.296     4406.358    1054.1228   -1387.1187   -201.25551 
  391500    254.40613   -164.00625   -130.89149   -164.00625            0     10830.11    17.974693    22.649296    19.322079  -0.11686875   -7.2334091  0.070589161    7866.2917    9094.6922    9080.7801    14314.858     -2633.32    2375.8098    115.75068 
  392000    227.91425   -166.27268   -136.60623   -166.27268            0    4661.9783    18.018536    22.799927    19.272095  -0.26343426   -7.3430557  -0.09757095     7917.387    5263.9869    6158.6792    2563.2688   -364.97866     400.7362    1383.7027 
  392500    240.39378   -166.83421   -135.54336   -166.83421            0    9207.3789    18.002264    22.697996    19.178655  -0.10606553   -7.2365423 0.00031907443    7836.6921    9283.4881    7466.1282     10872.52    2180.1575    -934.3478     2682.902 
  393000    240.32072   -164.39878   -133.11744   -164.39878            0    3386.0904    18.123666    22.605376    19.330525   0.20527232   -7.0491627   0.19827123    7919.5668    4932.7507    1610.1157    3615.4048   -2819.1998   -3919.6316   -4311.0461 
  393500    251.65757   -163.67853   -130.92153   -163.67853            0    6281.3373    18.119123    22.445624    19.451025   0.18808874   -6.7692617   0.20906357    7910.6348    3914.7999    8425.6014    6503.6106   -1847.3079    861.81261   -556.19849 
  394000    240.45812   -166.12322     -134.824   -166.12322            0    7380.3976    18.055997      22.3864     19.42948 -0.032905709   -6.5746209 -0.0056741976    7853.5661    8774.1841    7131.6644    6235.3442    1929.7922    342.32737    2128.2184 
  394500    243.59971   -166.80015     -135.092   -166.80015            0    6007.3398    18.078695     22.45549    19.447509  -0.16207633   -6.6254682 -0.079781624    7895.0263    6859.4206    7356.8233    3805.7755   -737.94778     -522.101    257.90571 
  395000    249.81167   -165.98744   -133.47071   -165.98744            0    6213.8121    18.099617    22.651389    19.286227  -0.12131283   -6.8031908   0.06021083    7906.9955    4199.1692    8830.9389    5611.3283    2793.2149    1138.6745    2613.5214 
  395500    243.25415   -166.99737   -135.33421   -166.99737            0    7621.2292    18.035052    22.841075     19.05136 -0.011951602   -7.0122663   0.22007437    7848.0169    8224.4006    6107.4833    8531.8037   -900.30435    252.34961   -1487.1942 
  396000    237.61193   -167.13704   -136.20829   -167.13704            0    3087.4206     17.93517    22.988303    19.182589 -0.0092130948   -7.2189494   0.11200549    7908.9648    3151.5752     2951.354    3159.3327    755.51857    150.12242    1953.9222 
  396500    241.02186   -166.98184   -135.60924   -166.98184            0    7224.1253    17.830036    22.824878    19.321303 -0.072092157   -7.3267599  -0.16204877    7863.1596    6779.8163    8526.4237    6366.1357    1155.2656    2087.3615    3351.7323 
  397000    237.80582   -165.54989    -134.5959   -165.54989            0    4660.8733    18.067066    22.556675    19.475699 0.0010031326   -7.3377876  -0.26891214    7936.9887     4227.118    7146.5343    2608.9676   -523.33072     599.6639    1557.3599 
  397500     241.4135   -165.15101   -133.72742   -165.15101            0     7159.096    18.356512     22.09302    19.353199   0.14389632   -7.1330102 -0.087178945    7848.7049    4784.8844     7594.444    9097.9596   -350.80684    1546.8323    2001.4853 
  398000    252.32287   -167.48607   -134.64248   -167.48607            0    3970.5223    18.386095    22.209902    19.430497   0.16727442   -6.8436705  0.094008059    7934.5089    3519.7595    4889.2782    3502.5292   -613.54584   -2624.3077   -404.84769 
  398500    259.71088   -166.54527   -132.74001   -166.54527            0    7119.2491     18.04324    22.410333    19.409978  0.037433838    -6.608238  0.088818174    7848.5219    3932.0103    7900.0904    9525.6465   -418.86036   -2184.4048    1447.7997 
  399000    235.85485   -167.74755   -137.04751   -167.74755            0    3780.9544     17.93002    22.729228    19.451064   -0.1264711   -6.5221204  0.039449437    7926.9998     6037.484    2526.3112    2779.0679   -1927.8275   -1364.9293   -1877.9399 
  399500    240.61812   -165.86944   -134.54939   -165.86944            0    5906.0799    17.851934    22.803621    19.227185  -0.18191489   -6.5463698 0.0062774696    7827.1704    7083.6895    3667.5016    6967.0485    -999.0959   -978.34026    503.38763 
  400000    231.83225   -166.32224    -136.1458   -166.32224            0    3320.7232    18.088711    22.882135    19.185605  -0.19987251   -6.7434602  0.032401275    7941.0813    2222.1085    3764.7233    3975.3377    387.89496    911.86643    273.02713 
Loop time of 2570.48 on 1 procs for 400000 steps with 1008 atoms

Performance: 6.722 ns/day, 3.570 hours/ns, 155.613 timesteps/s
71.1% CPU use with 1 MPI tasks x 1 OpenMP threads

MPI task timing breakdown:
Section |  min time  |  avg time  |  max time  |%varavg| %total
---------------------------------------------------------------
Pair    | 2208.5     | 2208.5     | 2208.5     |   0.0 | 85.92
Bond    | 0.05176    | 0.05176    | 0.05176    |   0.0 |  0.00
Neigh   | 329.22     | 329.22     | 329.22     |   0.0 | 12.81
Comm    | 11.418     | 11.418     | 11.418     |   0.0 |  0.44
Output  | 2.2547     | 2.2547     | 2.2547     |   0.0 |  0.09
Modify  | 17.39      | 17.39      | 17.39      |   0.0 |  0.68
Other   |            | 1.632      |            |       |  0.06

Nlocal:        1008.00 ave        1008 max        1008 min
Histogram: 1 0 0 0 0 0 0 0 0 0
Nghost:        5063.00 ave        5063 max        5063 min
Histogram: 1 0 0 0 0 0 0 0 0 0
Neighs:         0.00000 ave           0 max           0 min
Histogram: 1 0 0 0 0 0 0 0 0 0
FullNghs:      270628.0 ave      270628 max      270628 min
Histogram: 1 0 0 0 0 0 0 0 0 0

Total # of neighbors = 270628
Ave neighs/atom = 268.48016
Ave special neighs/atom = 0.0000000
Neighbor list builds = 40000
Dangerous builds not checked

unfix		3
unfix		2

write_data	data.final.${pid}
write_data	data.final.0
System init for write_data ...

write_restart   restart.lmp.${pid}
write_restart   restart.lmp.0
System init for write_restart ...
Total wall time: 0:42:53
