LAMMPS data file via write_data, version 29 Sep 2021, timestep = 2000000

864 atoms
2 atom types

0.23747794494829755 17.970095055049544 xlo xhi
0.2797176382218929 21.166397361778216 ylo yhi
0.28972253121203373 21.9234734687871 zlo zhi

Masses

1 1.008
2 15.999

Atoms # full

191 0 2 0.5897 2.978729523790615 1.8104773838060688 2.77076575771324 1 1 0
190 0 1 -1.1794 3.4008989309628945 2.047816189567296 1.9605784552792376 1 0 0
192 0 2 0.5897 2.7476135927864482 2.54124136977898 1.4514030675489402 1 1 0
424 0 1 -1.1794 2.0416569757542127 0.4364870940526775 3.932606012696866 0 0 0
508 0 1 -1.1794 0.40448622367057296 3.8348773447101605 3.2076651971487675 1 1 0
509 0 2 0.5897 0.46786399394993083 3.3190067187498946 4.044601730905659 1 1 0
378 0 2 0.5897 3.4840596709402405 0.46251291433873043 0.8522000521403656 0 1 1
120 0 2 0.5897 3.5233136340354734 3.355683860273952 4.426620648667495 1 0 0
425 0 2 0.5897 1.5028402273297088 0.9158907595201194 4.5622051444997584 0 0 0
738 0 2 0.5897 4.926615399896944 2.795217411276147 2.531778937648573 0 1 0
737 0 2 0.5897 6.145509228353187 2.280617395733009 1.9127752072474389 0 1 0
736 0 1 -1.1794 5.854769240328727 3.081345880610424 2.4252572854333465 0 1 0
218 0 2 0.5897 8.047348765546804 1.9023930519732672 0.9370795865609476 0 0 1
830 0 2 0.5897 6.617737265788626 3.8941260608438877 4.122004101369892 -1 1 1
217 0 1 -1.1794 7.29602407677519 1.3842938744172262 0.5958745517694651 0 0 1
219 0 2 0.5897 7.250182560091154 0.624999625009163 1.21128768303342 0 0 1
746 0 2 0.5897 6.012510687287731 3.965488611264731 0.7937829596713197 0 1 1
151 0 1 -1.1794 9.751305717240983 1.332215518253795 3.9691779002636247 1 0 0
431 0 2 0.5897 9.809054228727494 1.8296970716933405 2.3250204850983676 1 1 0
430 0 1 -1.1794 9.794761793911519 2.2443952903032827 1.4834322170154657 0 1 0
432 0 2 0.5897 10.520777783095452 2.0239684695729405 0.9009594804219891 1 1 0
520 0 1 -1.1794 13.167146065298896 1.5492029922268125 3.8181733956366433 -1 0 1
392 0 2 0.5897 12.288336642097718 3.2325920391986083 3.6806391237329548 1 1 0
711 0 2 0.5897 12.203487221982519 0.8822333064511791 0.4424244635758916 -1 1 1
522 0 2 0.5897 12.874147567780208 0.8963501685818602 3.1496659198310404 -1 0 1
489 0 2 0.5897 9.500070970098065 4.077636743786007 0.7654868327679256 0 1 1
153 0 2 0.5897 9.915829358742732 0.40195446082994357 4.08634649294512 1 1 0
391 0 1 -1.1794 11.993515617378417 4.214161180718891 3.6735016871380726 1 1 0
393 0 2 0.5897 11.010273588206182 4.2008295282962145 3.751555225501312 1 1 0
521 0 2 0.5897 13.983767700146613 1.8851470675247244 3.4958383982209384 -1 0 1
701 0 2 0.5897 15.881295487071013 1.011023989510266 1.7612059608277215 0 1 0
283 0 1 -1.1794 15.718029589230753 3.033654345583946 2.0473824839617505 0 0 0
285 0 2 0.5897 15.081562488190603 3.1960732481672776 1.3128104538306025 0 0 0
284 0 2 0.5897 15.32712730344188 3.5347283797966687 2.8016641796002872 0 0 0
510 0 2 0.5897 17.472683101828345 3.2960899659667167 2.738611757834274 0 0 0
702 0 2 0.5897 16.991335383032265 0.9564621684106966 0.7592286967904027 0 1 0
700 0 1 -1.1794 16.48786288194298 0.35448381137455015 1.3724670035315614 0 1 0
722 0 2 0.5897 1.9227963522071598 4.715305640509449 3.9045973968418743 0 1 0
721 0 1 -1.1794 2.8121744804598334 5.101621245441987 4.056838276349549 0 1 0
113 0 2 0.5897 3.5492830629397276 5.93617043945212 2.678082491914563 1 1 0
112 0 1 -1.1794 4.066636928249723 6.364207989964911 1.9719301418271662 1 1 0
114 0 2 0.5897 3.7523203567627252 6.025891538417706 1.106093009434864 1 1 0
735 0 2 0.5897 3.9607028090123375 8.060770205053105 2.5604921224045705 1 0 0
357 0 2 0.5897 6.441975526963535 7.22208572274395 3.4257075581977605 0 0 0
654 0 2 0.5897 7.326650648948736 8.53395674270231 1.485218799315467 0 0 0
355 0 1 -1.1794 6.768308324505436 7.123557484913496 2.5107862596782295 0 0 0
356 0 2 0.5897 6.05222192637639 6.739239519584238 1.9948206856281094 0 0 0
669 0 2 0.5897 8.681352550081018 4.791661568752469 3.9527486963629936 0 1 1
668 0 2 0.5897 8.972652343958945 5.203379499324127 2.542147712877856 0 1 1
667 0 1 -1.1794 9.378094463398988 5.10933048575457 3.3766283448172207 0 1 1
80 0 2 0.5897 11.534330503314596 7.312721003820795 0.6555663194328154 -1 0 0
542 0 2 0.5897 13.318504427781003 7.798792675054795 2.1807038668993703 0 0 0
541 0 1 -1.1794 12.81504127400831 8.44129342228482 1.689252330317832 0 0 0
539 0 2 0.5897 9.215999103782575 6.624237024114763 3.8708032416691913 0 1 0
803 0 2 0.5897 12.929997581988118 8.148517087271184 4.500696567296767 0 0 1
538 0 1 -1.1794 9.495809752283982 7.339506927668451 4.5231746481811355 0 1 0
488 0 2 0.5897 10.066329927135413 5.532039815109279 0.418289334626486 0 1 1
487 0 1 -1.1794 9.317357295129947 4.901976799218195 0.3726497107164022 0 1 1
330 0 2 0.5897 13.730987224723984 5.866473578183482 3.3821991654937205 0 1 0
328 0 1 -1.1794 14.18702909916604 6.699780464591196 3.3683107314284295 0 1 0
598 0 1 -1.1794 17.003996520451047 6.1699396734596075 2.8393007778825368 0 1 0
570 0 2 0.5897 16.417095518593186 6.939421440494968 1.1720305583383477 0 1 0
568 0 1 -1.1794 16.164154724201914 7.2704266669458395 0.32444871873069303 0 1 0
329 0 2 0.5897 15.117339075370245 6.509327047469941 3.4304940113417293 0 1 0
569 0 2 0.5897 16.163995109560727 8.275761212867973 0.36664061325257247 0 1 0
599 0 2 0.5897 17.24672932120199 6.727446931726135 3.6166676218883285 0 1 0
600 0 2 0.5897 17.325096909815706 5.301622753911647 3.0975474232399987 0 1 0
72 0 2 0.5897 2.804036405310966 9.079797289187098 4.370916855247382 1 0 0
733 0 1 -1.1794 3.611621750890696 8.894759332136339 2.9015800020682616 1 0 0
125 0 2 0.5897 2.7503540059028095 9.887769539420097 1.7246849340466268 0 0 1
157 0 1 -1.1794 4.052920951994149 12.0391931049917 2.7411674854802417 0 1 0
124 0 1 -1.1794 2.2694451449877344 9.920087751352904 0.8805926123211016 0 0 1
159 0 2 0.5897 4.187248551322011 12.194599280705436 1.7727344684592479 0 0 0
693 0 2 0.5897 0.2889522633187527 10.244100565680965 0.7056977828714073 0 0 0
734 0 2 0.5897 4.490919428802465 9.333752929828755 2.9398635489074953 1 0 0
126 0 2 0.5897 2.0934183339265804 8.988850359126046 0.6786227235433321 0 0 1
652 0 1 -1.1794 7.889962413295185 9.28810224870364 1.3589596284313836 0 0 0
680 0 2 0.5897 5.66756608755873 11.152848639696495 2.886986345262252 0 1 1
679 0 1 -1.1794 6.1538861474787465 10.305961281738497 3.0281180092599196 0 0 1
681 0 2 0.5897 6.865183168689927 10.238574147586764 2.3253422934460093 0 0 1
653 0 2 0.5897 7.708202475447361 9.482551650943373 0.4426735230916752 0 0 0
677 0 2 0.5897 6.838444820084988 9.654415551344409 4.556827767046775 1 1 1
642 0 2 0.5897 7.6773774015843985 12.279630105689357 1.000514377064478 0 0 1
245 0 2 0.5897 9.622256185608576 12.21858443931823 2.835779692192377 1 1 1
543 0 2 0.5897 11.908856244972366 8.664969749788543 1.9470306255531278 0 0 0
134 0 2 0.5897 10.304790470776162 8.640382805198312 3.2129891878038213 0 0 0
135 0 2 0.5897 9.681737570549386 9.216674166960791 1.8634820968399741 0 0 0
244 0 1 -1.1794 10.202618518988675 11.716673187019923 3.433794605334604 1 1 1
133 0 1 -1.1794 10.447661213591353 9.252102767338211 2.471402663171482 0 0 0
246 0 2 0.5897 10.312970219371492 10.799142106333342 3.064401084692746 0 1 1
566 0 2 0.5897 11.88967987979468 12.244994102506084 3.496400982287324 0 0 1
207 0 2 0.5897 13.271217529513011 9.948600556718393 0.8939111807062586 -1 0 0
205 0 1 -1.1794 13.517073084568795 10.816186427396591 0.5522215820454237 -1 0 0
565 0 1 -1.1794 12.726243041662517 12.710929002851522 3.6888206419517755 0 0 1
783 0 2 0.5897 11.536369378024613 11.30175328865994 0.6835915742179481 0 0 0
782 0 2 0.5897 10.331156241126962 12.139407165135784 0.41878246903429794 0 0 0
206 0 2 0.5897 14.17973277343802 11.269925575165523 1.1824966037970657 -1 0 0
692 0 2 0.5897 16.651869257839593 10.76995699011471 1.1182295028113085 -1 0 0
437 0 2 0.5897 15.888628133735562 12.384596334531457 2.9005882223604673 -1 -1 1
438 0 2 0.5897 15.49706787575849 10.908945483228417 2.8524282473781097 -1 -1 1
436 0 1 -1.1794 15.556277861001119 11.710777450761222 2.287464532024373 -1 -1 1
691 0 1 -1.1794 17.0602638189062 10.103268304030081 0.5872882530696686 -1 0 0
158 0 2 0.5897 3.6506886292782186 12.818087830545299 3.080364765832138 0 1 0
342 0 2 0.5897 1.4527532934812417 13.56416938089025 0.7815518447957037 1 0 0
826 0 1 -1.1794 2.6252858084928192 14.425678830689131 3.6417333930452482 -1 0 1
828 0 2 0.5897 1.8038472688491702 14.207403395070259 3.1662193610757163 -1 0 1
281 0 2 0.5897 3.326973490663961 16.07353499485789 3.527285872807176 0 -1 1
341 0 2 0.5897 1.3627672997723743 15.053063708685654 1.2995323805269365 1 0 1
340 0 1 -1.1794 1.0811438010920384 14.094488482869286 1.5231204513710574 1 0 0
827 0 2 0.5897 2.4154854868505087 14.491635866603916 4.5905240910773 -1 0 1
280 0 1 -1.1794 3.7208041259026947 16.954349416694544 3.530610761150751 0 -1 0
640 0 1 -1.1794 8.177215745441183 12.909694486980444 1.47280532456363 0 0 1
641 0 2 0.5897 7.580214509438852 13.431334971198257 2.0471974142810936 0 0 1
497 0 2 0.5897 6.183904000080446 14.505458808212842 3.9653240342665477 0 0 -1
498 0 2 0.5897 6.542160860777248 15.41395762520695 2.7514458565553537 0 0 -1
496 0 1 -1.1794 6.829205377206361 14.65340433230885 3.2196160913650758 0 0 -1
627 0 2 0.5897 8.528944991472521 15.219989989378549 3.72929901175509 0 0 1
625 0 1 -1.1794 8.941170326519499 15.941903816576417 4.288512640401084 0 0 1
299 0 2 0.5897 5.161954974104278 16.813176309898946 2.1258638204322597 0 -1 1
298 0 1 -1.1794 5.875954653539966 16.899244447956814 1.5493180441961836 0 -1 1
527 0 2 0.5897 13.499311122912687 13.488747700536093 2.3518919386830883 0 1 0
567 0 2 0.5897 12.51125332335941 13.285846122885172 4.459972104777694 0 0 1
576 0 2 0.5897 10.791306229198955 16.63842563116034 2.8256851110288252 0 0 0
464 0 2 0.5897 10.641225133920736 15.020389194016712 1.2360123444517233 0 0 1
528 0 2 0.5897 13.457382341744408 14.028954761304528 0.8209363895937917 0 1 0
574 0 1 -1.1794 10.745743766234021 16.518171881590305 1.8596804716179223 0 0 0
613 0 1 -1.1794 11.852268001882031 16.31959969815439 4.350616036064051 0 -1 0
465 0 2 0.5897 9.535509455072784 13.890340150477643 0.9231762005712152 0 0 1
463 0 1 -1.1794 10.476301570001654 14.167895149153708 0.7431415384463937 0 0 1
614 0 2 0.5897 12.699361291474396 16.2344694922787 3.8895196965809635 0 -1 0
526 0 1 -1.1794 13.974243129382485 14.050279871860212 1.6787447865585887 0 1 0
169 0 1 -1.1794 14.298586149977853 16.411718600356252 3.0778243089804804 0 0 0
170 0 2 0.5897 14.201239108130528 15.64127836361753 2.4574226054566735 0 0 0
301 0 1 -1.1794 16.921492743804023 13.857165976949998 4.196897366775769 0 0 0
303 0 2 0.5897 17.0239606036951 14.721529709210108 3.7049714577046924 0 0 1
171 0 2 0.5897 15.148121797171612 16.20715166294986 3.458521310329231 0 0 0
304 0 1 -1.1794 17.07592729016313 16.474771272470566 3.270623821134645 -1 -1 1
792 0 2 0.5897 15.553645921626277 13.766044115741352 0.7575902109824071 1 0 1
306 0 2 0.5897 16.825040824326443 16.66987387474647 2.3085039863357495 -1 -1 1
180 0 2 0.5897 3.951354568779691 20.698234205405864 3.820851446129148 1 0 1
426 0 2 0.5897 1.4360569717289557 20.680181419226273 3.5469545106326605 0 -1 0
222 0 2 0.5897 1.016935251023238 19.007726946850998 2.5037980790110055 0 -1 0
274 0 1 -1.1794 2.467302266922912 18.386042966612045 1.55580467066561 1 -1 1
276 0 2 0.5897 2.936637008955018 18.210643479065123 2.3630188890925 1 -1 1
275 0 2 0.5897 2.864521991855203 19.189172329349983 1.1443342312759173 1 -1 1
376 0 1 -1.1794 3.9319414509231607 20.54039270272696 0.6658580555077742 0 0 1
282 0 2 0.5897 3.564629840207718 17.30820019209702 4.397439557295361 0 -1 0
220 0 1 -1.1794 0.2877223648434502 19.516079549806108 2.8355910935456317 0 -1 0
78 0 2 0.5897 2.3082453200887687 17.22280072814618 0.3629237571116506 0 -1 1
179 0 2 0.5897 5.553814827248358 20.814114787395205 3.630600332926953 1 0 1
182 0 2 0.5897 8.038777401860264 17.505099987537317 4.055100199477426 1 -1 0
290 0 2 0.5897 5.802881214928162 20.004277568404987 1.6098244204449177 1 -1 0
289 0 1 -1.1794 6.438002623378313 20.164428827126923 2.308566178888994 1 -1 0
291 0 2 0.5897 6.899388471286235 19.33948402732741 2.324274024903416 1 0 0
108 0 2 0.5897 7.750551503871397 17.266808091242694 1.1717933997616625 0 0 1
181 0 1 -1.1794 7.75012592072944 18.34268947377886 3.6464214505324812 1 0 0
106 0 1 -1.1794 8.42201358540194 17.40368091254239 0.48533834652471786 0 0 0
300 0 2 0.5897 5.504206239700283 17.08267796231453 0.6409485355146285 0 0 1
178 0 1 -1.1794 4.805015719395659 21.029716902695753 4.261064908825445 1 0 1
183 0 2 0.5897 7.916689382886648 19.03171426857084 4.266135330240876 1 0 0
107 0 2 0.5897 9.299677692871676 17.149765675223758 0.8671247195899523 0 0 0
575 0 2 0.5897 11.336788810021211 17.12507705083608 1.4700119266933416 0 0 1
638 0 2 0.5897 9.74437325900048 18.707423538587467 2.963352711019898 1 0 1
637 0 1 -1.1794 10.577560426755548 19.172556345947786 3.1404174118178685 1 0 1
639 0 2 0.5897 10.748498163289758 18.997561885816356 4.058448643633545 1 0 1
7 0 1 -1.1794 12.414719800021219 20.634866557969126 1.936064407813052 0 -1 0
8 0 2 0.5897 11.72435978717161 20.17184957022028 2.358447563284802 0 -1 0
9 0 2 0.5897 13.069283211674213 19.923234873630783 1.8693605151378865 -1 -1 0
221 0 2 0.5897 17.381402122028568 19.600112149158775 2.1908739924344927 -1 -1 0
305 0 2 0.5897 17.27317816893526 17.369793684339793 3.5686290699305143 -1 -1 1
862 0 1 -1.1794 14.563583732060646 19.090032156958554 2.6643381021823616 0 0 0
864 0 2 0.5897 14.562581403806893 18.112048946360396 2.781293050226031 0 0 0
863 0 2 0.5897 15.208796470767346 19.557419485927248 3.2941940353830024 0 0 0
793 0 1 -1.1794 16.53724163769037 17.095345961155033 0.6441464290130469 0 -1 1
794 0 2 0.5897 15.806625332215699 17.665684178365897 0.3744139894083971 0 -1 1
279 0 2 0.5897 15.102223947592272 19.777305250088606 0.5167257382253436 0 -1 1
119 0 2 0.5897 3.758707922058434 1.8973372425123696 4.943326734120706 1 0 0
168 0 2 0.5897 0.9824377180377465 2.547438604116598 6.244403919939814 1 0 1
166 0 1 -1.1794 0.5446739347856951 2.052633559008563 5.511699768499472 1 0 1
198 0 2 0.5897 1.1109370381130281 3.140192620385583 8.39862177352153 0 0 0
196 0 1 -1.1794 1.2407450955712729 3.7072760103261064 7.595977419156705 0 0 0
118 0 1 -1.1794 3.660025509680822 2.816815711970818 5.2141061655927965 1 0 0
776 0 2 0.5897 4.3956385730245335 3.6368544655794444 6.60299869944014 1 1 0
197 0 2 0.5897 0.37509510285217496 4.041705775467498 7.26869354787212 1 0 0
829 0 1 -1.1794 7.111163055686984 4.401493478437322 4.801537692786358 -1 1 1
775 0 1 -1.1794 4.88195595287769 4.005317350122027 7.443501495095797 1 1 0
825 0 2 0.5897 7.745217479798923 1.8381398911812992 6.596185723218527 0 1 0
823 0 1 -1.1794 8.384767460792093 2.5132432037326886 6.438827770093183 0 1 0
824 0 2 0.5897 7.834387789830187 3.1783897635998994 6.0018271194167765 0 1 0
412 0 1 -1.1794 6.125374167766351 0.5471170103923348 6.761863435212061 0 0 1
414 0 2 0.5897 5.610692821760352 0.7014462987940921 7.5893673770831205 0 0 1
413 0 2 0.5897 5.4766409334717965 0.6856070857945581 6.087967621504171 0 0 1
449 0 2 0.5897 4.798961870341605 2.4517111515892007 8.812399994313274 0 1 0
152 0 2 0.5897 9.413779005340855 1.7313639623621435 4.7801486496918795 1 0 0
695 0 2 0.5897 9.948635765755336 2.1663595405904967 7.198823326220523 0 1 0
338 0 2 0.5897 12.272046209676509 1.0848714016147563 6.693169404451148 0 1 1
694 0 1 -1.1794 10.893122153160546 2.0798663648129754 7.40643826925957 0 1 0
696 0 2 0.5897 11.066546048095079 2.206688138160885 8.349896924249316 0 1 0
494 0 2 0.5897 12.227630803692533 4.27020297221833 5.323918424940619 -1 1 0
495 0 2 0.5897 12.093467844169746 3.530425139461033 6.680699867072865 -1 1 -1
493 0 1 -1.1794 12.679883863403699 4.085372450019795 6.192931013882872 -1 1 0
339 0 2 0.5897 13.12873502171729 0.7584473573138693 5.4103240180755385 0 1 1
337 0 1 -1.1794 12.880244020423612 0.4356768320353012 6.307529394849689 0 1 1
167 0 2 0.5897 17.613984775288465 1.5050157802324455 5.931034879665347 0 0 1
548 0 2 0.5897 15.78204674224924 2.0588983127397507 6.042168332778764 -1 1 0
547 0 1 -1.1794 16.046425413330425 1.246360507918555 6.521756656500241 -1 1 0
549 0 2 0.5897 15.735805198997893 1.3693849518021088 7.4647472306283325 -1 1 0
469 0 1 -1.1794 15.420531743282586 3.4457277842857543 5.0010650121359665 0 0 0
470 0 2 0.5897 14.485248010146938 3.69533443116912 5.227955849400757 0 0 0
471 0 2 0.5897 15.909528632534174 4.307304869830234 5.15650424239965 0 0 0
723 0 2 0.5897 2.853780512825733 5.340848059655935 5.044608546876207 0 1 0
402 0 2 0.5897 2.830526950542456 7.638530191387104 6.082476739125889 0 0 0
400 0 1 -1.1794 3.136990012314558 6.783448443752775 6.420959971254343 0 0 0
401 0 2 0.5897 2.947142146430419 6.547653492219926 7.2976582294466485 0 0 0
580 0 1 -1.1794 3.143740742349582 5.296624437401488 8.867931195445818 0 0 0
581 0 2 0.5897 2.2439783254340258 4.997497303546636 8.668899456298961 0 0 0
582 0 2 0.5897 3.742445981248171 4.794866119071633 8.287695608987676 0 0 0
195 0 2 0.5897 0.58429226218886 8.62516253460919 7.524582319590524 0 0 0
102 0 2 0.5897 0.8431699587836649 7.94529363301716 5.017058016063224 0 0 0
777 0 2 0.5897 5.508383511107889 4.590355886155256 7.108319958772026 1 1 0
3 0 2 0.5897 4.888688245775187 6.695017929897741 6.415907402191011 -1 0 0
553 0 1 -1.1794 8.130185444201176 4.906253375865488 7.949129445454671 1 0 0
831 0 2 0.5897 6.493675648368899 4.813326553217747 5.400166185368197 -1 1 1
554 0 2 0.5897 7.853501061053671 5.667184328657584 8.483656693534082 1 0 1
2 0 2 0.5897 6.280541111098547 7.19380954087636 6.005229210782086 -1 0 0
1 0 1 -1.1794 5.873295480021487 6.441296004401609 6.488046232066986 -1 0 0
540 0 2 0.5897 8.73905427668684 7.895339844272989 4.776156245771826 0 1 0
555 0 2 0.5897 8.875321781099625 5.2684008919303755 7.398790700327112 1 0 0
249 0 2 0.5897 11.438143599786287 5.673353991139285 6.565903323828382 0 1 0
247 0 1 -1.1794 10.682876606849657 6.299618277125196 6.713578968871703 0 1 0
248 0 2 0.5897 10.30504084150306 6.602782741174866 5.872670507487621 0 1 0
804 0 2 0.5897 13.255809374596879 8.140626100105301 5.979088269374001 0 0 1
799 0 1 -1.1794 13.465436065401278 7.77968948011311 8.004706790445045 0 0 0
525 0 2 0.5897 10.661612974575602 6.143374765386373 8.710474958391194 0 1 0
800 0 2 0.5897 12.691249625261019 7.717044403983755 8.626627835447026 0 0 0
15 0 2 0.5897 9.79878142384019 8.582676980482319 8.216300955641568 0 0 0
840 0 2 0.5897 13.824371909075273 4.656907445872236 7.2333932714936875 1 1 1
100 0 1 -1.1794 17.644727202153497 7.737074064679343 5.008444030690969 -1 0 0
12 0 2 0.5897 16.221213205178785 5.07994392858104 7.1090134263440445 0 0 1
10 0 1 -1.1794 16.970487903345536 5.179645096654222 6.4476990641975345 0 0 1
839 0 2 0.5897 14.145863464507405 5.953132413986352 7.936597813510276 1 1 1
838 0 1 -1.1794 14.475363814722964 5.072355427787418 7.858746323631408 1 1 1
11 0 2 0.5897 17.060293876489162 6.086267660939771 6.161087237469745 0 0 1
801 0 2 0.5897 14.118353253095114 8.497088350428886 8.21250882339631 0 0 0
70 0 1 -1.1794 2.286236428146407 9.005037865758055 5.187808935891717 1 0 0
348 0 2 0.5897 3.0420581054199127 9.486183005780394 8.239843024947362 0 0 0
193 0 1 -1.1794 1.2127965830124934 8.847621318291276 8.249069911706485 0 0 0
71 0 2 0.5897 2.238953599181427 9.9706155930899 5.307671057983224 1 0 0
242 0 2 0.5897 4.280620088621224 10.934510583402874 5.1928424677879415 -1 -1 0
649 0 1 -1.1794 0.9898146736275658 11.614660846663535 8.108284377324285 0 0 0
243 0 2 0.5897 3.857976909025319 11.011167194244354 6.6776414503840735 -1 -1 0
241 0 1 -1.1794 3.7897678425050794 11.479890466449055 5.821015007069743 -1 -1 0
346 0 1 -1.1794 3.9546673463250146 9.828415960259887 8.108812383087237 0 0 0
712 0 1 -1.1794 0.9509510701361734 12.185611787203765 5.425437071175793 1 0 0
714 0 2 0.5897 1.9207999097632968 12.100339589841568 5.153958195783501 1 0 0
651 0 2 0.5897 0.7025375962617704 10.711140266654214 8.349334837723726 0 0 0
650 0 2 0.5897 1.0062903016152527 11.785136549683632 7.145058946598345 0 0 0
212 0 2 0.5897 9.064657193121832 12.000972110138761 5.072240008386546 0 0 0
676 0 1 -1.1794 7.248675831825074 9.092145577105383 5.217436523926837 1 1 1
678 0 2 0.5897 7.407828464600033 9.680932009001433 5.973116683666294 1 1 1
860 0 2 0.5897 6.39300273260234 12.138677675932726 7.9296757601016665 0 -1 1
184 0 1 -1.1794 6.702356366357777 10.406781145291253 7.769933992058579 0 0 0
213 0 2 0.5897 9.025758637583195 12.564226564454602 6.526906663000452 0 0 0
186 0 2 0.5897 5.809476286354907 9.969953955564275 7.933498580571149 0 0 0
211 0 1 -1.1794 9.054251136994921 11.764991192286292 6.009696603580639 0 0 0
185 0 2 0.5897 7.256281764811755 10.146509172008628 8.519294236364521 0 0 0
802 0 1 -1.1794 12.710534899098588 8.63706067493295 5.308269625137367 0 0 1
122 0 2 0.5897 11.093096049738818 9.285577069017357 6.249995182211129 -1 0 0
121 0 1 -1.1794 10.50775107884197 9.666900409087429 6.944818139125279 -1 0 0
123 0 2 0.5897 10.112549532751666 10.39921769893616 6.48247355636264 -1 0 0
506 0 2 0.5897 12.311359361809526 10.506727421629558 7.7655530713756615 -1 0 0
505 0 1 -1.1794 12.840621995094168 11.180029285751894 8.258412655968108 -1 0 0
379 0 1 -1.1794 14.415588385187267 10.65528433564128 4.761853890802442 0 -1 0
101 0 2 0.5897 17.318708087081397 8.64895259764255 5.062663915672868 -1 0 0
381 0 2 0.5897 13.788631572267795 11.41872897428847 4.6955343320517535 0 -1 0
380 0 2 0.5897 13.811024199484823 9.91872772979293 5.0074493328037075 0 -1 0
507 0 2 0.5897 13.75101785851857 10.868467557709732 8.137954127895924 -1 0 0
787 0 1 -1.1794 16.694362765572407 10.27051292899433 5.986392500929025 -1 0 0
480 0 2 0.5897 16.004715695116616 9.852561463838054 7.6646923741305075 0 0 0
788 0 2 0.5897 15.929213814842749 10.500967653384238 5.424652745754599 -1 0 0
789 0 2 0.5897 17.395862056558748 10.871440870967257 5.800948570880867 -1 0 0
478 0 1 -1.1794 15.406468291478918 9.839794603555276 8.415902766501754 0 0 0
759 0 2 0.5897 2.512605809661521 12.959886444017393 8.448109226426498 0 0 0
713 0 2 0.5897 0.5830511987584617 12.921648248115238 4.898249693352898 1 0 0
757 0 1 -1.1794 3.1087840796972164 13.647841427183941 8.205818381312554 0 0 0
504 0 2 0.5897 4.4973001610621655 13.366890623918962 5.510159309127814 0 -1 0
395 0 2 0.5897 2.363069355619502 14.992319809138076 7.151941143183692 0 0 0
394 0 1 -1.1794 2.1498523734502855 15.47385357746897 6.325025897628716 0 0 1
396 0 2 0.5897 1.2453166394364874 15.860740889664294 6.488396142869039 0 0 1
366 0 2 0.5897 3.5720028547406573 16.586706500518407 8.656280929180602 1 0 0
420 0 2 0.5897 4.929064313345063 15.605547250852355 6.519499580182008 0 0 0
502 0 1 -1.1794 5.203786513282788 13.978724841667683 5.658858318019971 0 -1 0
503 0 2 0.5897 5.520266584112324 13.671156604774307 6.56566833777496 0 -1 0
859 0 1 -1.1794 6.436294296486555 13.075672133870125 7.908849730718733 0 -1 1
418 0 1 -1.1794 5.096060957636195 16.24587690137073 7.169325623565976 0 0 0
786 0 2 0.5897 6.915985038092351 16.47173753359169 7.083210272261448 -1 0 0
785 0 2 0.5897 8.188174656101616 16.34623668858187 6.249161280374748 -1 0 0
784 0 1 -1.1794 7.725606902914596 16.959497768457744 6.852299325130528 -1 0 0
137 0 2 0.5897 8.305024655690712 13.622378615928842 8.320841517237746 0 0 0
861 0 2 0.5897 6.144229225535111 13.448937810026079 8.741637282471455 0 -1 1
626 0 2 0.5897 9.766643803919326 15.617831582047444 4.628006959074803 0 0 1
360 0 2 0.5897 12.541075220197886 12.897073258258317 6.908228685728135 0 0 0
358 0 1 -1.1794 12.415116293547964 13.632332709128079 6.292085106845751 0 0 0
615 0 2 0.5897 11.87982387013767 16.94944319518203 5.043755667271684 0 -1 0
359 0 2 0.5897 11.791814595790283 14.16016269857349 6.767291510210254 0 0 0
83 0 2 0.5897 9.8622360970931 15.004629015159463 7.473176772998474 -1 -1 0
82 0 1 -1.1794 10.489977699581138 15.56232942882459 6.989790348698471 -1 -1 0
84 0 2 0.5897 10.345312969661107 16.35247855906925 7.56949217325136 0 -1 0
136 0 1 -1.1794 9.225135695616075 13.422406438914885 8.35179743749541 0 0 0
302 0 2 0.5897 16.142913451906566 14.11238934479981 4.739303675491249 0 0 0
551 0 2 0.5897 17.542235611152563 16.95846672485643 7.802165664329943 0 0 0
665 0 2 0.5897 14.025800634438374 14.677901169231689 5.91493311973485 0 0 0
666 0 2 0.5897 14.695640605331223 16.03370816061791 6.0098964545420275 0 0 0
664 0 1 -1.1794 14.927671287891098 15.053407229311091 5.86680215884523 0 0 0
429 0 2 0.5897 15.131483849206584 15.038707965656894 7.728789822653826 0 0 0
552 0 2 0.5897 16.661505689581993 16.979099429442133 6.62860694088571 0 0 0
427 0 1 -1.1794 15.157744764373419 15.093831342579742 8.701378604683175 0 0 0
172 0 1 -1.1794 1.5156802721309472 20.90765768176719 8.370776170399827 0 -1 0
173 0 2 0.5897 2.473869554964338 20.957194541648306 8.37196417648203 0 -1 0
531 0 2 0.5897 1.9044264788313452 19.3342144874473 5.813090505850304 0 -1 0
174 0 2 0.5897 1.319688794147682 20.47630308000764 7.517840999643035 0 -1 0
530 0 2 0.5897 0.6837006251300466 18.552590143054285 6.284279850670909 0 -1 0
529 0 1 -1.1794 0.9578733048559469 19.44934749785993 5.971594220775141 0 -1 0
32 0 2 0.5897 4.403523679917296 19.587484507948073 5.6217353210247 0 0 0
33 0 2 0.5897 4.106827812749717 19.097756017009363 7.023208438254079 0 0 -1
31 0 1 -1.1794 4.0625373109111 18.813697334196785 6.102725208066285 0 0 0
841 0 1 -1.1794 4.090126854198218 19.494067379775288 8.717928558192892 0 -1 0
419 0 2 0.5897 4.961909088313946 17.123917009606043 6.80355193952387 0 0 0
561 0 2 0.5897 7.98308083472433 18.67287925291268 6.625402767428858 1 0 0
559 0 1 -1.1794 8.1450603528255 19.618649342990324 6.368875326623785 1 0 0
560 0 2 0.5897 7.258769831637047 20.016921335520365 6.461223697608853 1 0 0
818 0 2 0.5897 8.845549074410217 20.432343494394296 8.201662622259265 0 0 0
644 0 2 0.5897 10.060563036060753 19.69857493591989 6.270691048901009 0 0 0
643 0 1 -1.1794 10.86630180800381 19.364098807118655 5.869191585865883 0 0 0
645 0 2 0.5897 11.494508741279471 20.109527694052137 6.060436655242813 0 0 0
563 0 2 0.5897 13.496804415529004 20.111452143850105 7.936853294285365 0 0 0
22 0 1 -1.1794 10.516714163226942 17.801206459998674 8.518276822765701 0 0 0
24 0 2 0.5897 11.072938042203969 18.320723388553947 7.935272503254028 0 0 0
562 0 1 -1.1794 13.148261250048417 19.2455323929169 8.263894777367717 -1 0 0
762 0 2 0.5897 16.90409728632227 19.714485409844347 5.022233786309432 0 0 1
760 0 1 -1.1794 15.947807143741278 19.809534961065484 5.02860725920524 0 0 1
550 0 1 -1.1794 17.607152336959643 17.07532569412479 6.843550579608798 0 0 0
387 0 2 0.5897 13.795941717383958 18.026213199298798 6.908576378691911 0 0 1
761 0 2 0.5897 15.770809393820949 20.61963347114655 5.565920731982656 0 0 1
385 0 1 -1.1794 14.374001016668316 17.70034359954329 6.222942215196574 0 0 1
386 0 2 0.5897 14.800882922296857 18.439737044148355 5.746783145189009 0 0 1
611 0 2 0.5897 0.5781376540418377 1.3537963512768825 9.359138339758525 1 1 -1
610 0 1 -1.1794 0.7847487059851059 2.100199461393501 9.894073069127213 1 1 -1
143 0 2 0.5897 3.051100530432063 3.761769502195077 12.703246716319976 1 1 0
450 0 2 0.5897 4.433403930168894 1.2336330391758037 9.761100240518715 0 0 0
532 0 1 -1.1794 4.074631551908107 4.225592646942161 11.262911069195944 0 0 0
546 0 2 0.5897 2.172551218657836 1.5429915030480006 11.324434260466196 1 1 -1
545 0 2 0.5897 3.3703343956672285 1.36407806724982 12.41055743927761 1 1 0
544 0 1 -1.1794 2.7437597100875846 0.9418490037965941 11.800796006984896 1 1 -1
773 0 2 0.5897 8.274341009940578 3.4204350338459695 8.979786787517948 0 1 0
448 0 1 -1.1794 5.149594632484746 1.6018218142627836 9.170301450100238 0 1 0
608 0 2 0.5897 5.290038346814846 2.0823881952264305 12.948323414653663 1 1 0
772 0 1 -1.1794 8.207054424667978 2.9646128143912276 9.848196096925257 0 1 0
774 0 2 0.5897 7.861779640746439 2.069496517302012 9.620155833030067 0 1 0
21 0 2 0.5897 7.014707071177521 2.700331313177436 11.258393687384856 0 1 0
20 0 2 0.5897 7.5432534470128125 1.9749637967044738 12.508951512362158 0 1 0
19 0 1 -1.1794 6.836005119343844 2.5395621488838334 12.19718095840207 0 1 0
558 0 2 0.5897 6.729195209546605 4.09493219311282 13.08891749002322 1 1 0
372 0 2 0.5897 9.386052967997296 3.981158466469274 10.985309735480714 -1 0 0
459 0 2 0.5897 11.68528496816158 1.4749894156704442 10.155641737108752 -1 0 -1
457 0 1 -1.1794 11.820064484612448 2.4426707214185903 10.022540619090577 -1 0 -1
332 0 2 0.5897 13.377272161368776 3.126500453590089 10.328380515830963 0 0 1
458 0 2 0.5897 11.113611041389312 2.87600414285413 10.524465679078208 -1 0 -1
255 0 2 0.5897 11.640570843600969 4.061655544997354 12.416847701403782 0 0 0
253 0 1 -1.1794 12.406229811776443 3.949308179878533 12.992204309194026 0 0 0
370 0 1 -1.1794 10.23388878114 4.384612780555223 11.225755678066799 -1 0 0
333 0 2 0.5897 14.377520879306816 4.047605070933 9.634617700049965 0 0 1
612 0 2 0.5897 17.742724040973236 2.67857838115651 9.906334774621406 0 1 -1
856 0 1 -1.1794 15.179423446935653 0.9277007347524463 9.217224956795095 1 0 0
822 0 2 0.5897 14.108881801729925 1.1291149482705491 12.869314841533097 0 1 0
315 0 2 0.5897 16.37175110484148 3.7339795656643155 12.77994116971634 0 1 0
820 0 1 -1.1794 14.744239529930892 0.750722115913638 12.23669038308115 0 1 0
313 0 1 -1.1794 16.488888026193408 3.0959539363356288 12.066525047468136 0 1 0
821 0 2 0.5897 15.577085920765196 1.2268738270438195 12.403618277147629 0 1 0
314 0 2 0.5897 15.640838015423732 3.2879964113884226 11.677495426190506 0 1 0
858 0 2 0.5897 15.163101938397514 1.2119289328350846 10.112025420212374 1 0 0
331 0 1 -1.1794 14.237138279413037 3.5461803865680936 10.481325988308345 0 0 1
756 0 2 0.5897 17.61129265107224 4.453284824741293 10.926823522007048 -1 1 0
533 0 2 0.5897 3.573070988291281 4.644107106738889 10.573140124145628 0 0 0
194 0 2 0.5897 1.034325645314095 8.231142018538915 9.013941523127121 0 0 0
486 0 2 0.5897 1.8524280324951197 6.877888700073142 10.964974114812101 0 0 0