LAMMPS (29 Sep 2021 - Update 2)
  using 1 OpenMP thread(s) per MPI task
plugin load libdeepmd_lmp.so
Loading plugin: deepmd pair style v2.0 by Han Wang
Loading plugin: compute deeptensor/atom v2.0 by Han Wang
Loading plugin: fix dplr v2.0 by Han Wang
echo both

include		in.partitions
variable        pid world 0
include		in.temp
variable        temperature equal 250
variable        tempDamp equal 0.100
include		in.pressure
variable        pressure equal 1973.846
variable        pressureDamp equal 1.0 # This is 1 ps
include		in.seed
variable        seed world 745823

units           metal
atom_style	full
include		in.box
read_data       water.data
Reading data file ...
  orthogonal box = (0.0000000 0.0000000 0.0000000) to (18.207573 21.446115 22.213196)
  1 by 1 by 1 MPI processor grid
  reading atoms ...
  864 atoms
  reading velocities ...
  864 velocities
Finding 1-2 1-3 1-4 neighbors ...
  special bond factors lj:    0        0        0       
  special bond factors coul:  0        0        0       
     0 = max # of 1-2 neighbors
     0 = max # of 1-3 neighbors
     0 = max # of 1-4 neighbors
     1 = max # of special neighbors
  special bonds CPU = 0.000 seconds
  read_data CPU = 0.059 seconds
include 	in.setup
variable	out_freq equal 500
variable	out_freq2 equal 500

timestep        0.0005

neigh_modify    delay 7 every 1

include         in.deepmd
# This is deepMD model

# create groups ###
#group ox type 2
#group hy type 1

mass 2 15.999
mass 1 1.008

pair_style      deepmd ../graph.pb
pair_coeff      * *

bond_style      none
angle_style     none
dihedral_style  none
improper_style  none
neigh_modify exclude none


neighbor        2.0 bin
neigh_modify    every 10 delay 0 check no

thermo          ${out_freq}
thermo          500
thermo_style 	custom step temp pe etotal epair emol press lx ly lz xy xz yz vol pxx pyy pzz pxy pxz pyz cella cellb cellc cellalpha cellbeta cellgamma


restart 	${out_freq} restart.lmp.${pid} restart2.lmp.${pid}
restart 	500 restart.lmp.${pid} restart2.lmp.${pid}
restart 	500 restart.lmp.0 restart2.lmp.${pid}
restart 	500 restart.lmp.0 restart2.lmp.0


include         in.dump
dump            myDump all atom ${out_freq2} dump.water.${pid}
dump            myDump all atom 500 dump.water.${pid}
dump            myDump all atom 500 dump.water.0
dump            myDump2 all dcd ${out_freq2} dump.dcd
dump            myDump2 all dcd 500 dump.dcd
dump_modify     myDump append yes
dump_modify     myDump2 append yes


timer           timeout 23:50:00 every 1000
New timer settings: style=normal  mode=nosync  timeout=23:50:00

fix             2 all nph iso ${pressure} ${pressure} ${pressureDamp}
fix             2 all nph iso 1973.846 ${pressure} ${pressureDamp}
fix             2 all nph iso 1973.846 1973.846 ${pressureDamp}
fix             2 all nph iso 1973.846 1973.846 1
fix             3 all temp/csvr ${temperature} ${temperature} ${tempDamp} ${seed}
fix             3 all temp/csvr 250 ${temperature} ${tempDamp} ${seed}
fix             3 all temp/csvr 250 250 ${tempDamp} ${seed}
fix             3 all temp/csvr 250 250 0.1 ${seed}
fix             3 all temp/csvr 250 250 0.1 745823
velocity 	all create ${temperature} ${seed} dist gaussian
velocity 	all create 250 ${seed} dist gaussian
velocity 	all create 250 745823 dist gaussian

run             2000000

CITE-CITE-CITE-CITE-CITE-CITE-CITE-CITE-CITE-CITE-CITE-CITE-CITE

Your simulation uses code contributions which should be cited:

- USER-DEEPMD package:

@article{Wang_ComputPhysCommun_2018_v228_p178,
  author = {Wang, Han and Zhang, Linfeng and Han, Jiequn and E, Weinan},
  doi = {10.1016/j.cpc.2018.03.016},
  url = {https://doi.org/10.1016/j.cpc.2018.03.016},
  year = 2018,
  month = {jul},
  publisher = {Elsevier {BV}},
  volume = 228,
  journal = {Comput. Phys. Commun.},
  title = {{DeePMD-kit: A deep learning package for many-body potential energy representation and molecular dynamics}},
  pages = {178--184}
}

CITE-CITE-CITE-CITE-CITE-CITE-CITE-CITE-CITE-CITE-CITE-CITE-CITE

Neighbor list info ...
  update every 10 steps, delay 0 steps, check no
  max neighbors/atom: 2000, page size: 100000
  master list distance cutoff = 8
  ghost atom cutoff = 8
  binsize = 4, bins = 5 6 6
  1 neighbor lists, perpetual/occasional/extra = 1 0 0
  (1) pair deepmd, perpetual
      attributes: full, newton on
      pair build: full/bin
      stencil: full/bin/3d
      bin: standard
Per MPI rank memory allocation (min/avg/max) = 7.215 | 7.215 | 7.215 Mbytes
Step Temp PotEng TotEng E_pair E_mol Press Lx Ly Lz Xy Xz Yz Volume Pxx Pyy Pzz Pxy Pxz Pyz Cella Cellb Cellc CellAlpha CellBeta CellGamma 
       0          250    -134.9383   -107.05043    -134.9383            0    24425.263    18.207573    21.446115    22.213196            0            0            0    8673.8466    24307.224    25178.205    23790.359    1108.6926   -267.67561   -867.59355    18.207573    21.446115    22.213196           90           90           90 
     500    249.50336   -129.91473   -102.08226   -129.91473            0    120.85726    18.160036    21.390123    22.155201            0            0            0    8606.0858    3041.1292   -2353.0197   -325.53767    1503.1369   -1324.1598   -847.53148    18.160036    21.390123    22.155201           90           90           90 
    1000    251.12527   -128.10803   -100.09463   -128.10803            0    3897.4587    18.114391    21.336358    22.099514            0            0            0    8541.3544    3410.7563     3811.968    4469.6518   -1051.2336    1033.1655   -1664.7303    18.114391    21.336358    22.099514           90           90           90 
    1500     239.3658   -128.60151   -101.89989   -128.60151            0    2418.8673    18.106305    21.326835     22.08965            0            0            0    8529.9223    1649.1649    1140.5566    4466.8804   -597.89259    242.42906   -590.45312    18.106305    21.326835     22.08965           90           90           90 
    2000    256.54387   -128.27087   -99.653014   -128.27087            0    2655.7025    18.039753    21.248446    22.008457            0            0            0    8436.2094    126.72523    4473.7417    3366.6404   -249.00379     297.7947    1461.2152    18.039753    21.248446    22.008457           90           90           90 
    2500    267.69756   -128.67152   -98.809458   -128.67152            0     3360.617    17.988105    21.187611    21.945446            0            0            0    8363.9575    2302.3263    4252.1397    3527.3849    698.75999   -1152.3208   -1297.1292    17.988105    21.187611    21.945446           90           90           90 
    3000    250.76469   -126.16975   -98.196567   -126.16975            0    293.27257    17.972458     21.16918    21.926356            0            0            0    8342.1494    1393.7021   -1286.7398     772.8554    2137.9469    1165.6463   -486.43681    17.972458     21.16918    21.926356           90           90           90 
    3500     253.0893   -127.56078   -99.328292   -127.56078            0    1309.2991    17.890743    21.072931    21.826664            0            0            0    8228.8795    1539.2795    1749.0441     639.5737   -1059.8911    476.53054    1190.3405    17.890743    21.072931    21.826664           90           90           90 
    4000    246.71388   -127.03316    -99.51186   -127.03316            0    2696.5912     17.85256    21.027956    21.780081            0            0            0    8176.3044     3452.045    569.26094    4068.4676   -611.31276    1406.6251    1271.3988     17.85256    21.027956    21.780081           90           90           90 
    4500    245.78129   -127.53682   -100.11955   -127.53682            0    1294.4874    17.971045    21.167516    21.924632            0            0            0    8340.1822    1584.1043   -2052.7147    4352.0726    250.30648   -606.50778    127.32457    17.971045    21.167516    21.924632           90           90           90 
    5000    249.06355   -127.47392   -99.690509   -127.47392            0     1708.411    17.831095    21.002673    21.753893            0            0            0    8146.8473    3321.1352    540.73422    1263.3634    2002.8825    942.12441    1535.1372    17.831095    21.002673    21.753893           90           90           90 
    5500    237.86228   -128.02956   -101.49566   -128.02956            0    2148.0337    17.852929    21.028391    21.780531            0            0            0     8176.811    3151.6601     1889.559    1402.8821    -338.6588    740.39652    948.46699    17.852929    21.028391    21.780531           90           90           90 
    6000    254.09164   -128.33095   -99.986648   -128.33095            0    1949.6944    17.789135     20.95325    21.702702            0            0            0    8089.4693    5144.1759    1791.1616   -1086.2541    319.91799   -1069.3434   -100.39249    17.789135     20.95325    21.702702           90           90           90 
    6500    251.93123   -128.60039   -100.49708   -128.60039            0    970.52899    17.758535    20.917208    21.665371            0            0            0    8047.7963   -359.93639    681.89384    2589.6295    1679.1819     335.1042   -1262.1467    17.758535    20.917208    21.665371           90           90           90 
    7000    255.94392   -127.04041   -98.489477   -127.04041            0    3471.6562    17.749692    20.906792    21.654582            0            0            0      8035.78    6181.0565   -1235.3597    5469.2717    -863.5083    2736.2096   -1268.7213    17.749692    20.906792    21.654582           90           90           90 
    7500    253.19452   -126.84648   -98.602246   -126.84648            0    1065.6541    17.804538    20.971393    21.721495            0            0            0    8110.5014    2635.3301    180.73638    380.89583    295.94604    752.53294    489.29881    17.804538    20.971393    21.721495           90           90           90 
    8000    260.24176   -128.96475   -99.934387   -128.96475            0    1237.3546    17.755812       20.914    21.662048            0            0            0    8044.0942    83.728602    929.52324    2698.8118   -454.82168    1404.0705   -441.31305    17.755812       20.914    21.662048           90           90           90 
    8500    242.60566   -127.02778   -99.964751   -127.02778            0    1567.3414    17.668526    20.811189     21.55556            0            0            0    7926.0449      2926.28    1629.1547    146.58953    2015.1026    1741.8669    -170.5641    17.668526    20.811189     21.55556           90           90           90 
    9000    253.97141   -127.49736   -99.166466   -127.49736            0   -70.706104    17.831262     21.00287    21.754097            0            0            0    8147.0763   -2319.6652    997.06953    1110.4774    53.172659    -2511.607    163.92966    17.831262     21.00287    21.754097           90           90           90 
    9500    253.56622   -127.58218   -99.296484   -127.58218            0    3061.3495    17.827602    20.998559    21.749632            0            0            0     8142.061    3870.0544     1817.071     3496.923    496.69939    3177.0606    594.79703    17.827602    20.998559    21.749632           90           90           90 
   10000    259.49438   -128.32353   -99.376537   -128.32353            0    4299.1553    17.700403    20.848736     21.59445            0            0            0    7969.0225    7351.0044    4424.1264    1122.3352   -812.67793   -851.05751   -301.31372    17.700403    20.848736     21.59445           90           90           90 
   10500    253.03194   -125.30908   -97.082985   -125.30908            0   -724.84189    17.793098    20.957918    21.707537            0            0            0    8094.8772   -1704.0159   -3190.9181    2720.4084    1051.6214    1069.8484    924.31552    17.793098    20.957918    21.707537           90           90           90 
   11000    265.28781   -128.22184   -98.628582   -128.22184            0    3825.1399    17.758147     20.91675    21.664897            0            0            0    8047.2684    2723.2118    6681.9504    2070.2576    1502.0296   -2079.2532    2007.1137    17.758147     20.91675    21.664897           90           90           90 
   11500    254.38268   -128.17608   -99.799312   -128.17608            0    2322.3671    17.704847    20.853971    21.599872            0            0            0    7975.0263    3085.0694    3783.8595     98.17248    -2248.542    910.54519    270.37255    17.704847    20.853971    21.599872           90           90           90 
   12000    257.97997    -127.2896   -98.511551    -127.2896            0    4327.9013     17.75075    20.908038    21.655873            0            0            0    8037.2169    1381.7242    5821.8531    5780.1265    2422.9328   -1230.2243   -26.093672     17.75075    20.908038    21.655873           90           90           90 
   12500    262.62407   -127.85935   -98.563244   -127.85935            0    392.03357    17.866529     21.04441    21.797123            0            0            0    8195.5128    2436.5846   -947.44006   -313.04379    1055.1256    -45.27867    1327.0791    17.866529     21.04441    21.797123           90           90           90 
   13000    259.50634   -126.84337   -97.895047   -126.84337            0    2350.2978     17.79423    20.959251    21.708918            0            0            0    8096.4222    299.36081    2847.9788    3903.5539    815.46959   -1133.7674   -1958.1204     17.79423    20.959251    21.708918           90           90           90 
   13500    234.56952    -126.4135   -100.24692    -126.4135            0    3233.8434    17.745994    20.902436    21.650071            0            0            0    8030.7587    1226.4152    2096.4928     6378.622   -22.030119   -1167.7089   -1215.3019    17.745994    20.902436    21.650071           90           90           90 
   14000    250.86787   -128.06175   -100.07706   -128.06175            0   -670.71577    17.755666    20.913829    21.661871            0            0            0    8043.8967   -393.13818   -1028.6186   -590.39051   -679.44976   -336.46477    -728.0338    17.755666    20.913829    21.661871           90           90           90 
   14500    249.63011   -129.53197   -101.68536   -129.53197            0    3770.8241     17.78221    20.945093    21.694254            0            0            0    8080.0255    5131.2009    2463.2386    3718.0328   -1130.7137    2243.2087    1455.3446     17.78221    20.945093    21.694254           90           90           90 
   15000    258.92196   -128.81923   -99.936099   -128.81923            0    808.26018    17.789083    20.953189    21.702639            0            0            0    8089.3984    175.80164   -1268.9041     3517.883   -191.53047    270.09578    2115.1871    17.789083    20.953189    21.702639           90           90           90 
   15500    247.33284   -127.14539   -99.555042   -127.14539            0    494.16992    17.716035    20.867148    21.613521            0            0            0     7990.154    1795.6577   -1751.9971    1438.8491    597.91452   -767.49066    -1179.505    17.716035    20.867148    21.613521           90           90           90 
   16000     254.9598   -128.45901   -100.01786   -128.45901            0    2262.5748    17.741471    20.897109    21.644553            0            0            0    8024.6194   -657.34523    1868.1897    5576.8799    2926.7289    -2167.205   -78.283151    17.741471    20.897109    21.644553           90           90           90 
   16500    251.10752   -127.67146   -99.660039   -127.67146            0    635.55999    17.780375    20.942933    21.692016            0            0            0    8077.5256   -254.61387   -1043.2708    3204.5646   -706.52021   -2474.6072   -783.56287    17.780375    20.942933    21.692016           90           90           90 
   17000    257.21256   -128.53396   -99.841507   -128.53396            0    818.20281    17.795481    20.960726    21.710445            0            0            0    8098.1307    1010.6146    44.214518    1399.7793   -2082.3022   -1672.4758   -245.90581    17.795481    20.960726    21.710445           90           90           90 
   17500    251.79844    -127.3902   -99.301703    -127.3902            0    2990.6307    17.805625    20.972673     21.72282            0            0            0    8111.9863    4561.2454    3107.2733    1303.3733   -2733.9501    605.71438   -1942.2008    17.805625    20.972673     21.72282           90           90           90 
   18000    254.72874   -129.58397   -101.16859   -129.58397            0     -700.635    17.686181    20.831984    21.577099            0            0            0    7949.8284    683.47616    829.05779    -3614.439    733.61408    1707.8283    2793.5586    17.686181    20.831984    21.577099           90           90           90 
   18500    252.99828   -128.67568   -100.45334   -128.67568            0    3938.5373    17.723877    20.876385    21.623088            0            0            0    8000.7687    3969.2952    3346.5557    4499.7609   -2330.0283   -305.57356     2296.703    17.723877    20.876385    21.623088           90           90           90 
   19000     236.0685   -126.37798   -100.04418   -126.37798            0   -299.40487    17.785953    20.949503    21.698821            0            0            0    8085.1297   -236.17376    2420.4235   -3082.4643    311.23045    479.39651   -2369.5959    17.785953    20.949503    21.698821           90           90           90 
   19500    260.30595    -128.3758   -99.338278    -128.3758            0    4005.6578    17.637215    20.774309    21.517361            0            0            0    7883.9817    3624.6015    4580.1098    3812.2621   -739.28749   -855.92108   -102.89146    17.637215    20.774309    21.517361           90           90           90 
   20000    245.08643   -128.52915   -101.18939   -128.52915            0   -700.43335     17.72135    20.873409    21.620005            0            0            0    7997.3478    2305.8753   -423.14365   -3984.0316   -1963.1688   -1854.2047    2145.1356     17.72135    20.873409    21.620005           90           90           90 
   20500    245.76507   -128.07956    -100.6641   -128.07956            0    1789.4129    17.699873    20.848112    21.593804            0            0            0    7968.3065    1334.2533    3055.0686    978.91676    143.90525    1723.4792   -1459.0685    17.699873    20.848112    21.593804           90           90           90 
   21000    239.53554   -127.42294   -100.70239   -127.42294            0    1114.9636    17.649357     20.78861    21.532174            0            0            0    7900.2753    2984.1452    876.90223   -516.15678   -1893.1643    50.810611    2724.5281    17.649357     20.78861    21.532174           90           90           90 
   21500    247.38218   -130.15071   -102.55485   -130.15071            0   -924.47003    17.647522    20.786449    21.529935            0            0            0    7897.8111   -42.955805   -498.23692   -2232.2174    -1002.951     2596.598    1071.1064    17.647522    20.786449    21.529935           90           90           90 
   22000    241.40842   -128.10489   -101.17542   -128.10489            0    4907.6167    17.672957    20.816409    21.560966            0            0            0      7932.01     3352.306    4312.4515    7058.0926   -870.31483    238.91296    1639.3118    17.672957    20.816409    21.560966           90           90           90 
   22500    235.97407   -126.92336   -100.60009   -126.92336            0    1764.7226    17.646816    20.785617    21.529073            0            0            0    7896.8631     2829.682    2424.6969    39.788986   -562.45698    2223.8903   -2092.4571    17.646816    20.785617    21.529073           90           90           90 
   23000    245.74665   -128.52871    -101.1153   -128.52871            0    3121.5523    17.625553    20.760573    21.503133            0            0            0    7868.3531    1451.6468    3662.0319    4250.9783    2433.9976    2474.1932    1855.0549    17.625553    20.760573    21.503133           90           90           90 
   23500    255.00551   -128.22315   -99.776902   -128.22315            0    2831.2981    17.701271    20.849758    21.595509            0            0            0    7970.1946    3592.9208    2772.4991    2128.4744    -2787.036    1244.4095   -1434.6041    17.701271    20.849758    21.595509           90           90           90 
   24000     263.6861    -127.5977   -98.183119    -127.5977            0    491.54837    17.646396    20.785122    21.528561            0            0            0    7896.2993    1383.5757    1719.7188   -1628.6493    2336.2114   -1423.5284    2001.1509    17.646396    20.785122    21.528561           90           90           90 
   24500    252.23057   -127.51107    -99.37437   -127.51107            0     1986.673    17.695186    20.842591    21.588085            0            0            0    7961.9781    5646.9813    1479.6136   -1166.5759   -785.60262    1724.6142    1512.4944    17.695186    20.842591    21.588085           90           90           90 
   25000     252.8257   -126.57636   -98.373274   -126.57636            0   -2071.6879    17.726937    20.879989    21.626821            0            0            0    8004.9137     -855.496   -1466.0982   -3893.4695    1083.9667   -1291.8528   -518.04641    17.726937    20.879989    21.626821           90           90           90 
   25500    251.11517   -125.96798   -97.955701   -125.96798            0    5662.5457    17.657475    20.798173    21.542078            0            0            0    7911.1824    8370.3393    5032.6747    3584.6231   -672.43294    3031.8282    546.45418    17.657475    20.798173    21.542078           90           90           90 
   26000    252.77029   -126.18937   -97.992464   -126.18937            0     2462.619    17.673995    20.817631    21.562232            0            0            0    7933.4073     3649.294   -217.46467    3956.0277    3184.6519   -1236.9098   -194.78481    17.673995    20.817631    21.562232           90           90           90 
   26500    251.25427   -127.21984   -99.192045   -127.21984            0    3076.5567    17.663431    20.805188    21.549344            0            0            0    7919.1899   -479.11459    3860.2118    5848.5729    1305.2052    2220.9423   -578.33591    17.663431    20.805188    21.549344           90           90           90 
   27000    256.99337   -126.55914   -97.891147   -126.55914            0    205.56514    17.640474    20.778147    21.521336            0            0            0    7888.3522    2218.1608    36.614025   -1638.0795    2268.4232   -880.55624   -1451.4199    17.640474    20.778147    21.521336           90           90           90 
   27500    247.41054   -126.43648   -98.837466   -126.43648            0    2380.1035    17.617476    20.751059    21.493279            0            0            0    7857.5407   -293.70289    2319.1314    5114.8821    -1417.406    1384.8188   -3317.6809    17.617476    20.751059    21.493279           90           90           90 
   28000    248.22487   -127.80336    -100.1135   -127.80336            0    3640.4374    17.663231    20.804952      21.5491            0            0            0    7918.9213     4372.254    5304.7545    1244.3037   -79.689694   -264.09232    320.37368    17.663231    20.804952      21.5491           90           90           90 
   28500    253.40565   -126.90431   -98.636531   -126.90431            0    3854.8692     17.69499     20.84236    21.587846            0            0            0     7961.713    4068.4426    894.10116    6602.0638    936.56176    1930.4017   -2257.1946     17.69499     20.84236    21.587846           90           90           90 
   29000    244.89496   -126.53662   -99.218221   -126.53662            0    1784.7258    17.749001    20.905977    21.653739            0            0            0    8034.8409    2824.2957    2668.6504   -138.76884   -18.172936   -1989.5704    52.976005    17.749001    20.905977    21.653739           90           90           90 
   29500    261.09998   -126.85556   -97.729462   -126.85556            0    1814.0746     17.76447    20.924198    21.672611            0            0            0    8055.8676    682.44349    753.90631     4005.874    1457.2433    1080.5607     62.54855     17.76447    20.924198    21.672611           90           90           90 
   30000    261.98089   -125.19439   -95.970029   -125.19439            0    1765.3277     17.74944    20.906495    21.654275            0            0            0    8035.4376    5027.3614    1577.6845   -1309.0627    955.88652    2066.3038    313.74596     17.74944    20.906495    21.654275           90           90           90 
   30500    251.32456   -125.59208   -97.556449   -125.59208            0    421.64639    17.790448    20.954797    21.704305            0            0            0    8091.2614   -2430.3291    5038.9042   -1343.6359    511.57149   -99.793363    1225.9494    17.790448    20.954797    21.704305           90           90           90 
   31000     252.0336   -125.90926   -97.794535   -125.90926            0    4096.5074    17.748374    20.905239    21.652974            0            0            0    8033.9899    7736.3567    2827.6432    1725.5223   -2217.9642    4231.2018    1308.6545    17.748374    20.905239    21.652974           90           90           90 
   31500    253.11201   -126.80996   -98.574937   -126.80996            0    2746.9187    17.779655    20.942084    21.691137            0            0            0    8076.5431    3569.4823    2607.8964    2063.3773    2334.1459   -1285.1128    242.43509    17.779655    20.942084    21.691137           90           90           90 
   32000     250.5509   -127.46556   -99.516231   -127.46556            0    1736.9687    17.718885    20.870505    21.616997            0            0            0    7994.0103   -9.0484182    -115.4904     5335.445   -2313.2792   -2556.4842    1105.1603    17.718885    20.870505    21.616997           90           90           90 
   32500    257.32919   -128.76242   -100.05696   -128.76242            0    -75.51542    17.840525     21.01378    21.765398            0            0            0    8159.7795    2304.6478   -318.94136   -2212.2527    2565.4793   -1617.6383    106.00717    17.840525     21.01378    21.765398           90           90           90 
   33000    254.18362   -128.27588   -99.921314   -128.27588            0    803.35407    17.780722    20.943341    21.692438            0            0            0    8077.9976    2286.7236   -1286.9346    1410.2732   -1841.0478    1570.4404    1521.9455    17.780722    20.943341    21.692438           90           90           90 
   33500    254.80175   -128.30747   -99.883948   -128.30747            0    2483.5168    17.783046    20.946079    21.695274            0            0            0    8081.1662    3676.7643    2253.0751     1520.711   -2527.7963    2072.0971     2340.816    17.783046    20.946079    21.695274           90           90           90 
   34000    241.90785   -128.41533   -101.43014   -128.41533            0     3705.785    17.720119    20.871959    21.618504            0            0            0    7995.6813    2901.5281    6314.9369    1900.8899   -592.77805   -1953.0106   -207.02141    17.720119    20.871959    21.618504           90           90           90 
   34500    247.52813   -130.25646   -102.64432   -130.25646            0    1594.4873    17.693806    20.840966    21.586402            0            0            0    7960.1155    557.44711    3371.3128    854.70206   -2015.7579    921.72093   -1132.9497    17.693806    20.840966    21.586402           90           90           90 
   35000    252.28672   -131.30334   -103.16038   -131.30334            0    1083.4783    17.741388    20.897011    21.644452            0            0            0    8024.5069    1747.0838    4321.1759   -2817.8248   -689.56486    264.85928   -1642.6718    17.741388    20.897011    21.644452           90           90           90 
   35500    241.70083   -129.49605   -102.53396   -129.49605            0    1483.4389    17.724048    20.876586    21.623296            0            0            0    8001.0005      2255.06    2413.8125   -218.55591   -3465.9075   -2470.4587   -55.569244    17.724048    20.876586    21.623296           90           90           90 
   36000    241.08885   -129.15937   -102.26555   -129.15937            0    1947.0103    17.767311    20.927544    21.676077            0            0            0    8059.7331    3816.4195     4937.893   -2913.2816    412.05462    470.03236    861.29262    17.767311    20.927544    21.676077           90           90           90 
   36500    257.25054   -129.82973   -101.13304   -129.82973            0    4022.0085    17.693513     20.84062    21.586044            0            0            0    7959.7195    4984.8019    4104.5515    2976.6721   -2445.2598   -286.54301   -1096.9333    17.693513     20.84062    21.586044           90           90           90 
   37000    247.00532    -128.6378   -101.08398    -128.6378            0    2011.7409    17.740597    20.896079    21.643486            0            0            0    8023.4335    311.73645    1050.8874    4672.5988   -356.61395   -271.46503    1623.8693    17.740597    20.896079    21.643486           90           90           90 
   37500    243.43868   -128.14914   -100.99319   -128.14914            0    294.50554    17.685116    20.830729    21.575799            0            0            0    7948.3921    883.00865   -797.54388    798.05187    1375.3027    1848.1823   -1698.5434    17.685116    20.830729    21.575799           90           90           90 
   38000    245.47631   -127.70979   -100.32653   -127.70979            0    2654.3847    17.744279    20.900416    21.647979            0            0            0    8028.4307    2727.6123    1168.7564    4066.7854    553.32194    76.549879    81.134518    17.744279    20.900416    21.647979           90           90           90 
   38500    249.70288   -128.21547   -100.36074   -128.21547            0    3447.3198    17.747209    20.903867    21.651553            0            0            0    8032.4084     2106.432    500.82218    7734.7051    2572.5541   -830.27882    -596.2984    17.747209    20.903867    21.651553           90           90           90 
   39000     255.4543   -129.91289   -101.41658   -129.91289            0    4564.6239    17.719102    20.870761    21.617263            0            0            0    7994.3049    5554.0626    5500.1106    2639.6986   -642.89493    1096.7963    142.56874    17.719102    20.870761    21.617263           90           90           90 
   39500    249.12077    -128.8631    -101.0733    -128.8631            0   -138.29143    17.693798    20.840956    21.586392            0            0            0    7960.1045    287.76022    2091.9306   -2794.5651    546.64933    581.60278    1318.4941    17.693798    20.840956    21.586392           90           90           90 
   40000    256.15616   -130.35946   -101.78485   -130.35946            0    2213.5674    17.587085    20.715262    21.456202            0            0            0    7816.9468   -417.19601    1417.7742    5640.1241   -2329.6474    1654.9811   -678.61196    17.587085    20.715262    21.456202           90           90           90 
   40500     238.1414   -128.59091   -102.02588   -128.59091            0    4895.3669    17.644731    20.783162    21.526531            0            0            0    7894.0652    6311.9264    8237.8518    136.32249    2293.0685   -166.00717     2309.693    17.644731    20.783162    21.526531           90           90           90 
   41000    245.07169   -128.06049   -100.72237   -128.06049            0     102.8689    17.716046    20.867161    21.613534            0            0            0    7990.1688    2569.2464   -2562.4682    301.82842    722.95222    1214.3544    1961.8439    17.716046    20.867161    21.613534           90           90           90 
   41500    253.32355   -129.29241   -101.03379   -129.29241            0     2133.147    17.658812    20.799747    21.543709            0            0            0    7912.9785    1553.2599    1005.4899    3840.6912   -457.51919    2532.7699   -2089.0034    17.658812    20.799747    21.543709           90           90           90 
   42000    239.51006   -127.29559   -100.57788   -127.29559            0    1375.9058    17.778883    20.941175    21.690196            0            0            0     8075.492    58.307701    988.77527    3080.6345   -338.95522    1213.1957    1959.9728    17.778883    20.941175    21.690196           90           90           90 
   42500    248.11766   -127.65219   -99.974295   -127.65219            0    922.73714    17.709879    20.859897    21.606011            0            0            0    7981.8278    1534.8199    379.04925    854.34222    4372.0911    1176.6123   -1798.6828    17.709879    20.859897    21.606011           90           90           90 
   43000    255.80341    -128.0782   -99.542947    -128.0782            0    543.16748    17.711282     20.86155    21.607722            0            0            0    7983.7245    149.53976    280.51411    1199.4486    1378.6713   -1882.3077    76.929445    17.711282     20.86155    21.607722           90           90           90 
   43500    251.25606   -128.90687   -100.87888   -128.90687            0    4674.7125    17.713016    20.863592    21.609838            0            0            0    7986.0699    6856.7702      3634.92    3532.4471   -398.21709   -35.862868    725.59524    17.713016    20.863592    21.609838           90           90           90 
   44000    251.66222   -127.90319   -99.829894   -127.90319            0    567.20311    17.701913    20.850514    21.596292            0            0            0    7971.0618    213.39006   -1843.3043    3331.5235    1504.7714   -334.07082    2267.6141    17.701913    20.850514    21.596292           90           90           90 
   44500    250.10953   -127.53389   -99.633799   -127.53389            0    2299.5269    17.656895    20.797489    21.541371            0            0            0    7910.4026    2174.0118    2017.7238    2706.8451    1323.9102   -82.251642    674.93788    17.656895    20.797489    21.541371           90           90           90 
   45000    238.57939   -128.52387   -101.90998   -128.52387            0     5012.829    17.742165    20.897926      21.6454            0            0            0    8025.5617    7125.4337    2778.5769    5134.4764    2204.8432    401.32712   -57.832757    17.742165    20.897926      21.6454           90           90           90 
   45500    234.68998    -128.0856   -101.90558    -128.0856            0    2041.8443    17.815878     20.98475    21.735329            0            0            0    8126.0082     3911.676   -447.41339    2661.2702   -818.94201    165.62186   -84.067695    17.815878     20.98475    21.735329           90           90           90 
   46000    250.43714   -129.08406   -101.14742   -129.08406            0    1367.3746    17.718004    20.869468    21.615924            0            0            0     7992.819   -478.84394    4076.6208    504.34688   -1069.2281    340.62541   -455.52783    17.718004    20.869468    21.615924           90           90           90 
   46500     243.2108   -128.02638   -100.89585   -128.02638            0    2200.0195    17.711445    20.861742    21.607921            0            0            0    7983.9452    264.55213    2439.6677    3895.8387    995.89004   -1969.8888    2843.4016    17.711445    20.861742    21.607921           90           90           90 
   47000    251.78091   -128.24898   -100.16244   -128.24898            0    1581.0416    17.676473    20.820549    21.565255            0            0            0    7936.7445    3755.9446    842.67366    144.50645    3047.2374   -957.95077    709.61195    17.676473    20.820549    21.565255           90           90           90 
   47500    247.56119   -127.20958   -99.593753   -127.20958            0    4180.1299     17.68686    20.832784    21.577927            0            0            0     7950.744    4114.2825     4890.069    3536.0383    1254.2588    2264.8723    -639.6654     17.68686    20.832784    21.577927           90           90           90 
   48000    253.29069   -127.90948   -99.654518   -127.90948            0    1728.1961      17.7904    20.954741    21.704246            0            0            0    8091.1958    2832.6203   -1369.1452    3721.1132    1403.5544    589.50031    37.346089      17.7904    20.954741    21.704246           90           90           90 
   48500    253.49871   -129.42458   -101.14642   -129.42458            0    2687.9896    17.780654    20.943261    21.692356            0            0            0    8077.9058     1845.928    3447.5471    2770.4937    2776.5993    -3280.649    168.64714    17.780654    20.943261    21.692356           90           90           90 
   49000    250.20709   -127.09274   -99.181762   -127.09274            0   -76.384048    17.758628    20.917317    21.665484            0            0            0     8047.922    664.64756   -1051.3451    157.54539   -1120.2429    409.98874   -188.26018    17.758628    20.917317    21.665484           90           90           90 
   49500    261.10952   -125.48236     -96.3552   -125.48236            0     747.5681     17.79987    20.965894    21.715799            0            0            0    8104.1232   -1813.2106    1713.9568    2341.9581    1148.4886    540.62531    2186.5044     17.79987    20.965894    21.715799           90           90           90 
   50000    244.56945   -125.74789   -98.465798   -125.74789            0    585.62129    17.771536    20.932521    21.681232            0            0            0    8065.4844    606.55018   -2691.4559    3841.7696    1018.4669    525.02619    607.62229    17.771536    20.932521    21.681232           90           90           90 
   50500     242.3453   -127.15714   -100.12316   -127.15714            0    2702.1948    17.730726    20.884452    21.631444            0            0            0    8010.0479    498.90527    3589.8505    4017.8288   -83.891328    1303.0788    1344.6211    17.730726    20.884452    21.631444           90           90           90 
   51000    251.51401   -126.99482   -98.938058   -126.99482            0    4995.7717    17.666756    20.809104    21.553401            0            0            0     7923.663       7467.5    3403.0242     4116.791    1560.4309    -1241.059    1736.6512    17.666756    20.809104    21.553401           90           90           90 
   51500    247.46576   -127.93393   -100.32876   -127.93393            0    181.58381    17.684784    20.830338    21.575394            0            0            0    7947.9441   -650.51396    894.29431    300.97106   -1096.4823      1568.12    79.334226    17.684784    20.830338    21.575394           90           90           90 
   52000    237.88082   -128.21181   -101.67584   -128.21181            0   -377.73118    17.719259    20.870946    21.617454            0            0            0    7994.5171   -1538.9928   -1220.9884    1626.7877    872.97352   -365.82008   -231.27813    17.719259    20.870946    21.617454           90           90           90 
   52500    259.95913   -128.34331   -99.344476   -128.34331            0     3436.062    17.681003    20.825885    21.570782            0            0            0    7942.8477   -1121.6567     4249.999    7179.8437   -245.46655    2866.8441   -848.55072    17.681003    20.825885    21.570782           90           90           90 
   53000    259.05534   -130.13668   -101.23866   -130.13668            0   -2692.5842    17.721438    20.873512    21.620112            0            0            0    7997.4661    -3053.061   -3945.8172   -1078.8743   -1466.6452   -1864.5675    1225.6987    17.721438    20.873512    21.620112           90           90           90 
   53500    256.21661   -130.10012   -101.51877   -130.10012            0    3108.1898    17.641286    20.779104    21.522327            0            0            0     7889.442    1240.1865    4371.4104    3712.9726    271.13277    58.750624    222.49588    17.641286    20.779104    21.522327           90           90           90 
   54000     254.6288   -128.45518   -100.05095   -128.45518            0    1240.3167    17.714615    20.865476    21.611789            0            0            0    7988.2335    311.34845    324.96842    3084.6332    2309.7568   -4169.6937    -524.3924    17.714615    20.865476    21.611789           90           90           90 
   54500    240.56629   -129.87193    -103.0364   -129.87193            0    1585.5794    17.712378    20.862841    21.609059            0            0            0    7985.2069    1100.3486   -176.49702    3832.8868    203.48017    985.05378   -1499.4996    17.712378    20.862841    21.609059           90           90           90 
   55000    247.27851   -129.57185   -101.98756   -129.57185            0     1233.095     17.81892    20.988333     21.73904            0            0            0    8130.1714   -364.06291   -708.31814    4771.6661    -1754.593   -45.667101    368.32197     17.81892    20.988333     21.73904           90           90           90 
   55500    248.93463   -130.39672   -102.62769   -130.39672            0    2666.0232    17.720751    20.872703    21.619275            0            0            0    7996.5369    4424.4613    1277.4323    2296.1759    449.69905    -1915.043   -1135.5361    17.720751    20.872703    21.619275           90           90           90 
   56000    251.02769   -128.33914   -100.33663   -128.33914            0    712.71294    17.717959    20.869414    21.615868            0            0            0    7992.7569    183.43677   -187.50648    2142.2085    2610.1435    2359.8629   -736.91015    17.717959    20.869414    21.615868           90           90           90 
   56500    256.71845   -128.48523   -99.847903   -128.48523            0    1891.5523    17.623142    20.757733    21.500192            0            0            0    7865.1247    1675.2447     1976.812    2022.6001   -1427.4108   -1983.1322    1164.8122    17.623142    20.757733    21.500192           90           90           90 
   57000    251.55476   -129.07254   -101.01123   -129.07254            0    1490.0172    17.677278    20.821498    21.566237            0            0            0     7937.829    1694.1908    36.890211    2738.9706   -1913.1625    1491.2769       539.53    17.677278    20.821498    21.566237           90           90           90 
   57500    259.48949   -130.00616   -101.05972   -130.00616            0    1598.8358    17.754585    20.912555    21.660552            0            0            0     8042.427    2510.1807    4544.2608   -2257.9341    505.57134    745.59847   -1820.9182    17.754585    20.912555    21.660552           90           90           90 
   58000    244.57203   -128.05502   -100.77264   -128.05502            0    2062.2196    17.693442    20.840537    21.585957            0            0            0    7959.6238    3204.0778    -467.3605    3449.9415   -1327.7993    152.51865   -311.99757    17.693442    20.840537    21.585957           90           90           90 
   58500    246.55166   -129.81446   -102.31126   -129.81446            0     2100.074    17.765736    20.925689    21.674156            0            0            0    8057.5897    671.14942    4910.7869    718.28568     1489.612    987.02624    627.05678    17.765736    20.925689    21.674156           90           90           90 
   59000     244.3819   -128.22024   -100.95908   -128.22024            0     418.5295    17.734069     20.88839    21.635522            0            0            0    8014.5795    860.85292    542.63239   -147.89683   -1341.5701     3329.687   -1047.3888    17.734069     20.88839    21.635522           90           90           90 
   59500    258.53102    -130.5713   -101.73178    -130.5713            0    736.67305    17.697114    20.844862    21.590437            0            0            0    7964.5805    3698.9237   -687.35478   -801.54978   -629.60156   -906.28188    1496.2553    17.697114    20.844862    21.590437           90           90           90 
   60000      243.765   -129.72612   -102.53377   -129.72612            0    1237.4982    17.776723    20.938631     21.68756            0            0            0     8072.549    2994.5594   -895.17192     1613.107   -3594.7846   -60.537875   -513.67419    17.776723    20.938631     21.68756           90           90           90 
   60500     241.2596   -129.15887     -102.246   -129.15887            0    1499.4975     17.74866    20.905576    21.653323            0            0            0    8034.3781    398.86222    1250.0218    2849.6085    987.22553   -2628.0146    1950.1625     17.74866    20.905576    21.653323           90           90           90 
   61000    250.63741   -129.48806   -101.52908   -129.48806            0    3769.9454    17.661364    20.802753    21.546822            0            0            0    7916.4098    5272.7036    3395.3206    2641.8121   -601.40622   -558.52711    357.16793    17.661364    20.802753    21.546822           90           90           90 
   61500    256.72368   -130.11905   -101.48114   -130.11905            0   -140.00918    17.812016    20.980201    21.730617            0            0            0    8120.7242    933.39416   -2392.4771    1039.0554    166.15348   -443.16814    1556.3544    17.812016    20.980201    21.730617           90           90           90 
   62000    254.33859   -128.96987   -100.59802   -128.96987            0     2366.974    17.763596    20.923168    21.671545            0            0            0    8054.6781    2105.0669    1805.0275    3190.8277   -1951.9177    891.99702   -2168.9761    17.763596    20.923168    21.671545           90           90           90 
   62500    248.60455   -128.43205   -100.69984   -128.43205            0    3318.0109    17.768688    20.929167    21.677758            0            0            0    8061.6078    2370.9507    3402.9725    4180.1095   -382.83168   -749.65711   -87.955668    17.768688    20.929167    21.677758           90           90           90 
   63000     271.6851   -129.26934    -98.96246   -129.26934            0    1124.8058    17.767594    20.927877    21.676422            0            0            0     8060.118    1559.3777     3102.556   -1287.5164   -1152.2994   -1413.4934   -677.58498    17.767594    20.927877    21.676422           90           90           90 
   63500    243.95088   -129.79336   -102.58027   -129.79336            0    1541.4731    17.877895    21.057798    21.810989            0            0            0    8211.1633   -1082.8952    2515.4529    3191.8615    1511.9827    1058.3586    199.90249    17.877895    21.057798    21.810989           90           90           90 
   64000    247.32756   -128.40697   -100.81721   -128.40697            0    1781.7087    17.816286     20.98523    21.735827            0            0            0    8126.5662    3564.9149   -446.86261     2227.074   -1635.3423   -447.19824   -8.3304216    17.816286     20.98523    21.735827           90           90           90 
   64500    258.22517   -130.15481   -101.34941   -130.15481            0    3528.5398    17.667589    20.810085    21.554417            0            0            0    7924.7836     3210.166    4493.0853     2882.368    2189.0211   -1181.7665    250.16742    17.667589    20.810085    21.554417           90           90           90 
   65000    239.57986     -130.126   -103.40051     -130.126            0   -464.29599    17.798125    20.963839     21.71367            0            0            0      8101.74    628.78265   -2404.1406    382.46997   -530.48708   -791.09278    690.73671    17.798125    20.963839     21.71367           90           90           90 
   65500    255.64169   -130.71199   -102.19477   -130.71199            0    2488.7648    17.781295    20.944016    21.693138            0            0            0    8078.7786     942.3819     3788.689    2735.2235   -1365.7352    3545.8072    -935.2815    17.781295    20.944016    21.693138           90           90           90 
   66000    253.70609   -128.17006   -99.868763   -128.17006            0     2491.587    17.748256      20.9051    21.652831            0            0            0    8033.8297    3465.0595    145.68455    3864.0168    437.45323   -738.67626   -2343.0512    17.748256      20.9051    21.652831           90           90           90 
   66500    248.07146   -128.52553   -100.85279   -128.52553            0    1561.7345    17.720991    20.872986    21.619567            0            0            0    7996.8618    -439.5902    715.85483    4408.9387   -389.01817    1277.2023    552.78307    17.720991    20.872986    21.619567           90           90           90 
   67000     242.3124   -128.95128   -101.92097   -128.95128            0    902.21091     17.72849    20.881818    21.628716            0            0            0    8007.0178    283.03704    246.84001    2176.7557   -3424.6502    635.20745    63.900018     17.72849    20.881818    21.628716           90           90           90 
   67500    250.91545   -130.02378   -102.03379   -130.02378            0    694.12385    17.831226    21.002828    21.754054            0            0            0    8147.0273   -806.42945     2289.076    599.72504   -818.71196   -638.00201    1907.3867    17.831226    21.002828    21.754054           90           90           90 
   68000    243.75242   -129.79023   -102.59928   -129.79023            0    2359.1229    17.768373    20.928795    21.677373            0            0            0    8061.1781    -1112.115      2956.53    5232.9536   -95.411624    2727.0164   -1078.9227    17.768373    20.928795    21.677373           90           90           90 
   68500    247.45976   -129.14986   -101.54535   -129.14986            0    2184.2022     17.69677    20.844456    21.590017            0            0            0    7964.1155    2045.5654    1664.8867    2842.1545   -647.57949    1642.9443    501.62353     17.69677    20.844456    21.590017           90           90           90 
   69000    239.97088   -130.03895   -103.26984   -130.03895            0    3660.8621    17.800591    20.966743    21.716678            0            0            0    8105.1078    5434.4525    1713.8367    3834.2971   -2551.8466    483.41058   -2138.5186    17.800591    20.966743    21.716678           90           90           90 
   69500     246.5637   -131.11287   -103.60832   -131.11287            0    1531.3457    17.745562    20.901927    21.649543            0            0            0    8030.1712    1385.7731    3081.2043    127.05962    1895.9322    821.61077   -1822.9514    17.745562    20.901927    21.649543           90           90           90 
   70000    245.67887   -130.38886   -102.98301   -130.38886            0    3725.7739    17.769378    20.929979    21.678599            0            0            0     8062.546    2247.1146    2348.7553    6581.4518    387.08959    307.85797    215.16167    17.769378    20.929979    21.678599           90           90           90 
   70500    242.81768   -130.09975   -103.01307   -130.09975            0    721.43353    17.777311    20.939323    21.688277            0            0            0    8073.3496   -711.60233    619.16141    2256.7415   -1230.8439    338.68061   -240.00741    17.777311    20.939323    21.688277           90           90           90 
   71000    250.79304   -130.95053   -102.97419   -130.95053            0    2110.2969    17.752273    20.909832    21.657731            0            0            0    8039.2861    1774.7054    1720.5422     2835.643   -1395.2209   -247.61513    977.29616    17.752273    20.909832    21.657731           90           90           90 
   71500    247.51977   -130.27205   -102.66085   -130.27205            0    4259.8007    17.800965    20.967184    21.717135            0            0            0     8105.619    4465.6269    3968.2829    4345.4924       1600.9    3245.8203    419.83076    17.800965    20.967184    21.717135           90           90           90 
   72000    268.24552   -129.66745   -99.744257   -129.66745            0    3472.2797    17.780727    20.943347    21.692445            0            0            0    8078.0051    3221.8572    4800.0708    2394.9111    268.98624    1237.1077    2080.5991    17.780727    20.943347    21.692445           90           90           90 
   72500    252.29397    -129.5492   -101.40543    -129.5492            0    2931.9601    17.808753    20.976358    21.726637            0            0            0    8116.2629    2799.2985    1864.7913    4131.7905    1841.5837    1205.5662   -2684.4647    17.808753    20.976358    21.726637           90           90           90 
   73000    249.04398   -129.96962   -102.18839   -129.96962            0    806.15625    17.765842    20.925814    21.674285            0            0            0    8057.7345   -306.48672    2925.8643   -200.90887   -3710.1944   -908.31793    696.97114    17.765842    20.925814    21.674285           90           90           90 
   73500    250.55982   -129.52007   -101.56974   -129.52007            0    3110.4909    17.686866    20.832791    21.577935            0            0            0    7950.7521    5701.0922    1730.4931    1899.8874    993.24007    1729.3178    838.69985    17.686866    20.832791    21.577935           90           90           90 
   74000    250.12012   -130.20726   -102.30599   -130.20726            0    1316.5388    17.809866    20.977669    21.727995            0            0            0     8117.785    3051.7842   -1086.6815    1984.5138   -2222.1055    2254.6055      1453.33    17.809866    20.977669    21.727995           90           90           90 
   74500    247.23963   -129.00091   -101.42096   -129.00091            0     4402.455     17.75648    20.914787    21.662864            0            0            0    8045.0026    4304.5682    4623.2646    4279.5323   -2020.2503    -972.4947   -4269.6328     17.75648    20.914787    21.662864           90           90           90 
   75000    241.72019   -128.63771   -101.67346   -128.63771            0   -1063.8439    17.811771    20.979913    21.730319            0            0            0    8120.3903   -3211.8888    3656.6967   -3636.3397    1863.7179   -76.676792    187.39373    17.811771    20.979913    21.730319           90           90           90 
   75500    245.02986   -130.04705    -102.7136   -130.04705            0    1389.4807    17.725019    20.877731    21.624482            0            0            0    8002.3162    2316.7331     1000.756    850.95308   -106.11238    1625.7302   -670.05309    17.725019    20.877731    21.624482           90           90           90 
   76000    251.38121   -129.76752   -101.72557   -129.76752            0    5248.3616    17.753436    20.911201    21.659149            0            0            0    8040.8653    5045.8895    7270.6478    3428.5474    2006.5682    977.66878   -1426.9382    17.753436    20.911201    21.659149           90           90           90 
   76500    238.30087   -132.13956   -105.55674   -132.13956            0    35.201168    17.803876    20.970614    21.720687            0            0            0    8109.5969    68.789778    874.53921   -837.72548    1253.4992    1297.4936   -205.59134    17.803876    20.970614    21.720687           90           90           90 
   77000    230.95464   -130.16118   -104.39785   -130.16118            0    5344.1491    17.740948    20.896493    21.643915            0            0            0    8023.9097    5779.7227    4870.2036     5382.521    1182.8518   -292.44255   -891.77966    17.740948    20.896493    21.643915           90           90           90 
   77500    247.38303   -129.92276   -102.32681   -129.92276            0    2009.8067    17.740934    20.896475    21.643897            0            0            0      8023.89    1158.7754    4265.9734    604.67133    643.22908    490.97395     373.2539    17.740934    20.896475    21.643897           90           90           90 
   78000    257.55243   -128.95389   -100.22352   -128.95389            0    4433.6329    17.751712    20.909171    21.657046            0            0            0    8038.5234    3086.2504    4783.3117    5431.3367   -1137.0375    1885.8048    1467.7868    17.751712    20.909171    21.657046           90           90           90 
   78500    245.70865   -131.26647    -103.8573   -131.26647            0    4.1895706    17.795296    20.960507    21.710219            0            0            0    8097.8773   -464.78116    2044.9511   -1567.6012    1071.8909    1891.1404     775.4071    17.795296    20.960507    21.710219           90           90           90 
   79000    248.92115    -131.7159   -103.94837    -131.7159            0    1481.2955    17.789042    20.953141    21.702589            0            0            0    8089.3427    1737.2386    370.18338    2336.4645   -2127.4036    1819.3733    1545.8144    17.789042    20.953141    21.702589           90           90           90 
   79500    257.44864   -130.03257   -101.31378   -130.03257            0    1827.2265    17.744298    20.900438    21.648001            0            0            0    8028.4555    797.81633    5108.1106   -424.24742   -972.70114   -1261.7828   -891.23351    17.744298    20.900438    21.648001           90           90           90 
   80000    254.06025   -129.74776   -101.40696   -129.74776            0    2080.8477     17.80577    20.972844    21.722997            0            0            0    8112.1847    1005.2962    2080.1211    3157.1258    719.86692    -2522.838    2139.2162     17.80577    20.972844    21.722997           90           90           90 
   80500     250.3339    -130.0014   -102.07628    -130.0014            0    1020.7726    17.801905    20.968292    21.718282            0            0            0    8106.9038     2822.403   -2770.4415    3010.3561   -1404.4843    868.35708   -1133.2859    17.801905    20.968292    21.718282           90           90           90 
   81000     252.3522   -130.94651   -102.79625   -130.94651            0    931.22581    17.761915    20.921189    21.669495            0            0            0    8052.3929   -81.953803    1495.0524    1380.5788   -2184.9476    1791.7597   -1003.9987    17.761915    20.921189    21.669495           90           90           90 
   81500    232.94673   -129.30814   -103.32259   -129.30814            0    296.90472    17.872597    21.051558    21.804527            0            0            0    8203.8663    -1444.251    2466.8369   -131.87168    1208.0907   -1842.7982   -635.16902    17.872597    21.051558    21.804527           90           90           90 
   82000    243.42359   -131.23066   -104.07639   -131.23066            0    3788.9159    17.810457    20.978365    21.728716            0            0            0    8118.5931   -290.93116     4085.383    7572.2959   -1448.5833    1919.4872    523.58305    17.810457    20.978365    21.728716           90           90           90 
   82500    256.00994   -129.33975   -100.78145   -129.33975            0     203.7422    17.805023    20.971964    21.722086            0            0            0    8111.1637    -1019.076    2958.2324   -1327.9298   -469.25119   -397.97054    2990.8725    17.805023    20.971964    21.722086           90           90           90 
   83000    257.58118   -130.22947    -101.4959   -130.22947            0    5174.0148    17.766747     20.92688    21.675389            0            0            0    8058.9656     5611.604    4833.5473    5076.8931   -2248.5035   -997.96859    1803.4442    17.766747     20.92688    21.675389           90           90           90 
   83500    241.91653    -129.0568   -102.07065    -129.0568            0   -271.12743    17.801509    20.967826    21.717799            0            0            0     8106.363    619.60706   -1146.4402    -286.5492   -1197.5151   -1325.0374     1758.004    17.801509    20.967826    21.717799           90           90           90 
   84000    264.74888   -130.10661   -100.57348   -130.10661            0    6237.1721    17.738263    20.893329    21.640638            0            0            0    8020.2664     4639.691    6910.6374    7161.1879   -775.72637    1573.6329    1501.6441    17.738263    20.893329    21.640638           90           90           90 
   84500    249.74165   -129.26315   -101.40409   -129.26315            0    4892.2336    17.827392    20.998313    21.749377            0            0            0    8141.7738    4935.0124    6691.6789    3050.0095   -1601.4078   -126.42336    455.48175    17.827392    20.998313    21.749377           90           90           90 
   85000    252.73371   -130.50056   -102.30773   -130.50056            0    1431.2402    17.752851    20.910513    21.658436            0            0            0    8040.0711     1550.804    1964.2619    778.65483    1528.0791   -350.36095    139.35665    17.752851    20.910513    21.658436           90           90           90 
   85500    256.54848   -129.88677    -101.2684   -129.88677            0    6557.8877    17.649082    20.788287    21.531839            0            0            0    7899.9066    2863.8811    10322.169     6487.613    996.61845    2487.3806    2505.7808    17.649082    20.788287    21.531839           90           90           90 
   86000    244.88012   -129.38088   -102.06413   -129.38088            0    1078.0526    17.893389    21.076048    21.829893            0            0            0    8232.5315   -93.592594     2773.018    554.73256   -1478.8967    3386.5597    1418.6207    17.893389    21.076048    21.829893           90           90           90 
   86500    252.68187   -130.87767   -102.69063   -130.87767            0      1125.59    17.720244    20.872106    21.618656            0            0            0    7995.8502   -643.81631    1814.2143    2206.3721   -6.6012013   -282.01925    -1597.139    17.720244    20.872106    21.618656           90           90           90 
   87000    240.85413   -131.25106   -104.38342   -131.25106            0    3256.1005    17.693659    20.840793    21.586223            0            0            0    7959.9172    4018.4941    3477.3003    2272.5071   -1389.5844    870.76791    323.25754    17.693659    20.840793    21.586223           90           90           90 
   87500    238.28179   -129.43026   -102.84957   -129.43026            0    2315.6148    17.691139    20.837824    21.583148            0            0            0    7956.5163    1453.7568    2741.0415    2752.0462    2111.6581    179.92181    3063.4836    17.691139    20.837824    21.583148           90           90           90 
   88000    242.89857   -129.50088   -102.40518   -129.50088            0    2531.5602    17.671657    20.814877     21.55938            0            0            0     7930.259    2427.7846    2602.4699    2564.4262     111.4937     918.8321   -1686.9616    17.671657    20.814877     21.55938           90           90           90 
   88500    255.18885   -131.02484   -102.55814   -131.02484            0    1093.0609    17.575283    20.701361    21.441804            0            0            0    7801.2201    1640.5663    3395.0418   -1756.4253   -380.17023   -1023.3397    931.10535    17.575283    20.701361    21.441804           90           90           90 
   89000    238.32088   -131.77312   -105.18806   -131.77312            0    791.23576    17.625343    20.760325    21.502877            0            0            0    7868.0717    420.77427    1506.9872    445.94576   -1861.5547    2992.9981    726.77234    17.625343    20.760325    21.502877           90           90           90 
   89500    238.16903   -131.51716   -104.94905   -131.51716            0    3887.9452     17.58007    20.706999    21.447643            0            0            0    7807.5958    5682.6601    1612.7882    4368.3873   -1662.9998    671.32486    1394.9452     17.58007    20.706999    21.447643           90           90           90 
   90000     237.1349   -132.01113   -105.55837   -132.01113            0   -629.24979    17.621865    20.756228    21.498634            0            0            0    7863.4146    2022.7142   -1288.8224   -2621.6412   -1585.2199   -1029.1783    556.76112    17.621865    20.756228    21.498634           90           90           90 
   90500    250.75939   -131.27278    -103.3002   -131.27278            0    1981.4332    17.668078    20.810662    21.555014            0            0            0    7925.4423    2703.7362    2041.2795    1199.2837   -1828.7515    672.92093    1315.9461    17.668078    20.810662    21.555014           90           90           90 
   91000    252.55934    -131.3412   -103.16783    -131.3412            0   -297.04479    17.688168    20.834324    21.579523            0            0            0    7952.5079    1964.4897   -24.103386   -2831.5207   -198.47103   -53.100688    1196.8697    17.688168    20.834324    21.579523           90           90           90 
   91500    238.42494   -131.77573   -105.17907   -131.77573            0    1362.6356    17.548677    20.670023    21.409344            0            0            0    7765.8446    784.22562    1615.0951    1688.5862   -2127.9544    1671.5295    377.54757    17.548677    20.670023    21.409344           90           90           90 
   92000    240.13107   -130.59136   -103.80438   -130.59136            0    5059.1003    17.557929    20.680921    21.420632            0            0            0    7778.1344    5579.6559    4925.0302    4672.6149   -65.086847    159.80232   -964.77509    17.557929    20.680921    21.420632           90           90           90 
   92500    241.84727   -130.24521   -103.26678   -130.24521            0    2917.1696    17.661058    20.802393    21.546449            0            0            0    7915.9987   -934.44375    3719.6942    5966.2584    966.34344    2559.3621    1637.7485    17.661058    20.802393    21.546449           90           90           90 
   93000    247.26654   -130.80323   -103.22027   -130.80323            0    3028.7544     17.60456    20.735845    21.477521            0            0            0    7840.2705    2637.9392    3836.0797    2612.2442    1161.2102   -1343.9464    1892.9374     17.60456    20.735845    21.477521           90           90           90 
   93500    249.55742   -131.16511   -103.32661   -131.16511            0    1914.9928    17.605928    20.737457    21.479191            0            0            0    7842.0993    2232.9374    1305.6156    2206.4254    1075.9773    2105.6955   -1071.4547    17.605928    20.737457    21.479191           90           90           90 
   94000    251.84211   -131.25782   -103.16445   -131.25782            0    2879.4128    17.668918    20.811651    21.556039            0            0            0    7926.5728    3473.0536    2440.2678     2724.917   -332.85749   -457.22527    27.820271    17.668918    20.811651    21.556039           90           90           90 
   94500    243.63884   -130.65493   -103.47665   -130.65493            0   -873.66995    17.609883    20.742115    21.484016            0            0            0    7847.3853    1132.0636   -574.60785   -3178.4656   -2016.4404    1001.9448    2457.5961    17.609883    20.742115    21.484016           90           90           90 
   95000    245.78359   -132.72896   -105.31143   -132.72896            0   -1883.0057    17.660797    20.802085    21.546131            0            0            0    7915.6478   -3622.0809   -2670.1815    643.24532     1115.327      73.0843   -990.65883    17.660797    20.802085    21.546131           90           90           90 
   95500    250.82181   -130.95347   -102.97392   -130.95347            0    4116.6595    17.643539    20.781758    21.525076            0            0            0    7892.4654    3220.3264    2577.5121      6552.14   -499.69819    1856.2768    1856.6893    17.643539    20.781758    21.525076           90           90           90 
   96000    257.29741   -130.46869   -101.76678   -130.46869            0    -3056.749     17.64742    20.786328     21.52981            0            0            0     7897.674    -6683.783   -1176.8765   -1309.5875    170.08876   -1772.6908    745.21057     17.64742    20.786328     21.52981           90           90           90 
   96500     251.4808     -130.029   -101.97593     -130.029            0    5233.9458     17.66682    20.809179    21.553478            0            0            0    7923.7488    3301.1837    7079.8202    5320.8334     2694.375    575.85972    533.55959     17.66682    20.809179    21.553478           90           90           90 
   97000    248.38054   -130.60361   -102.89639   -130.60361            0    885.64204    17.595682    20.725389    21.466691            0            0            0    7828.4161    3068.1488   -2160.5784    1749.3557    845.47233    993.68575   -586.12007    17.595682    20.725389    21.466691           90           90           90 
   97500    247.05574   -129.44956   -101.89012   -129.44956            0    6251.5713    17.533426    20.652059    21.390739            0            0            0    7745.6157    5161.7928    10506.175    3086.7461    157.45919   -1183.0207    1775.9693    17.533426    20.652059    21.390739           90           90           90 
   98000     241.0708   -130.57558   -103.68377   -130.57558            0    1642.4853    17.639162    20.776602    21.519736            0            0            0    7886.5924     516.2624    4553.0581   -141.86456   -1887.6606    2442.0444    2100.1325    17.639162    20.776602    21.519736           90           90           90 
   98500    254.57524   -130.17938   -101.78113   -130.17938            0    715.58464    17.631761    20.767885    21.510707            0            0            0    7876.6697    3029.6264   -183.49767   -699.37479    67.521184   -3038.4367    2792.1061    17.631761    20.767885    21.510707           90           90           90 
   99000    250.63887   -130.59766   -102.63851   -130.59766            0    1583.3026    17.565915    20.690326    21.430375            0            0            0     7788.752    4334.7166   -1131.4917    1546.6829     270.1328   -1494.1939    123.20059    17.565915    20.690326    21.430375           90           90           90 
   99500     256.6954    -128.8723   -100.23754    -128.8723            0    59.089735     17.61774     20.75137    21.493601            0            0            0     7857.894    -494.1078    749.91483   -78.537818   -1671.2521   -2468.9238    -3164.771     17.61774     20.75137    21.493601           90           90           90 
  100000    262.37583   -130.36223   -101.09381   -130.36223            0    2441.2055    17.566632    20.691171    21.431249            0            0            0    7789.7055    4246.7016    1121.4984    1955.4166    3396.9159     979.6176    -479.4651    17.566632    20.691171    21.431249           90           90           90 
  100500    248.49131   -129.17273   -101.45315   -129.17273            0    860.89204    17.586493    20.714565     21.45548            0            0            0    7816.1574    2575.9993       269.87   -263.19313   -1793.4996    761.53087   -4085.6365    17.586493    20.714565     21.45548           90           90           90 
  101000    247.68937    -129.9604   -102.33028    -129.9604            0     3193.317    17.610077    20.742343    21.484252            0            0            0    7847.6442    1424.5291    3381.3722    4774.0495    1636.9381   -600.43153   -1796.7354    17.610077    20.742343    21.484252           90           90           90 
  101500    249.38978   -130.67651   -102.85671   -130.67651            0    544.56439    17.578296     20.70491    21.445479            0            0            0    7805.2328   -142.76047    999.99058    776.46305    567.11794   -14.232255   -1601.4321    17.578296     20.70491    21.445479           90           90           90 
  102000    245.78801   -129.95141   -102.53339   -129.95141            0    286.05365    17.623389    20.758024    21.500493            0            0            0    7865.4553   -738.30702    1238.2988    358.16917    108.68933    40.088395    1929.3122    17.623389    20.758024    21.500493           90           90           90 
  102500    249.35861   -130.32762   -102.51129   -130.32762            0    3805.8857    17.548362    20.669652     21.40896            0            0            0    7765.4267    5620.5517     2304.762    3492.3436    837.45427   -940.18226    -475.0242    17.548362    20.669652     21.40896           90           90           90 
  103000    256.56923   -130.62391   -102.00322   -130.62391            0    1326.1764    17.559471    20.682737    21.422513            0            0            0    7780.1837   -2159.4617    4240.3859    1897.6049   -449.33236    237.60356     644.4292    17.559471    20.682737    21.422513           90           90           90 
  103500    250.65298   -131.46342    -103.5027   -131.46342            0    2532.1969    17.559901    20.683243    21.423037            0            0            0    7780.7547    1296.1665    2988.3408    3312.0835    656.33407    -2201.208    832.41334    17.559901    20.683243    21.423037           90           90           90 
  104000    247.03572   -129.78512   -102.22792   -129.78512            0    207.77113    17.673252    20.816756    21.561326            0            0            0    7932.4069   -3389.7424    2609.5692    1403.4867   -1733.7078    731.76098    1392.6378    17.673252    20.816756    21.561326           90           90           90 
  104500    252.33672   -131.35578   -103.20724   -131.35578            0    -218.4331    17.652276    20.792048    21.535735            0            0            0    7904.1957   -735.15177    1047.8898   -968.03733   -1017.2162   -724.78566   -340.29727    17.652276    20.792048    21.535735           90           90           90 
  105000    255.75943   -130.20935     -101.679   -130.20935            0    2318.5062    17.614208     20.74721    21.489292            0            0            0    7853.1687    1955.4495    2122.7289    2877.3402    1813.5115   -766.45278    1769.6624    17.614208     20.74721    21.489292           90           90           90 
  105500    252.25313    -129.5274   -101.38818    -129.5274            0    359.72494    17.691758    20.838553    21.583903            0            0            0     7957.351    152.41219     -98.1544     1024.917   -605.42822    1489.8573    1392.8501    17.691758    20.838553    21.583903           90           90           90 
  106000    244.93607   -129.73858   -102.41559   -129.73858            0    1755.1063    17.671009    20.814114     21.55859            0            0            0    7929.3872    2533.2541     1665.512    1066.5529    2107.3238   -745.78715    739.74283    17.671009    20.814114     21.55859           90           90           90 
  106500    238.86165   -129.45949   -102.81411   -129.45949            0    2307.2693    17.661245    20.802613    21.546677            0            0            0    7916.2497    2375.3915    2174.2252    2372.1912     1129.249    1480.6555    1901.1852    17.661245    20.802613    21.546677           90           90           90 
  107000    248.63392      -130.81   -103.07451      -130.81            0     3416.585    17.625992    20.761089    21.503668            0            0            0    7868.9403    3411.2903    4145.5015    2692.9632    995.96379    111.12713    625.95041    17.625992    20.761089    21.503668           90           90           90 
  107500    254.69793   -130.78472   -102.37279   -130.78472            0    1711.9274    17.591978    20.721025    21.462171            0            0            0    7823.4722    4639.1215    133.30335    363.35737    190.83701    1787.5549   -1428.9132    17.591978    20.721025    21.462171           90           90           90 
  108000    250.49178   -129.42742   -101.48469   -129.42742            0    374.15038    17.695789    20.843301    21.588821            0            0            0    7962.7918    3377.6416   -2251.5498   -3.6406566     -682.755    441.89488   -200.13161    17.695789    20.843301    21.588821           90           90           90 
  108500    254.91373   -128.94095   -100.50494   -128.94095            0    5817.5453    17.599004    20.729301    21.470743            0            0            0    7832.8498    3852.2653    7344.6742    6255.6963    343.95126    611.41551   -2507.5637    17.599004    20.729301    21.470743           90           90           90 
  109000    246.22786   -130.46535   -102.99826   -130.46535            0   -1378.8015    17.685403    20.831067    21.576149            0            0            0     7948.779   -2158.5511   -2332.6978    354.84438    578.07345      -2310.1     565.2763    17.685403    20.831067    21.576149           90           90           90 
  109500    253.30914    -129.8863   -101.62928    -129.8863            0    2842.9194     17.64423    20.782572    21.525919            0            0            0    7893.3926    2839.9609    2891.4737    2797.3237    -444.8984   -595.23806    1341.5483     17.64423    20.782572    21.525919           90           90           90 
  110000    258.70906   -131.33217   -102.47279   -131.33217            0    2253.5114    17.635933    20.772799    21.515797            0            0            0    7882.2628    303.85787    987.99048    5468.6859   -1007.2203   -377.65626    1516.7343    17.635933    20.772799    21.515797           90           90           90 
  110500     241.8156   -130.17894   -103.20405   -130.17894            0    6432.5862    17.677556    20.821825    21.566577            0            0            0    7938.2039    8300.5048     7944.922    3052.3318   -573.52448    983.52553    2445.9222    17.677556    20.821825    21.566577           90           90           90 
  111000    249.47102   -129.94068   -102.11181   -129.94068            0    1297.2771    17.698587    20.846597    21.592234            0            0            0    7966.5694   -737.39273    5577.5725   -948.34841    2566.5059   -1749.9171    147.76592    17.698587    20.846597    21.592234           90           90           90 
  111500    249.03136   -129.89586   -102.11603   -129.89586            0    5210.4725     17.65607    20.796517    21.540363            0            0            0    7909.2931    4759.9114    5718.3475    5153.1585    820.36968   -640.67355   -1652.2086     17.65607    20.796517    21.540363           90           90           90 
[...]
 1973500    253.32489   -129.71165   -101.45288   -129.71165            0    2267.1267    17.655943    20.796368    21.540209            0            0            0    7909.1231    540.19129    3073.3619    3187.8269   -925.46882   -487.58311   -1326.1254    17.655943    20.796368    21.540209           90           90           90 
 1974000    250.15094   -128.95864   -101.05393   -128.95864            0   -460.20248    17.667204    20.809632    21.553947            0            0            0    7924.2656    1517.6374   -1474.4668    -1423.778    625.74599   -2835.2178   -1579.1134    17.667204    20.809632    21.553947           90           90           90 
 1974500    248.67517    -129.2212   -101.48111    -129.2212            0     5009.595    17.478698    20.587597     21.32397            0            0            0     7673.311    6675.7194     567.1136    7785.9521   -2354.0102   -2122.4405    870.33856    17.478698    20.587597     21.32397           90           90           90 
 1975000    239.01692   -130.02919   -103.36649   -130.02919            0    1969.8672    17.662175    20.803708    21.547812            0            0            0    7917.5007    2007.3852   -1031.8222    4934.0388    1422.3896    3871.3283   -739.94758    17.662175    20.803708    21.547812           90           90           90 
 1975500    238.72308   -129.44289   -102.81297   -129.44289            0      671.905    17.703588    20.852487    21.598336            0            0            0    7973.3246    1623.6567    1673.0952   -1281.0369   -184.47352   -2184.3161   -430.09163    17.703588    20.852487    21.598336           90           90           90 
 1976000    248.03944   -130.07161   -102.40244   -130.07161            0    2060.7358    17.706059    20.855398     21.60135            0            0            0    7976.6639   -1001.5042    1789.4303    5394.2814    1235.7903    1412.5391    918.57439    17.706059    20.855398     21.60135           90           90           90 
 1976500     250.1344   -130.00035   -102.09748   -130.00035            0    3486.0472    17.579938    20.706844    21.447483            0            0            0    7807.4209    2530.4562    3784.5888    4143.0967    1131.1135    453.80916    444.54083    17.579938    20.706844    21.447483           90           90           90 
 1977000     245.0852   -129.64226   -102.30264   -129.64226            0     1988.065    17.649723    20.789042     21.53262            0            0            0    7900.7669    445.26605    1117.8368    4401.0922   -2613.4684   -1893.8034    1073.0226    17.649723    20.789042     21.53262           90           90           90 
 1977500    245.13981   -128.36782    -101.0221   -128.36782            0    2008.4011     17.60353    20.734632    21.476265            0            0            0    7838.8948   -46.138585    3023.8308    3047.5111    401.44839   -702.70305   -603.70521     17.60353    20.734632    21.476265           90           90           90 
 1978000    249.46267    -128.8531   -101.02517    -128.8531            0    4766.8544    17.565884    20.690291    21.430337            0            0            0    7788.7116    3872.5015     2866.549    7561.5128    2374.4892    2041.4289    1074.8992    17.565884    20.690291    21.430337           90           90           90 
 1978500     249.5601   -128.60735   -100.76854   -128.60735            0     1092.168    17.670961    20.814057    21.558531            0            0            0    7929.3221    223.19115    2691.6797    361.63317   -606.39508    2178.3832   -1454.7708    17.670961    20.814057    21.558531           90           90           90 
 1979000    257.99709   -130.51027   -101.73031   -130.51027            0    3522.7718    17.615248    20.748434     21.49056            0            0            0     7854.559    4303.7074     1623.567    4641.0411   -1851.1467    1606.3441    -293.2992    17.615248    20.748434     21.49056           90           90           90 
 1979500    263.80577   -129.98766   -100.55973   -129.98766            0    4487.2891    17.588314    20.716709    21.457701            0            0            0    7818.5849    6902.3956    4828.7751    1730.6968   -400.63499   -744.94307   -1136.9714    17.588314    20.716709    21.457701           90           90           90 
 1980000    256.69618   -129.39427   -100.75943   -129.39427            0    1046.8466    17.629763    20.765532     21.50827            0            0            0    7873.9928    2491.0334   -2085.3324    2734.8386   -770.92568   -2381.8833    473.89067    17.629763    20.765532     21.50827           90           90           90 
 1980500    255.36976   -128.91291   -100.42603   -128.91291            0    2434.6023    17.541622    20.661712    21.400737            0            0            0    7756.4817    4143.2495    284.83142    2875.7258    1988.1608    1773.1734    2018.5639    17.541622    20.661712    21.400737           90           90           90 
 1981000     264.0723   -129.22526   -99.767596   -129.22526            0    -170.1264    17.658984    20.799949    21.543918            0            0            0    7913.2098   -329.39237   -742.84104    561.85422    1319.1971    236.28329   -717.25613    17.658984    20.799949    21.543918           90           90           90 
 1981500     255.0323   -128.62136   -100.17213   -128.62136            0    777.54938    17.662235    20.803779    21.547885            0            0            0     7917.581    1043.0615    1747.5999   -458.01324   -3144.5427   -175.11863    -1407.524    17.662235    20.803779    21.547885           90           90           90 
 1982000    259.34419   -128.11211   -99.181873   -128.11211            0    1209.7553    17.652658    20.792498    21.536201            0            0            0    7904.7085    376.75763    3225.5527    26.955633    1636.1161   -2011.9831   -3061.9355    17.652658    20.792498    21.536201           90           90           90 
 1982500    260.70409   -130.75099   -101.66905   -130.75099            0    883.92434    17.606195    20.737772    21.479517            0            0            0    7842.4562    1832.7795    1723.1675   -904.17396    32.812311   -1357.0007   -1006.3068    17.606195    20.737772    21.479517           90           90           90 
 1983000     257.7216   -129.26028   -100.51104   -129.26028            0    5427.0351      17.6446    20.783007     21.52637            0            0            0    7893.8884    6360.4905    5266.6094    4654.0054   -1904.8826    1004.1564    786.82175      17.6446    20.783007     21.52637           90           90           90 
 1983500    243.04992   -128.10392   -100.99133   -128.10392            0    557.39487    17.701582    20.850124    21.595888            0            0            0    7970.6139    2632.0764      499.055   -1458.9468   -85.107558    2414.1245    244.53597    17.701582    20.850124    21.595888           90           90           90 
 1984000    241.49246   -128.33845    -101.3996   -128.33845            0     3254.258    17.593159    20.722417    21.463613            0            0            0     7825.049    1650.5965    7402.0549    710.12274    3287.8304    -135.3239   -572.39438    17.593159    20.722417    21.463613           90           90           90 
 1984500    260.44136   -128.74823   -99.695602   -128.74823            0    2243.5952    17.665029     20.80707    21.551294            0            0            0      7921.34    3444.5343    2656.8989    629.35238    535.10249    2511.2191    2299.2382    17.665029     20.80707    21.551294           90           90           90 
 1985000    262.38794   -128.47468   -99.204907   -128.47468            0   -1813.0545    17.754011    20.911879    21.659852            0            0            0    8041.6477    1244.4676   -3818.8313   -2864.7997    414.07094   -618.62277   -1571.2126    17.754011    20.911879    21.659852           90           90           90 
 1985500    255.60766   -129.21993   -100.70651   -129.21993            0    2782.9581    17.680909    20.825774    21.570667            0            0            0    7942.7212    799.04179    1871.3748    5678.4576    649.02517    1801.4482   -748.28691    17.680909    20.825774    21.570667           90           90           90 
 1986000    245.78472   -129.73443   -102.31677   -129.73443            0    1566.0723    17.618533    20.752304    21.494569            0            0            0    7858.9553    1605.6517    2456.2546    636.31078    1870.7624    725.03782   -1309.8559    17.618533    20.752304    21.494569           90           90           90 
 1986500    249.28914   -128.64472   -100.83614   -128.64472            0    1771.4836    17.688848    20.835126    21.580353            0            0            0     7953.426     3333.338   -153.29874    2134.4115    -134.2263    162.56795     264.6853    17.688848    20.835126    21.580353           90           90           90 
 1987000    254.25157   -129.87955    -101.5174   -129.87955            0    6695.5319    17.660975    20.802294    21.546347            0            0            0    7915.8864    4737.4553     6086.176    9262.9642    544.28671   -1803.4862   -869.18535    17.660975    20.802294    21.546347           90           90           90 
 1987500    245.29297   -130.36544   -103.00264   -130.36544            0    2100.1737    17.702159    20.850805    21.596593            0            0            0    7971.3944    2402.6777    1690.2437    2207.5997    1055.4448   -748.10272   -783.04841    17.702159    20.850805    21.596593           90           90           90 
 1988000    265.22327   -127.82522   -98.239165   -127.82522            0    3417.7678    17.689684     20.83611    21.581372            0            0            0    7954.5526    6812.2578    1810.2205     1630.825   -534.43611    756.28009   -2192.9228    17.689684     20.83611    21.581372           90           90           90 
 1988500    251.31068   -127.41555   -99.381462   -127.41555            0   -480.12836    17.694864    20.842212    21.587692            0            0            0    7961.5432    145.51367   -753.38207   -832.51667    1422.1231     1241.125   -1707.2382    17.694864    20.842212    21.587692           90           90           90 
 1989000    256.46073    -130.4327   -101.82412    -130.4327            0     2744.902     17.74558    20.901948    21.649565            0            0            0    8030.1956   -267.99537    3980.7695    4521.9318   -1575.7729    1052.5514    -276.8057     17.74558    20.901948    21.649565           90           90           90 
 1989500    245.92607   -129.73554   -102.30212   -129.73554            0    4.9291117     17.72224    20.874457    21.621091            0            0            0     7998.553    1641.0429   -1958.5109     332.2554   -541.94845    2575.1864    2304.6268     17.72224    20.874457    21.621091           90           90           90 
 1990000    253.21127   -129.99614   -101.75004   -129.99614            0    2739.6959    17.623666    20.758349     21.50083            0            0            0    7865.8252    3116.4913    2128.2043    2974.3922   -1316.1693    310.45772   -804.06225    17.623666    20.758349     21.50083           90           90           90 
 1990500    240.33145   -129.34176   -102.53242   -129.34176            0     2920.237    17.612526    20.745229    21.487241            0            0            0    7850.9196    4739.5367    1469.3075    2551.8667   -2057.8316    1320.4125   -2020.2555    17.612526    20.745229    21.487241           90           90           90 
 1991000    234.02502   -130.93707   -104.83123   -130.93707            0   -1019.5247    17.779664    20.942094    21.691148            0            0            0    8076.5557    1306.7396   -2433.2397   -1932.0741    2668.4993    300.39737   -1212.0181    17.779664    20.942094    21.691148           90           90           90 
 1991500     249.3413   -128.77645   -100.96205   -128.77645            0    2188.4726    17.715428    20.866433     21.61278            0            0            0    7989.3321    1160.4283    4066.9771    1338.0124   -1538.5873    -807.2351   -769.72535    17.715428    20.866433     21.61278           90           90           90 
 1992000    246.75135   -129.45148     -101.926   -129.45148            0    5418.9758    17.621451     20.75574    21.498128            0            0            0    7862.8598    2037.2915    7954.6171    6265.0187    959.69964    654.20214    2023.7158    17.621451     20.75574    21.498128           90           90           90 
 1992500    248.11044   -129.83487   -102.15778   -129.83487            0     1073.735    17.667645    20.810151    21.554485            0            0            0    7924.8591    496.20713    1416.1403    1308.8575   -1797.3793   -1030.1688   -60.198687    17.667645    20.810151    21.554485           90           90           90 
 1993000    250.59474   -129.63486   -101.68064   -129.63486            0     4816.248    17.671236    20.814381    21.558867            0            0            0     7929.693     4916.419    3674.7643    5857.5607   -150.76504    1992.2786    970.35184    17.671236    20.814381    21.558867           90           90           90 
 1993500      254.989   -130.11369   -101.66929   -130.11369            0    3488.2893    17.710044    20.860092    21.606212            0            0            0    7982.0508    2847.9421    4111.9493    3504.9765    652.60206   -825.91842    70.384771    17.710044    20.860092    21.606212           90           90           90 
 1994000    246.13855    -129.1167   -101.65957    -129.1167            0    2936.7194    17.601095    20.731765    21.473295            0            0            0    7835.6432    2004.8388    2130.3725     4674.947    452.13574   -521.46649    152.79534    17.601095    20.731765    21.473295           90           90           90 
 1994500    239.88412   -129.51486   -102.75542   -129.51486            0    2968.4087    17.603301    20.734362    21.475985            0            0            0    7838.5886   -1154.5058    3785.0486    6274.6832    1381.8177    1614.0344    55.404667    17.603301    20.734362    21.475985           90           90           90 
 1995000    254.35134   -130.51344   -102.14016   -130.51344            0     6442.887    17.663382    20.805129    21.549284            0            0            0    7919.1234    4911.2302    8251.2906    6166.1402   -1518.2295   -220.01255    402.35846    17.663382    20.805129    21.549284           90           90           90 
 1995500    234.83062     -129.675   -103.47929     -129.675            0    1251.7696    17.661525    20.802943    21.547019            0            0            0     7916.627     1121.421    406.79458    2227.0932    68.671018     915.8371   -865.36938    17.661525    20.802943    21.547019           90           90           90 
 1996000    255.39328   -130.46132   -101.97182   -130.46132            0    3173.9088    17.656829    20.797411     21.54129            0            0            0    7910.3136    3026.1234    4277.4201    2218.1829    1662.0152   -895.76366    312.16973    17.656829    20.797411     21.54129           90           90           90 
 1996500    253.58698   -129.31919   -101.03118   -129.31919            0    2703.9005    17.603059    20.734077     21.47569            0            0            0     7838.266    4031.3853    1167.2383    2913.0779   -1014.9015    1906.1431    438.78976    17.603059    20.734077     21.47569           90           90           90 
 1997000    248.17491    -128.9957   -101.31141    -128.9957            0     970.0022    17.622681    20.757189    21.499629            0            0            0    7864.5065    751.76989    3380.0278   -1221.7911    1021.3986   -1192.6481    814.48086    17.622681    20.757189    21.499629           90           90           90 
 1997500    252.25587   -129.48754   -101.34802   -129.48754            0    589.91678    17.637977    20.775206     21.51829            0            0            0    7885.0029   -1201.3856    2006.8456    964.29033    1445.8891   -507.08811    211.54495    17.637977    20.775206     21.51829           90           90           90 
 1998000     241.5444   -129.10139   -102.15675   -129.10139            0    4182.9741    17.596169    20.725961    21.467284            0            0            0    7829.0651    2884.1464    6470.9248    3193.8512   -53.975478   -1071.3223   -272.06532    17.596169    20.725961    21.467284           90           90           90 
 1998500    243.03529   -129.26553   -102.15457   -129.26553            0    524.30603    17.644052    20.782362    21.525702            0            0            0    7893.1541   -1045.0038    2663.9985    -46.07654    -1897.714   -831.86391   -1462.1131    17.644052    20.782362    21.525702           90           90           90 
 1999000     253.9524   -130.83588    -102.5071   -130.83588            0    6277.4094    17.670033    20.812964    21.557398            0            0            0     7928.073    4274.2191    9997.4407    4560.5685   -368.59401    162.37776   -301.52503    17.670033    20.812964    21.557398           90           90           90 
 1999500    244.70068   -128.79354   -101.49681   -128.79354            0    779.07441    17.665702    20.807863    21.552115            0            0            0    7922.2451     2104.792   -759.45563    991.88686   -1767.7434   -164.44997   -1646.2119    17.665702    20.807863    21.552115           90           90           90 
 2000000    240.32103   -127.53426   -100.72609   -127.53426            0    1404.9621    17.732617     20.88668    21.633751            0            0            0    8012.6112    803.94521    435.63581    2975.3054   -1443.7507   -881.02301    889.15116    17.732617     20.88668    21.633751           90           90           90 
Loop time of 11217.1 on 1 procs for 2000000 steps with 864 atoms

Performance: 7.702 ns/day, 3.116 hours/ns, 178.298 timesteps/s
72.7% CPU use with 1 MPI tasks x 1 OpenMP threads

MPI task timing breakdown:
Section |  min time  |  avg time  |  max time  |%varavg| %total
---------------------------------------------------------------
Pair    | 9762.5     | 9762.5     | 9762.5     |   0.0 | 87.03
Bond    | 0.33168    | 0.33168    | 0.33168    |   0.0 |  0.00
Neigh   | 1327.8     | 1327.8     | 1327.8     |   0.0 | 11.84
Comm    | 45.605     | 45.605     | 45.605     |   0.0 |  0.41
Output  | 10.377     | 10.377     | 10.377     |   0.0 |  0.09
Modify  | 61.911     | 61.911     | 61.911     |   0.0 |  0.55
Other   |            | 8.649      |            |       |  0.08

Nlocal:        864.000 ave         864 max         864 min
Histogram: 1 0 0 0 0 0 0 0 0 0
Nghost:        4186.00 ave        4186 max        4186 min
Histogram: 1 0 0 0 0 0 0 0 0 0
Neighs:         0.00000 ave           0 max           0 min
Histogram: 1 0 0 0 0 0 0 0 0 0
FullNghs:      199936.0 ave      199936 max      199936 min
Histogram: 1 0 0 0 0 0 0 0 0 0

Total # of neighbors = 199936
Ave neighs/atom = 231.40741
Ave special neighs/atom = 0.0000000
Neighbor list builds = 200000
Dangerous builds not checked

unfix		3
unfix		2

write_data	data.final.${pid}
write_data	data.final.0
System init for write_data ...

write_restart   restart.lmp.${pid}
write_restart   restart.lmp.0
System init for write_restart ...
Unloading pair style deepmd
Unloading compute style deepmd
Unloading fix style deepmd
Total wall time: 3:07:00
