LAMMPS data file via write_data, version 29 Sep 2021, timestep = 400000

1920 atoms
2 atom types

-0.07940390943113229 24.803808909430487 xlo xhi
0.02006176501124557 24.704343234989924 ylo yhi
-0.17433874365442215 22.966710743654875 zlo zhi

Masses

1 1.008
2 15.999

Atoms # full

4 0 1 0 2.878097352447757 1.6678245990080496 2.051413541153594 0 0 0
5 0 2 0 3.347347072204464 1.7424550021462124 2.8848452653076353 0 0 0
6 0 2 0 3.1949858863078338 2.3590318860134563 1.4553616174362967 0 0 0
17 0 2 0 1.0294866517274273 1.7328543151823976 1.992194594214702 0 0 0
99 0 2 0 0.32314772978999645 3.866044962659654 4.133618408530835 1 0 0
11 0 2 0 2.49639591168828 3.965358832468977 3.6571294353478336 0 0 0
387 0 2 0 4.002777916961375 0.22195014477069067 0.9499093224739996 0 1 0
16 0 1 0 0.05134299598507264 1.7334528835127816 2.018493592568106 0 0 0
1 0 1 0 4.497430988166894 1.7895225046068395 4.169326333211499 0 0 0
19 0 1 0 4.483602498947297 3.114726067544525 0.5471094215945231 0 0 0
2 0 2 0 5.236690416785136 1.7093127971935516 3.593856560882067 0 0 0
46 0 1 0 6.459521977730594 1.655547245632711 1.9195382576463662 0 0 0
47 0 2 0 7.411304142449438 1.6641591618794702 1.9265928871709157 0 0 0
48 0 2 0 6.111413268873926 2.3650045116367306 1.3285845480631162 0 0 0
54 0 2 0 7.614834127312264 3.9689452486671493 0.6942547685039265 0 0 0
21 0 2 0 4.3225459061438185 4.0885243970921 0.46470104410314605 0 0 0
386 0 2 0 5.382948290727501 0.3383364451495752 1.3190291787900232 0 1 0
45 0 2 0 6.78795295333054 3.533097325820986 4.361989296047043 0 0 0
32 0 2 0 11.9091630824762 1.3724141730743642 3.853549218735771 0 0 0
34 0 1 0 9.20786811718195 1.6088448909357171 2.0809326951126255 0 0 0
35 0 2 0 9.855611810035604 1.5808742022504652 2.800905400161038 0 0 0
36 0 2 0 9.576041566291314 2.2729867748972965 1.4646194999076516 0 0 0
49 0 1 0 10.927903903178025 3.2280306487296837 0.5079435132403917 0 0 0
51 0 2 0 11.622184374878946 2.8525189047196284 1.037128691018922 0 0 0
31 0 1 0 11.000109381863385 1.291561080633944 4.209116473465938 0 0 0
416 0 2 0 10.124051344066261 0.025341392856115558 1.3734746740561534 0 1 0
42 0 2 0 8.742542414075752 4.036928218611426 3.9153183878865816 0 0 0
78 0 2 0 12.011376127066766 0.8564795771241606 1.5504063047497154 0 0 0
50 0 2 0 10.739624833099253 4.121642415365318 0.7962171073331984 0 0 0
417 0 2 0 10.783049049326506 0.1547004745904597 -0.04361130830229065 0 1 0
38 0 2 0 12.390664277645193 3.6295910505908897 3.70935232327055 0 0 0
76 0 1 0 12.489316926771695 1.5736144198580881 2.0110775131759784 0 0 0
64 0 1 0 15.202872371293614 1.7510265299212828 2.1081134782293494 0 0 0
65 0 2 0 15.750448584950211 1.841482851470155 2.9311217748395424 0 0 0
66 0 2 0 15.59739454346153 1.0309728096032817 1.6258982744426493 0 0 0
77 0 2 0 13.470116493478036 1.5855729464548252 1.8999369784936113 0 0 0
80 0 2 0 16.27481709223947 3.1020799685402687 1.183501654221711 0 0 0
1514 0 2 0 13.841317919509256 3.459691050122603 -0.07417508885521877 0 0 1
79 0 1 0 17.07421787660309 3.2817313583651133 0.6126816453697165 0 0 0
62 0 2 0 17.6122498633308 1.4997251828131108 3.7430116468848245 0 0 0
106 0 1 0 18.589615590824454 1.2867913857340711 2.367544096774005 0 0 0
107 0 2 0 19.573523064225434 1.2600213354643899 2.230208415388655 0 0 0
108 0 2 0 18.297737400926447 2.000726622083478 1.7698360579498906 0 0 0
61 0 1 0 16.839915525002823 1.7435207706743936 4.306080760879409 0 0 0
1545 0 2 0 19.738155022209543 3.4238685280715937 0.3081776417032929 0 0 1
68 0 2 0 18.840766585133785 3.750748074021434 4.288213701521383 0 0 0
446 0 2 0 17.595560412744955 0.2967891259532029 1.216880857292095 0 1 0
81 0 2 0 16.89494439458575 2.6659183358677394 -0.11439663942483355 0 0 0
18 0 2 0 24.450315723722976 0.9975548240296997 1.5917601790481235 -1 0 0
92 0 2 0 24.009710337083824 1.7977430639469307 3.3176581001879004 0 0 0
94 0 1 0 21.283269909377367 1.6868502010395743 1.761034931431638 0 0 0
95 0 2 0 22.010040806506144 1.7699787753774803 2.4377816052599983 0 0 0
96 0 2 0 21.280337310586553 2.3719250006680688 1.1040099416145956 0 0 0
109 0 1 0 23.36626379882625 3.3156251753588895 0.2380027926831092 0 0 0
110 0 2 0 24.107113614326984 2.9192520185338884 0.7481697754087034 0 0 0
91 0 1 0 23.188530675239893 1.8166313495756543 3.887423762387006 0 0 0
476 0 2 0 22.3289316631789 0.34102890072121755 0.9660960896757416 0 1 0
475 0 1 0 23.149244300022353 0.023965688226834203 0.6558725508757308 0 1 0
24 0 2 0 2.247242603959734 4.975140629964917 1.6250269998080076 0 0 0
10 0 1 0 2.9290001709550135 4.722793727611881 3.228953390735473 0 0 0
22 0 1 0 1.4014254388335898 4.768464491757516 1.165504552819454 0 0 0
23 0 2 0 1.4060518394838588 5.501424236912965 0.46222999808032117 0 0 0
124 0 1 0 2.502439203395377 7.771394538227235 2.3098397359734997 0 0 0
126 0 2 0 1.5309291522172521 7.765950783594049 2.3568932062316335 0 0 0
122 0 2 0 3.800751729548012 7.667208587193711 3.915158259318166 0 0 0
27 0 2 0 3.707058137404305 6.203458934940144 1.2548855967632029 0 0 0
98 0 2 0 0.3856726440914874 4.722008968475245 2.840943176434253 1 0 0
12 0 2 0 3.8888574259153685 4.672850638566456 3.3539976910505067 0 0 0
25 0 1 0 4.50991701778318 5.835484827173923 0.7609828609507542 0 0 0
8 0 2 0 6.033353220630487 4.584226528693748 2.6819486652000233 0 0 0
7 0 1 0 5.704551259859593 4.663701225739696 3.5731737810846123 0 0 0
52 0 1 0 7.318252875924717 4.609644228829332 1.3617245629219812 0 0 0
168 0 2 0 5.594536206989413 6.976412781372916 1.7204108447433635 0 0 0
166 0 1 0 5.996632710544916 7.7113808764074685 2.1186480129844423 0 0 0
9 0 2 0 6.020257343434597 5.530886320097178 3.9380209529860064 0 0 0
1619 0 2 0 7.607213228915326 5.920565288137706 0.19993910967752565 0 0 1
26 0 2 0 4.536708633089621 6.376391385973505 -0.03924435414884381 0 0 0
53 0 2 0 8.003410497444987 4.652570489829318 2.04260035965464 0 0 0
167 0 2 0 5.737576257440109 7.715460965092992 3.02494793371836 0 0 0
156 0 2 0 7.790809137379965 7.978791189903625 2.178843918098254 0 0 0
180 0 2 0 8.107844793467278 6.279662378297839 3.943289453832283 0 0 0
41 0 2 0 10.176360390546524 4.517414714898814 3.499530039545222 0 0 0
40 0 1 0 9.223624864102435 4.689327464366794 3.372189274689287 0 0 0
55 0 1 0 10.516127552018316 6.023560247673567 0.6450152581265489 0 0 0
56 0 2 0 9.754157574557777 5.98538879829998 1.2309019181541085 0 0 0
57 0 2 0 11.240651458933236 6.491267999345193 1.0642903388632683 0 0 0
152 0 2 0 9.783273291074845 7.934782482197802 3.8318315353914407 0 0 0
154 0 1 0 8.68860402016015 7.971727317048972 2.337873775500924 0 0 0
153 0 2 0 11.303287537973906 7.598781780650748 3.773334430092257 0 0 0
37 0 1 0 12.130507442311684 4.403095906906526 3.2608892178815845 0 0 0
151 0 1 0 10.579162020191694 7.797692903880214 4.341638250176871 0 0 0
196 0 1 0 12.302121110965087 7.619658595905907 1.995899165023462 0 0 0
39 0 2 0 12.569804513023517 5.177499527516059 3.6464937009155496 0 0 0
83 0 2 0 13.268617977085636 4.690451658332336 1.7514444187570717 0 0 0
72 0 2 0 15.184728235309498 4.777723038341398 2.5993331406770896 0 0 0
70 0 1 0 15.638261738241315 4.68384004841265 3.4443752089865654 0 0 0
82 0 1 0 14.089752441166523 4.729723958323602 1.3181122410641877 0 0 0
84 0 2 0 13.947816738988024 5.499478563076585 0.7150217683466463 0 0 0
198 0 2 0 13.285876286570389 7.6293745507761574 1.9904581136296584 0 0 0
186 0 2 0 15.721264670557504 7.691426654232394 2.752937501271885 0 0 0
184 0 1 0 15.191347509844931 7.538716692784687 1.9789796155837078 0 0 0
71 0 2 0 15.105344290209278 5.350356987269944 3.9874101259320742 0 0 0
86 0 2 0 16.56151594129092 6.075799551239733 0.87109789484341 0 0 0
85 0 1 0 17.339382399183993 5.788687933029971 0.3344670186835593 0 0 0
87 0 2 0 17.240407127731892 4.852600256556508 0.40129353194288886 0 0 0
112 0 1 0 20.05758990591388 4.707466132371409 1.3038175678607589 0 0 0
113 0 2 0 19.42612913750068 4.539207612493042 2.0046722819247793 0 0 0
67 0 1 0 18.49509457089017 4.377143905006731 3.610297565907642 0 0 0
69 0 2 0 17.559431738852936 4.550952678636167 3.7878009458071227 0 0 0
226 0 1 0 18.616203908125755 7.6639444044967995 1.8672969505179537 0 0 0
228 0 2 0 18.444652378398157 6.884958855025759 1.3393913341486392 0 0 0
183 0 2 0 17.502141629405518 7.513767200732295 3.429216039086792 0 0 0
181 0 1 0 16.81530675132119 7.7366914414686985 4.085637771669453 0 0 0
216 0 2 0 20.445063936318057 7.525489969927578 1.8567981209836848 0 0 0
1679 0 2 0 20.071226936579606 5.7679270011657 -0.08642293523735928 0 0 1
136 0 1 0 24.784500216815758 7.884129225450996 1.99527926894112 -1 0 0
97 0 1 0 24.69186396277977 4.6110412878929905 3.671092616976807 0 0 0
111 0 2 0 23.274117879933556 4.2603502903322585 0.37916768316259486 0 0 0
114 0 2 0 20.8753991748759 4.516290009987289 1.8231573118479045 0 0 0
137 0 2 0 24.203778280664306 7.737638497252212 2.7380349493253373 -1 0 0
138 0 2 0 24.53127522158751 7.191097835956999 1.373247533455654 -1 0 0
102 0 2 0 22.802280400008648 4.177257827252497 3.4340178932986376 0 0 0
100 0 1 0 21.892253170161297 4.426808471944284 3.409000328017989 0 0 0
115 0 1 0 23.255094591262168 5.930929376023389 0.47835492417069525 0 0 0
116 0 2 0 22.667305257674926 6.236633253374921 1.1649936175008289 0 0 0
213 0 2 0 22.379766426416094 7.605672459316107 3.6169678176008184 0 0 0
214 0 1 0 21.412501637437384 7.563569073071125 2.061042532668129 0 0 0
101 0 2 0 21.806669066930766 5.251864524084155 3.9076867518120437 0 0 0
211 0 1 0 23.130872795934955 7.597328615620861 4.195100463228495 0 0 0
125 0 2 0 2.854861908148583 8.565199943813663 1.870632817197785 0 0 0
130 0 1 0 2.794652681520551 10.679184815359047 3.4979241624447943 0 0 0
142 0 1 0 1.2161884834929504 10.956467908919356 1.2424183999248013 0 0 0
143 0 2 0 2.023130948028274 11.079886665008397 1.765749926437419 0 0 0
144 0 2 0 1.4797857589349315 10.188392093713652 0.681730853269395 0 0 0
132 0 2 0 2.3895072391775756 11.424958919223725 3.976332948949052 0 0 0
219 0 2 0 -0.033382298976755057 10.613233821764974 2.5755288277538244 1 0 0
269 0 2 0 0.5181060562931906 12.13207546446168 4.375192411583821 0 0 0
131 0 2 0 3.6955977072079738 10.801645917636035 3.699316901537163 0 0 0
135 0 2 0 1.8728926824291163 9.108949661599068 4.324610091436064 0 0 0
141 0 2 0 4.348807023905635 10.403958955743235 0.8487013185840484 0 0 0
139 0 1 0 4.121450221681705 9.456891257402665 0.8510106605068148 0 0 0
127 0 1 0 5.650810972316862 10.654790863753812 3.4766809503730935 0 0 0
129 0 2 0 6.086136835739812 10.436998975653047 2.6326443169722547 0 0 0
140 0 2 0 4.8614975887108915 8.980321155856368 1.2321983126142062 0 0 0
172 0 1 0 7.550520015592657 10.816827643845583 1.4772189772768194 0 0 0
173 0 2 0 7.6191967331395425 10.170257078386292 0.779149736091752 0 0 0
128 0 2 0 6.136474914763889 10.135863223382918 4.087885592669308 0 0 0
145 0 1 0 4.727295867374634 12.237758419992401 0.6827972019539432 0 0 0
1740 0 2 0 7.6011167033392075 12.190190330261865 -0.013362773109115156 0 0 1
174 0 2 0 8.289935485176223 10.635711860013796 2.1049506766803034 0 0 0
155 0 2 0 9.135407165099432 8.52522465787094 1.6803721152098188 0 0 0
160 0 1 0 9.297943190264858 10.802094126827324 3.82672750391776 0 0 0
161 0 2 0 10.261133743774721 10.999037873181958 3.9015446245604632 0 0 0
169 0 1 0 10.682304786779019 9.574058185360201 0.9198777837818282 0 0 0
171 0 2 0 10.739931546257383 10.549214964366572 0.8129635722534189 0 0 0
162 0 2 0 8.784438153245135 11.596861403077217 4.169018212957062 0 0 0
170 0 2 0 10.759039812724762 9.183555209085174 0.045601678532892626 0 0 0
197 0 2 0 12.094712081470245 8.527092503990161 1.6931591179769212 0 0 0
157 0 1 0 11.995182715132234 10.861960147822401 4.015491990046165 0 0 0
159 0 2 0 12.347542106567884 10.992969745736108 3.119673143258232 0 0 0
185 0 2 0 15.402618448614849 8.30675598225143 1.4707552906537538 0 0 0
158 0 2 0 12.481000004334838 10.093626613733825 4.265397282607051 0 0 0
190 0 1 0 15.339314360546238 11.065683801854563 3.562149175074634 0 0 0
192 0 2 0 14.976933488115911 10.979413800568667 2.6779331474577863 0 0 0
202 0 1 0 13.615744374117424 10.752624866742993 1.4699826275981258 0 0 0
203 0 2 0 13.75680884107638 11.512381270063608 0.8342674627461668 0 0 0
204 0 2 0 13.69830658368938 9.991313507422149 0.8610278201902886 0 0 0
194 0 2 0 14.68338064689728 9.655287763885669 4.34296794700495 0 0 0
329 0 2 0 14.34000936533818 12.217670455175568 4.366354701443425 0 0 0
191 0 2 0 16.259263591861345 10.858193245234144 3.499593518316933 0 0 0
227 0 2 0 18.083850460429048 8.30558043459158 1.3596484445777224 0 0 0
200 0 2 0 16.809058488160634 10.539766168915207 0.5808235658837089 0 0 0
199 0 1 0 16.860268540818318 9.579021304644957 0.579977466301469 0 0 0
187 0 1 0 18.029133752169983 11.003845903534293 3.409440205221141 0 0 0
189 0 2 0 18.465363484024888 11.14703968313623 2.5502754454718235 0 0 0
232 0 1 0 19.91898621773446 10.803002186503434 1.25289106877975 0 0 0
234 0 2 0 19.926060649378783 10.040438088608969 0.6826145035696105 0 0 0
188 0 2 0 18.589468618265478 10.330811775917836 3.8090217842930416 0 0 0
205 0 1 0 16.781971318812822 12.26109203826174 0.6922568468977288 0 0 0
225 0 2 0 20.49705766445157 9.338502821024528 4.180678555597365 0 0 0
1800 0 2 0 19.882685250655346 11.863933865857511 0.018974808201507043 0 0 1
359 0 2 0 19.55191418192499 12.212380071583537 4.434451015859384 0 0 0
218 0 2 0 24.417968519418128 10.076834206226513 3.9397686271091255 0 0 0
215 0 2 0 21.691390541035805 8.373019686730387 1.6055884981923885 0 0 0
233 0 2 0 20.79990998679975 10.707302127316778 1.6618723021539241 0 0 0
217 0 1 0 24.194545817871173 10.71407884672071 3.2368047002783817 0 0 0
220 0 1 0 21.58098119860867 10.539384783588636 3.3808734304515005 0 0 0
221 0 2 0 22.548082302859115 10.565125697206764 3.2229621875256917 0 0 0
222 0 2 0 21.307851897671853 11.407680568726672 3.7111845387583426 0 0 0
229 0 1 0 23.14789415359969 9.57520528988831 0.5061953309559009 0 0 0
230 0 2 0 23.843457727140066 9.230352774223267 1.0720107421814966 0 0 0
231 0 2 0 23.24393430481257 10.551270562683639 0.5986872496320799 0 0 0
235 0 1 0 23.354057960901415 12.230836103972365 0.7833836988722542 0 0 0
244 0 1 0 3.031768066491703 13.834466815345404 2.2114114956468445 0 0 0
245 0 2 0 2.0591378587248284 13.86187174826556 2.138779615504826 0 0 0
246 0 2 0 3.312078603511183 13.132009425430244 1.6572504736715508 0 0 0
242 0 2 0 3.7827932577331076 13.946390396104356 3.900892597915538 0 0 0
256 0 1 0 0.2082081542179136 13.807047084469499 1.8926488484409947 0 0 0
258 0 2 0 -0.036552422717351596 12.921186733922854 1.6701204576268311 0 0 0
260 0 2 0 3.9754588239271342 15.317104910672807 1.269245340406205 0 0 0
264 0 2 0 0.7319306326518503 16.410820125614826 1.7477624397077909 0 0 0
147 0 2 0 5.412582270744431 12.732238608264428 1.1375761209855533 0 0 0
259 0 1 0 4.614839274337933 15.893141570591967 0.8236630926521714 0 0 0
286 0 1 0 6.31953400744748 13.966111593505241 2.3298886184342047 0 0 0
287 0 2 0 5.68598956146742 14.054312742969602 3.066450572165124 0 0 0
288 0 2 0 6.306855300682783 14.742289080162935 1.7907128940090675 0 0 0
248 0 2 0 6.233988683550583 16.363801503143733 4.026824234989785 0 0 0
241 0 1 0 4.6110801593232935 13.933542820903732 4.426418733692302 0 0 0
261 0 2 0 4.631491714891395 15.54739919713704 -0.1302786161466794 0 0 0
276 0 2 0 8.133254174163929 14.17499191075475 2.315001280983133 0 0 0
1725 0 2 0 7.8052741796279905 15.814425533887825 -0.12880241833574252 0 0 1
175 0 1 0 10.517419633005321 12.383431121808416 0.5907039018124342 0 0 0
176 0 2 0 9.917842695154691 12.864421823170604 1.1491536351249527 0 0 0
272 0 2 0 11.300125665750867 13.854875693359146 3.6925598699846702 0 0 0
274 0 1 0 9.097555525198477 14.192366803903566 2.215335076051242 0 0 0
275 0 2 0 9.391541352542882 13.926317484132225 3.1230653922209184 0 0 0
289 0 1 0 11.137268151435718 15.426085675193033 0.6749479354715295 0 0 0
291 0 2 0 10.383351505023567 15.186011282148504 1.2184419300836462 0 0 0
317 0 2 0 12.126916925927366 14.314242085959323 1.7350640255889898 0 0 0
281 0 2 0 9.379507370067103 16.321456124268447 3.6737893415442264 0 0 0
318 0 2 0 12.118058613265758 12.807039799417772 1.6573607176141498 0 0 0
290 0 2 0 11.080274122015716 16.412051006629113 0.5167863183983927 0 0 0
316 0 1 0 12.54005140181763 13.548629068273042 2.1504024768194725 0 0 0
304 0 1 0 15.311174010959487 14.251989571550654 1.921861878577479 0 0 0
305 0 2 0 14.421531083554429 14.04532726177463 2.0527165450486775 0 0 0
306 0 2 0 15.653393650055646 13.415111885633376 1.587492692185899 0 0 0
311 0 2 0 15.45326061331379 16.38697241882389 3.818147444444643 0 0 0
320 0 2 0 16.143619691427425 15.52163999938123 0.9131873681961848 0 0 0
315 0 2 0 13.307703573160827 15.813451079453523 4.2879916638495414 0 0 0
1754 0 2 0 14.07293932186517 15.89091622428732 -0.11990764500113898 0 0 1
207 0 2 0 17.647733346894725 12.558307290946132 1.0378937505399906 0 0 0
302 0 2 0 16.53560697890855 14.020398482148916 3.3151228225472105 0 0 0
346 0 1 0 18.713131060422107 13.79055287573541 1.5416973761159982 0 0 0
347 0 2 0 18.180582394679753 14.55266402323991 1.17119072925495 0 0 0
348 0 2 0 18.424085264037274 13.80123675650922 2.466262727669449 0 0 0
301 0 1 0 17.310664167046664 14.051916872567631 3.8794967961993416 0 0 0
319 0 1 0 16.984562334072123 15.710008837070161 0.5357896880866546 0 0 0
335 0 2 0 20.528206351225474 13.61590938227718 2.0868078586435606 0 0 0
309 0 2 0 18.65831425227681 16.19179169695777 4.102063099378461 0 0 0
1784 0 2 0 20.2510656920004 15.803862678599124 0.005014481441584312 0 0 1
257 0 2 0 24.67153619614502 14.020019519581872 2.709085891404223 -1 0 0
237 0 2 0 22.660959946246212 12.704274026947504 1.3112387188459491 0 0 0
332 0 2 0 22.505243252747327 13.92160322831769 3.6291552866853856 0 0 0
334 0 1 0 21.467265079314238 13.766159045107015 2.1816321293565166 0 0 0
336 0 2 0 21.734141794961047 14.634935125346633 1.7669181719554365 0 0 0
349 0 1 0 23.30667164918752 15.419089785844708 0.5810851427427489 0 0 0
350 0 2 0 24.08545011835711 15.124167235253813 1.0831255682085015 0 0 0
331 0 1 0 23.301961649719814 13.927531387979078 4.157028778845101 0 0 0
236 0 2 0 23.414162401122976 12.688832943837456 -0.09263917305038907 0 0 0
351 0 2 0 23.26161596730822 16.371250217377728 0.6646501492807394 0 0 0
339 0 2 0 23.701483742194117 16.422940179332336 3.545798833590269 0 0 0
251 0 2 0 2.8512556398976545 16.535858023981206 4.004017533627213 0 0 0
250 0 1 0 3.169426524086446 17.226528704879428 3.460917003558101 0 0 0
263 0 2 0 2.1598806134371173 16.928179226261598 1.6621837318582489 0 0 0
262 0 1 0 1.420401922392431 16.632409441673545 1.1298474656370097 0 0 0
364 0 1 0 2.946697393078999 20.118120732382415 1.8706221094696511 0 0 0
366 0 2 0 1.9412191026564818 19.939795199902346 1.8518916972908999 0 0 0
376 0 1 0 0.1638489819270095 19.774845132213706 1.6722779067539641 0 0 0
363 0 2 0 3.9640249908180936 19.94892932739178 3.5795778622962175 0 0 0
1829 0 2 0 1.3454026318635148 17.918069944346414 -0.031108718229674898 0 0 1
338 0 2 0 0.008599361394970334 17.338121342438754 3.8538639481976666 1 0 0
390 0 2 0 1.8823038275989994 18.36563803004238 4.112393981255515 0 0 0
267 0 2 0 4.10105842019166 18.662710340259885 0.9775182469398225 0 0 0
252 0 2 0 4.158249400939819 17.079101655510833 3.4321562084323354 0 0 0
247 0 1 0 5.805509439741569 17.117032638049526 3.4903895199752015 0 0 0
265 0 1 0 4.890875438989504 18.434618876775346 0.40568779397184795 0 0 0
292 0 1 0 7.714196821991246 16.883183321478402 1.3313188651271124 0 0 0
249 0 2 0 6.361868791641612 17.062075096798754 2.691224445985709 0 0 0
266 0 2 0 5.035027371663368 17.48885409982149 0.5986054153154702 0 0 0
408 0 2 0 5.847830465078928 19.46123761232363 1.2889100919663328 0 0 0
406 0 1 0 6.355792648994945 20.16219426510287 1.802907579529438 0 0 0
361 0 1 0 4.712146240909123 19.919055806413507 4.232419862178604 0 0 0
407 0 2 0 5.955077362704682 20.024347964717293 2.74208709312849 0 0 0
294 0 2 0 7.665887359412852 17.71563196754894 0.8945038038039579 0 0 0
395 0 2 0 8.100252423424768 19.996827081340157 1.7404738089479732 0 0 0
293 0 2 0 8.456430334520476 16.987347851057336 1.917991942373387 0 0 0
278 0 2 0 11.345088905257652 16.939649319072707 3.2927346495651317 0 0 0
280 0 1 0 9.538855276155976 17.191138729449445 3.2524703733753317 0 0 0
295 0 1 0 10.94810668343051 18.214447652891952 0.4767646938890382 0 0 0
296 0 2 0 10.142801570689187 18.656259450351346 0.7952889129646739 0 0 0
394 0 1 0 9.06353406013196 19.926252809947435 1.6264682710227925 0 0 0
396 0 2 0 9.404084632505429 19.94383924433367 2.5701562709841284 0 0 0
393 0 2 0 11.460538804887555 19.97465402720764 3.3585041259163804 0 0 0
282 0 2 0 9.02279058049106 17.901123139844998 3.8637761947884144 0 0 0
391 0 1 0 10.716736862013198 19.812332124054603 3.9655541613336283 0 0 0
277 0 1 0 12.268618593534658 16.870928314703374 3.2812423796367316 0 0 0
437 0 2 0 12.262886817872161 19.369524227550514 1.3274330376251187 0 0 0
279 0 2 0 12.567016245695935 17.655768776144296 3.779825596308479 0 0 0
436 0 1 0 12.625131768320083 20.005223614053087 1.9937229919218766 0 0 0
310 0 1 0 15.705349876703163 17.144768315477222 3.2535687852456165 0 0 0
324 0 2 0 14.800494607764213 17.036262568466547 1.9565510608991552 0 0 0
323 0 2 0 13.281250840625258 17.006318137093643 1.7669795098255416 0 0 0
312 0 2 0 15.1222867316907 17.838591009366237 3.5420169940690522 0 0 0
322 0 1 0 14.119363471381622 17.076376742815885 1.237589023611953 0 0 0
424 0 1 0 15.571877213607156 20.017461824862803 1.9630289765399573 0 0 0
425 0 2 0 14.586019919096998 20.00883922008011 1.9743198571765963 0 0 0
326 0 2 0 16.479739853671862 18.82917652908492 0.8191236345081659 0 0 0
1890 0 2 0 14.144116055936827 18.139885297810903 -0.08210552750476069 0 0 1
423 0 2 0 16.360998420304004 20.371677272682508 3.641538912818651 0 0 0
321 0 2 0 17.23330907118562 16.655531163144833 0.5925980122642771 0 0 0
352 0 1 0 20.38589134079807 16.881939147010158 1.4133316613218845 0 0 0
308 0 2 0 17.49714609303744 17.148144718468743 3.5446658952317223 0 0 0
353 0 2 0 19.592219944296605 17.009895188715415 1.9451733347808755 0 0 0
307 0 1 0 18.478214538138765 17.036721043182293 3.6994995749441393 0 0 0
325 0 1 0 17.25735489558482 18.391331163389843 0.4590108367142497 0 0 0
468 0 2 0 18.430213883782024 19.221836707139545 1.7422464848285835 0 0 0
466 0 1 0 18.857670109516256 19.954872897543726 2.1812497364934798 0 0 0
354 0 2 0 20.29842412169531 17.599766707017718 0.7730731870676916 0 0 0
467 0 2 0 18.3259592103717 20.03116783253747 2.9718499056061107 0 0 0
421 0 1 0 17.145976068508073 20.313506206894477 4.164837608818284 0 0 0
455 0 2 0 20.50861353334478 19.980913894125692 2.1228636499677846 0 0 0
378 0 2 0 24.635781407448224 19.816663688951927 2.610112714492657 -1 0 0
337 0 1 0 24.670781466908792 16.491220549447657 3.446714962332988 0 0 0
342 0 2 0 21.71160209851594 16.709807385991265 2.817527105682218 0 0 0
340 0 1 0 21.9987362490623 16.758817597187598 3.7403543989131527 0 0 0
355 0 1 0 23.00233116304769 18.33508231360256 0.5602776579976894 0 0 0
356 0 2 0 23.921210090704417 18.548409061341925 0.8275959381653035 0 0 0
454 0 1 0 21.48765502793961 20.064149318267212 2.0626779114315625 0 0 0
456 0 2 0 21.88170666809566 19.465371459514248 1.4285349632534794 0 0 0
453 0 2 0 22.622857172654815 19.624589493338625 3.3382470556339574 0 0 0
341 0 2 0 21.422513676626597 17.50618883613506 4.048337411574261 0 0 0
377 0 2 0 24.65796736527971 20.54696589773257 1.2181669311188537 -1 0 0
451 0 1 0 23.273291104148548 19.84664934017705 4.0258026181315145 0 0 0
365 0 2 0 3.1205625278846116 20.93989180935314 1.362066649379243 0 0 0
370 0 1 0 3.303923486893858 23.379140919215306 3.258334493524411 0 0 0
371 0 2 0 2.690790202811077 23.264091721257003 2.5045618179389506 0 0 0
382 0 1 0 1.4579507376626786 23.204930241808917 1.1596634000636439 0 0 0
383 0 2 0 1.4694057020659796 22.50164710035228 0.5093377704141415 0 0 0
384 0 2 0 1.3542949864991576 24.026929498014336 0.6325457355522306 0 0 0
372 0 2 0 2.7224920660106706 24.038568963385643 3.7531391054293057 0 0 0
458 0 2 0 0.3398943086958463 22.338431236068097 3.830226670825886 1 0 0
459 0 2 0 0.2559084372542887 22.98370507159903 2.4384520172299537 1 0 0
374 0 2 0 2.3636451582170768 21.797509044997117 4.150906889343377 0 0 0
385 0 1 0 4.810810029789153 24.456360263495533 0.7266164908670313 0 0 0
381 0 2 0 4.58070708786118 22.764234767550096 0.4983056166439107 0 0 0
379 0 1 0 4.67512758041228 21.793167919027383 0.31715038292270903 0 0 0
367 0 1 0 6.167215590979099 23.19849488911741 3.833848942755038 0 0 0
368 0 2 0 5.2227521155720105 23.175911867802846 3.6530984697446693 0 0 0
380 0 2 0 5.40828159046384 21.523643218264006 0.8266688307400538 0 0 0
414 0 2 0 7.056288731223533 23.144702154374517 2.326535462104161 0 0 0
412 0 1 0 7.724333855752377 23.10663970382301 1.5933039858031466 0 0 0
413 0 2 0 7.42185852064776 23.92156218508658 1.128209252852794 0 0 0
369 0 2 0 6.339042937744017 22.307376009866182 4.191408025030268 0 0 0
1845 0 2 0 7.8507541942305545 21.940536056729727 0.14613756191288857 0 0 1
415 0 1 0 10.837878599214221 24.356453356839094 0.7709363486338846 0 0 0
400 0 1 0 9.761731348390578 23.05513248379416 3.6347071156620996 0 0 0
401 0 2 0 10.753266411420467 23.092141601146196 3.4687792260105486 0 0 0
402 0 2 0 9.257662771176834 23.0925280207482 2.842002216608162 0 0 0
409 0 1 0 11.081633265746838 21.66285430920585 0.29473589030390784 0 0 0
410 0 2 0 10.36666406067856 21.253448004484092 0.7756061618126923 0 0 0
411 0 2 0 10.964198668981734 22.63206081594995 0.4145067604954278 0 0 0
438 0 2 0 12.372061152170666 20.808890535976385 1.5332545122505687 0 0 0
397 0 1 0 12.479835994001423 23.102567012331633 3.6023019402546774 0 0 0
398 0 2 0 12.72328126526359 23.942736386542695 4.0732792252244945 0 0 0
426 0 2 0 15.910310820141168 20.80761387341477 1.5537218200800482 0 0 0
399 0 2 0 12.77174711603384 23.20740642979013 2.6971489281911323 0 0 0
430 0 1 0 15.745656143454433 23.3097053555617 3.4820766259682254 0 0 0
431 0 2 0 15.303631731260452 22.460264667813757 3.666628309122236 0 0 0
442 0 1 0 13.98578506314846 23.229633853449585 1.2650077215373536 0 0 0
443 0 2 0 14.809027643427504 23.33535959818427 1.7759071081132325 0 0 0
444 0 2 0 13.99766813841276 23.854415790425584 0.5754151599338422 0 0 0
1875 0 2 0 14.31517358617768 21.70040005885967 -0.027465772309590297 0 0 1
432 0 2 0 16.714309761048288 23.17649446950196 3.555860379107347 0 0 0
445 0 1 0 16.859551793577317 24.653229682480013 0.5912937169444635 0 0 0
447 0 2 0 17.118190926061693 23.74635999118494 0.4788572293500797 0 0 0
439 0 1 0 17.23760128482204 21.63816400909785 0.48311158078201444 0 0 0
427 0 1 0 18.546546182874454 23.1798561615707 3.4119353386338327 0 0 0
429 0 2 0 18.95507564366107 23.93497649566991 3.812020585339049 0 0 0
440 0 2 0 17.87604511076931 21.160650639715563 1.0048283862628582 0 0 0
474 0 2 0 19.315048992101467 22.983373538816796 1.8245655443424216 0 0 0
428 0 2 0 18.9184749459834 22.454128391526627 3.9326014029384915 0 0 0
473 0 2 0 19.82116231742446 23.702483253619448 0.5687431794130199 0 0 0
472 0 1 0 20.008455637378535 22.953933825568757 1.1176586399048467 0 0 0
118 0 1 0 20.619607639320908 24.65423276866136 4.368148319962467 0 -1 0
457 0 1 0 24.643760348243262 22.879322592361405 3.2757444771848534 0 0 0
460 0 1 0 21.99147533786311 22.963199207142495 2.9844525226586867 0 0 0
461 0 2 0 21.460630496884566 22.901606625995562 2.1589100233216576 0 0 0
462 0 2 0 22.921470136548596 22.958475419119132 2.8734881150211153 0 0 0
469 0 1 0 23.45769336798237 21.748488395688295 0.6091920560557069 0 0 0
471 0 2 0 22.77800534044777 21.417591030292414 1.261030860107904 0 0 0
477 0 2 0 23.22410662413902 23.72831833284733 0.7869871550778361 0 0 0
120 0 2 0 21.11223507631323 23.93788973523513 3.8876613098105492 0 -1 0
465 0 2 0 21.1493900321133 21.460095805860504 4.251393590817776 0 0 0
13 0 1 0 1.677941990461862 2.8963790515918757 4.971689081396891 0 0 0
14 0 2 0 1.7646433869216618 1.9536419779213943 5.070099973245216 0 0 0
15 0 2 0 1.668864782022328 3.265228684845882 5.8966917329370885 0 0 0
484 0 1 0 3.1209472606681885 1.3054096425183397 7.775028220668405 0 0 0
485 0 2 0 2.1449356442213383 1.3344907716220844 7.866314112540824 0 0 0
486 0 2 0 3.3456347124703916 2.2393584124825834 7.44324788615687 0 0 0
28 0 1 0 1.4248220354006391 0.10077559798589794 4.861910052572249 0 0 0
496 0 1 0 0.253875850954062 1.474365271044078 7.379707551643991 0 0 0
498 0 2 0 -0.03023178421488651 1.3653142499485051 8.315621267189991 0 0 0
29 0 2 0 0.5137959096874923 0.07871012874315403 4.582862326973829 0 0 0
3 0 2 0 4.516031631104442 1.0693962193489122 4.807070033858909 0 0 0
866 0 2 0 4.254184610327156 0.08729693526858025 6.668737569292662 0 1 0
500 0 2 0 4.398861118482013 3.2741473380730692 5.52919750864637 0 0 0
44 0 2 0 7.434688422932809 2.1711166505765873 4.634940682143754 0 0 0
499 0 1 0 4.755470596390803 3.5104873524485263 6.4356785564517835 0 0 0
501 0 2 0 5.442644935743276 2.8586195483370913 6.555001975388666 0 0 0
526 0 1 0 6.223243513834911 1.5298425767580976 7.5589177726467796 0 0 0
527 0 2 0 7.196800717086929 1.5146377369956376 7.737432403713454 0 0 0
528 0 2 0 5.795161844827695 1.7632598825745618 8.451492642657373 0 0 0
58 0 1 0 7.801052481234686 0.12601055182402962 4.960201520754544 0 0 0
43 0 1 0 7.526101172296723 3.079401100213786 4.827024146392208 0 0 0
534 0 2 0 7.34655266875624 4.104814363915214 6.549748849162111 0 0 0
33 0 2 0 10.891967313051659 2.030457899997449 4.8639935813946265 0 0 0
514 0 1 0 8.975735099819781 1.4754513430290392 7.707647456819982 0 0 0
516 0 2 0 9.512806150074287 0.8299742832521843 7.205726718640951 0 0 0
529 0 1 0 10.533072235440132 3.3311691272372874 6.028800618553743 0 0 0
531 0 2 0 9.856527744382639 2.8306470327742193 6.5661082257082946 0 0 0
515 0 2 0 9.389033698560667 1.537206627139961 8.577676049120685 0 0 0
558 0 2 0 11.991370116140978 2.272880440923188 7.307364121791427 0 0 0
530 0 2 0 10.681403819079613 4.102863833619226 6.588325630404263 0 0 0
556 0 1 0 12.325932633279725 1.5937809056832082 7.904658302148379 0 0 0