LAMMPS (29 Sep 2021 - Update 2)
  using 1 OpenMP thread(s) per MPI task
echo both

include		in.partitions
variable        pid world 0
include		in.temp
variable        temperature equal 265
variable        tempDamp equal 0.100 # this is 0.1 ps
include		in.pressure
variable        pressure equal 7092.75
variable        pressureDamp equal 1.0 #this is 1ps
include		in.seed
variable        seed world 745823

units           metal
atom_style	full
include		in.box
read_data       iceVI.data
Reading data file ...
  orthogonal box = (0.0000000 0.0000000 0.0000000) to (24.724405 24.724405 22.792372)
  1 by 1 by 1 MPI processor grid
  reading atoms ...
  1920 atoms
Finding 1-2 1-3 1-4 neighbors ...
  special bond factors lj:    0        0        0       
  special bond factors coul:  0        0        0       
     0 = max # of 1-2 neighbors
     0 = max # of 1-3 neighbors
     0 = max # of 1-4 neighbors
     1 = max # of special neighbors
  special bonds CPU = 0.003 seconds
  read_data CPU = 0.037 seconds
include 	in.setup
variable	out_freq equal 500
variable	out_freq2 equal 500

timestep        0.0005

neigh_modify    delay 7 every 1

include         in.deepmd
# This is deepMD model

# create groups ###
#group ox type 2
#group hy type 1

mass 2 15.999
mass 1 1.008

pair_style      deepmd ../graph.pb
pair_coeff      * *

bond_style      none
angle_style     none
dihedral_style  none
improper_style  none
neigh_modify exclude none


neighbor        2.0 bin
neigh_modify    every 10 delay 0 check no

thermo          ${out_freq}
thermo          500
thermo_style 	custom step temp pe etotal epair emol press lx ly lz xy xz yz vol pxx pyy pzz pxy pxz pyz

restart 	${out_freq} restart.lmp.${pid} restart2.lmp.${pid}
restart 	500 restart.lmp.${pid} restart2.lmp.${pid}
restart 	500 restart.lmp.0 restart2.lmp.${pid}
restart 	500 restart.lmp.0 restart2.lmp.0


include         in.dump
dump            myDump all atom ${out_freq2} dump.water.${pid}
dump            myDump all atom 500 dump.water.${pid}
dump            myDump all atom 500 dump.water.0
dump            myDump2 all dcd ${out_freq2} dump.dcd
dump            myDump2 all dcd 500 dump.dcd
dump_modify     myDump append yes
dump_modify     myDump2 append yes


timer           timeout 03:55:00 every 1000
New timer settings: style=normal  mode=nosync  timeout=03:55:00

fix             2 all nph aniso ${pressure} ${pressure} ${pressureDamp}
fix             2 all nph aniso 7092.75 ${pressure} ${pressureDamp}
fix             2 all nph aniso 7092.75 7092.75 ${pressureDamp}
fix             2 all nph aniso 7092.75 7092.75 1
fix             3 all temp/csvr ${temperature} ${temperature} ${tempDamp} ${seed}
fix             3 all temp/csvr 265 ${temperature} ${tempDamp} ${seed}
fix             3 all temp/csvr 265 265 ${tempDamp} ${seed}
fix             3 all temp/csvr 265 265 0.1 ${seed}
fix             3 all temp/csvr 265 265 0.1 745823
velocity 	all create ${temperature} ${seed} dist gaussian
velocity 	all create 265 ${seed} dist gaussian
velocity 	all create 265 745823 dist gaussian

run             400000

CITE-CITE-CITE-CITE-CITE-CITE-CITE-CITE-CITE-CITE-CITE-CITE-CITE

Your simulation uses code contributions which should be cited:

- USER-DEEPMD package:

@article{Wang_ComputPhysCommun_2018_v228_p178,
  author = {Wang, Han and Zhang, Linfeng and Han, Jiequn and E, Weinan},
  doi = {10.1016/j.cpc.2018.03.016},
  url = {https://doi.org/10.1016/j.cpc.2018.03.016},
  year = 2018,
  month = {jul},
  publisher = {Elsevier {BV}},
  volume = 228,
  journal = {Comput. Phys. Commun.},
  title = {{DeePMD-kit: A deep learning package for many-body potential energy representation and molecular dynamics}},
  pages = {178--184}
}

CITE-CITE-CITE-CITE-CITE-CITE-CITE-CITE-CITE-CITE-CITE-CITE-CITE

Neighbor list info ...
  update every 10 steps, delay 0 steps, check no
  max neighbors/atom: 2000, page size: 100000
  master list distance cutoff = 8
  ghost atom cutoff = 8
  binsize = 4, bins = 7 7 6
  1 neighbor lists, perpetual/occasional/extra = 1 0 0
  (1) pair deepmd, perpetual
      attributes: full, newton on
      pair build: full/bin
      stencil: full/bin/3d
      bin: standard
Per MPI rank memory allocation (min/avg/max) = 9.089 | 9.089 | 9.089 Mbytes
Step Temp PotEng TotEng E_pair E_mol Press Lx Ly Lz Xy Xz Yz Volume Pxx Pyy Pzz Pxy Pxz Pyz 
       0          265   -333.91511    -268.1818   -333.91511            0    45444.285    24.724405    24.724405    22.792372            0            0            0     13932.89    46119.063    47474.404    42739.388   -806.07485   -393.00169   -355.09051 
     500    241.57418   -311.22019   -251.29766   -311.22019            0    813.06774    24.969237    25.005977    23.008476            0            0            0    14366.036    2643.9248    2169.1637   -2373.8853   -1535.0513   -1771.9498    908.41343 
    1000    267.60175   -310.34676   -243.96809   -310.34676            0    6016.7102    24.902661    24.915216    22.933582            0            0            0     14229.26    5140.6536     3603.718    9305.7591    695.89838    -647.5584   -855.18818 
    1500    265.20179   -309.74006    -243.9567   -309.74006            0    12125.722    24.945782    24.849503    22.903337            0            0            0    14197.556    10357.006    13154.674    12865.485   -307.66625   -2282.8845    1612.5685 
    2000       261.51   -306.66918   -241.80157   -306.66918            0   -699.16013    24.959484    24.972934    23.008188            0            0            0     14341.27   -1076.7657   -633.32375   -387.39088    1049.3862   -4242.8937   -1017.8925 
    2500     271.7809   -307.64897   -240.23366   -307.64897            0    7785.0893    24.828457     24.88515    22.945186            0            0            0     14176.91    6467.3479     9202.099    7685.8211   -289.77101   -1033.3287    176.86084 
    3000    274.59471   -309.70597    -241.5927   -309.70597            0    7434.7418    24.928112    24.933123    23.033093            0            0            0    14315.889    8210.3376    7064.9596    7028.9282    906.60096    971.22058   -544.24265 
    3500    262.01494   -308.48919   -243.49633   -308.48919            0    4852.7021    24.925398    24.805437    22.955022            0            0            0    14192.755    2415.5307    7976.7865    4165.7891   -55.562363   -148.61645   -52.865768 
    4000    258.28165   -308.39392    -244.3271   -308.39392            0    9267.4532    24.956899    24.931016    22.951195            0            0            0    14280.253    11586.767    6853.2116     9362.381    1410.2795   -264.26672    21.981977 
    4500    265.37725    -309.2602   -243.43332    -309.2602            0     8563.419    24.899376    24.964089    22.874238            0            0            0    14218.404     9157.161    6145.2763     10387.82     1148.031   -794.58037    1820.5445 
    5000    266.43274   -308.48382   -242.39512   -308.48382            0    5486.9773    24.854071    24.883589     22.97769            0            0            0    14210.748     4483.595    7426.2902    4551.0468   -830.52605   -299.78506    119.15536 
    5500    259.01277   -308.29848   -244.05031   -308.29848            0    7155.1775    24.933729    24.877894     23.12266            0            0            0    14342.955    8869.4688    5873.8573    6722.2063    1080.6935    53.650782    1895.1854 
    6000    270.77113   -309.68042   -242.51559   -309.68042            0    10975.928    24.868356    24.744729    22.869219            0            0            0    14072.819    13475.297    10635.272    8817.2146   -127.98013     770.9388    263.99874 
    6500     262.0537   -310.02054   -245.01806   -310.02054            0    3657.8475    25.040116    25.041755    22.960922            0            0            0    14397.611    3234.5911    3242.1707    4496.7806   -887.12772     932.9319    228.58167 
    7000    270.20397   -307.97605   -240.95189   -307.97605            0    8679.5606    24.781857    24.890349    22.889431            0            0            0    14118.866    9703.0427    7820.2968    8515.3422    82.916893    1718.1559    2805.8799 
    7500    265.00884   -308.08559   -242.35009   -308.08559            0    4747.9265    24.936085    24.939178    23.022454            0            0            0     14317.33    4830.6782    5867.8069    3545.2946   -539.71891   -1798.5074   -248.77075 
    8000    261.46652   -308.23598   -243.37915   -308.23598            0    8042.1637    24.936471      24.8491    22.944875            0            0            0    14217.766    8331.7428    6767.9146    9026.8337    1341.7035    -878.5514   -639.00077 
    8500    262.66041   -309.25931   -244.10634   -309.25931            0    7074.2096    24.956572    24.851116    22.928576            0            0            0    14220.272     7052.715    8700.6807     5469.233   -1061.8861    897.81812    517.93911 
    9000    261.54644   -305.76297   -240.88632   -305.76297            0    9442.2651    24.919461    25.003369    22.936999            0            0            0    14291.367    9285.6003    9301.8258    9739.3693   -22.104911    722.20357    538.52032 
    9500    272.37973   -309.34576    -241.7819   -309.34576            0    6206.1197    24.862817    24.912704    22.985475            0            0            0    14237.203    6916.3243     6109.753    5592.2817   -1401.9507    1894.9311    711.18061 
   10000    270.49266   -307.36007   -240.26431   -307.36007            0     8415.373    24.991107    24.831317    23.048806            0            0            0    14303.215    7323.0629    11238.464    6684.5925    1211.9864    505.07421    1359.1425 
   10500    273.89517   -305.51354   -237.57378   -305.51354            0    7865.6406    24.963774    24.935369    22.943883            0            0            0    14282.129    10221.462    6543.7297    6831.7301   -948.25889   -1906.2766    2281.2689 
   11000    267.98689   -307.68367   -241.20946   -307.68367            0    5883.7607    24.846271    25.035144    22.877176            0            0            0     14230.29    9135.6831    4232.2339    4283.3651   -736.47941     579.2861     138.6075 
   11500    270.22686   -309.77189   -242.74206   -309.77189            0    6151.3355    24.894138    24.899303    23.018793            0            0            0    14268.122    7988.2149    4986.3665    5479.4249    136.41639   -1829.3808   -119.03689 
   12000    263.54091   -306.05781   -240.68643   -306.05781            0     8903.487    24.888023    24.705601    23.101559            0            0            0    14204.538    7941.9072    9977.3333    8791.2204    769.21397   -141.84329   -141.92001 
   12500    264.98918      -306.63   -240.89937      -306.63            0    3069.1606    24.951572    24.911587    23.028467            0            0            0     14314.11     3341.822    1790.2257    4075.4341    1588.1058    945.39222   -1390.8859 
   13000      260.872   -304.33582   -239.62647   -304.33582            0    9186.9962    24.841975    25.046522     22.86821            0            0            0    14228.716    8202.7883    8517.5425    10840.658    221.99987    1218.5787   -2450.6785 
   13500    268.45336    -309.6511   -243.06118    -309.6511            0     11241.18     24.86895    24.942847    22.936555            0            0            0      14227.6    12848.439    8623.8753    12251.225   -15.538507   -3001.8095   -919.16484 
   14000    258.21913   -308.53523   -244.48391   -308.53523            0    4589.9002    24.991155     24.82561    23.083406            0            0            0    14321.422    3869.1119    4681.8175    5218.7712    1005.0349    303.57021    -2126.229 
   14500    254.59099   -308.56914    -245.4178   -308.56914            0    9728.7013    24.815369    24.752455    22.969407            0            0            0    14108.758    8968.5811    11382.495    8835.0281     404.3024   -653.07113   -1495.6014 
   15000    266.45227    -308.5663   -242.47276    -308.5663            0    3748.9518    24.906478    25.077171    22.976497            0            0            0    14350.753    4008.5052    3900.8265    3337.5237   -225.80068    86.445521    104.17764 
   15500    265.04152    -307.9338   -242.19019    -307.9338            0    6093.1479    24.826875    24.983729    22.825144            0            0            0    14157.704    4396.6542    6589.1866     7293.603    114.26101    757.06148    -734.4791 
   16000    272.62397   -309.44966   -241.82523   -309.44966            0    8753.1697    25.033766    24.823149    22.955101            0            0            0    14264.688    6542.9429    6694.1191    13022.447    -485.2974   -322.53786   -1395.9722 
   16500    265.38095    -307.4877    -241.6599    -307.4877            0    5626.7855    24.939742    24.786688    23.064123            0            0            0    14257.632    4578.2648     6093.512    6208.5796   -80.919985   -11.553038    4.7768981 
   17000    263.52524   -307.82544   -242.45794   -307.82544            0    9342.8198    24.781971    24.944955    22.957196            0            0            0    14191.797    9877.7311    8235.2243     9915.504   -1156.2249   -1067.3458    164.10904 
   17500    270.93638   -310.38428   -243.17845   -310.38428            0    6968.1695     24.91473    25.041602    22.924075            0            0            0    14302.439    8246.1104    6334.4821     6323.916    208.07335   -634.77318    217.02204 
   18000    264.15228   -310.14307   -244.62004   -310.14307            0    4778.5479     24.95761    24.798352    22.896502            0            0            0    14170.819    3139.1543    4756.2117    6440.2778    87.370035    33.594011   -434.75265 
   18500    259.61692   -308.55208   -244.15404   -308.55208            0     6521.811    24.947299    24.847139    23.024495            0            0            0    14272.171    4450.4544    7918.8179    7196.1608    846.73174   -14.225684   -172.13803 
   19000     267.3223   -309.68674   -243.37739   -309.68674            0    10205.412     24.76692    24.944186      23.0175            0            0            0    14219.996    11139.985    7764.6775    11711.575    657.07797   -859.87171    917.03473 
   19500    264.72641   -308.21414   -242.54869   -308.21414            0    7183.8733      24.8571    24.983957    22.944862            0            0            0    14249.418    8162.4754    6458.9797    6930.1648    -892.9583    775.70379    288.42575 
   20000    263.05598   -309.50074   -244.24965   -309.50074            0    6896.0012    25.044095    24.847743    22.887332            0            0            0     14242.54    4583.3006    9108.5546    6996.1485   -2273.9134    451.50673    283.92495 
   20500    260.77864   -308.75076   -244.06456   -308.75076            0     9638.884    24.956004       24.793     22.93258            0            0            0    14189.171    9575.6463    9672.0255    9668.9803   -884.83047    1650.2635   -734.05037 
   21000    255.75374   -307.20589   -243.76612   -307.20589            0    6589.9138    24.797439    24.962679    23.038372            0            0            0    14260.994    6783.8742    9421.4478    3564.4195    223.84234   -1177.7388   -146.70345 
   21500    257.46457   -309.82226   -245.95811   -309.82226            0     7750.878    24.766032    24.993602    22.921588            0            0            0    14188.288    11990.758     5123.008     6138.868   -288.80349   -1329.8468   -527.74835 
   22000     267.3431   -309.02384   -242.70933   -309.02384            0    4605.6972    25.105237    24.826847    22.869583            0            0            0    14254.242    2398.9232    6597.7567    4820.4117    981.32975    885.78896    215.04291 
   22500    261.97613   -306.95235   -241.96912   -306.95235            0    6770.9274    25.088093    24.788974    22.919588            0            0            0    14253.877    4810.1127    7757.8327    7744.8368   -213.14256    729.55676    1071.8608 
   23000    257.84921   -309.84991   -245.89036   -309.84991            0    6737.3226    24.743787    24.895697    23.042523            0            0            0    14194.513    6548.7452      8954.31    4708.9127   -2050.4975   -263.28284    1415.1603 
   23500    264.20728   -308.44323   -242.90656   -308.44323            0    6871.1129     24.80505    24.973592    23.093577            0            0            0    14305.806    9162.1865    4512.7059    6938.4463    1435.4777   -981.20051    704.58192 
   24000    270.88774   -307.25086    -240.0571   -307.25086            0      7655.29    24.996786     24.86902    22.892393            0            0            0    14230.954     5581.735    8558.3447    8825.7903   -942.29566   -263.85516    1175.7274 
   24500    267.12377   -308.93472   -242.67461   -308.93472            0    6035.8465    25.021363    24.931845    22.860969            0            0            0     14261.33      4783.12    5656.6367    7667.7828   -1591.7375    281.99243    1103.8818 
   25000    270.28095   -306.06641   -239.02316   -306.06641            0    10790.071     24.86051    24.986787    22.953168            0            0            0    14258.146    10890.375    8971.7812    12508.056   -1229.0226   -320.71721    1729.7353 
   25500    271.76024    -308.1445   -240.73432    -308.1445            0    2742.3038     24.80624    24.946656    23.093667            0            0            0    14291.117    5060.9679    3407.4288   -241.48529   -953.73665   -178.79116   -563.19464 
   26000     278.1126   -306.92864   -237.94274   -306.92864            0    7812.8149    24.974044    24.847327    23.040845            0            0            0    14297.725    6995.6983    7680.0129    8762.7336    2073.7886    1326.5372   -909.54352 
   26500    266.91008   -309.08296   -242.87586   -309.08296            0    8021.0642    24.999864    24.836249    22.933724            0            0            0    14239.615    6548.3415    9638.2954    7876.5558    1775.0967    2590.7318   -761.01037 
   27000    267.27105   -307.83331   -241.53667   -307.83331            0    5439.6809    24.891744    25.044975    22.914741            0            0            0     14285.35    5372.2043    5279.4919    5667.3466    755.08168   -129.68494   -196.86355 
   27500    268.56949    -309.0196   -242.40088    -309.0196            0    5602.8863    24.829638    24.972054    22.937207            0            0            0    14222.148    5358.5666    4792.5044    6657.5879    1016.7847    755.29397    1529.0228 
   28000    261.53318   -308.40494   -243.53158   -308.40494            0    4883.2084    24.926066    24.878022    23.012399            0            0            0    14270.247    5115.0337    4530.9198    5003.6718   -981.01377     2191.377   -2006.3238 
   28500    264.46769    -307.0461   -241.44483    -307.0461            0    6899.1663    24.938324    24.884753    22.991664            0            0            0     14268.26    5970.3416    5530.6068    9196.5504    1029.4927    2016.6443    1302.2974 
   29000    259.69798   -307.57439   -243.15625   -307.57439            0    7735.0023    24.867093    24.920627    22.943214            0            0            0    14217.992    7918.8466    8987.2951    6298.8651   -869.22538   -55.072648   -2934.4802 
   29500    265.22824   -306.14693   -240.35701   -306.14693            0    5318.2493    24.951386     24.98983    22.909371            0            0            0      14284.7    6702.1828    5458.7179    3793.8473   -696.84252    536.48893    -264.3738 
   30000    270.97899   -304.96046   -237.74406   -304.96046            0    7423.7629    25.003855    24.870671    22.921274            0            0            0    14253.884    6513.2578    8297.4169    7460.6141    380.92888    257.84329   -2523.9259 
   30500    273.06176   -307.73741   -240.00438   -307.73741            0    7114.5951    24.919032    24.922046    23.062269            0            0            0    14322.436    8528.1481    7905.5866    4910.0506   -866.59795    725.14826   -2306.8449 
   31000     272.5194   -306.38982   -238.79132   -306.38982            0    6827.9836    24.742039     24.88988    23.073308            0            0            0    14209.152    7613.3936    7154.6157    5715.9415   -795.37946    350.49249   -566.80543 
   31500    271.60385   -308.23999    -240.8686   -308.23999            0    6108.5108    25.022815    24.901955     22.97322            0            0            0    14315.004    5951.2905    6644.1539    5730.0879     721.9229    138.45312    2593.0752 
   32000    269.30498   -308.32863   -241.52747   -308.32863            0    7864.2419    25.022532    24.917371    22.816023            0            0            0    14225.692    8581.8297    5974.7952    9036.1007   -537.26625    1750.0827   -1320.2084 
   32500    272.17532   -308.46317   -240.95002   -308.46317            0    7431.8386    24.885571    24.979266    22.937707            0            0            0    14258.613    8031.2427    6928.8802     7335.393    1079.8685    472.20081    2917.5227 
   33000    265.26244   -306.57144   -240.77303   -306.57144            0    6836.8263    24.831508    24.929581    23.095323            0            0            0    14296.908    7115.3557     5987.601    7407.5223   -1751.6193   -518.31213   -2004.9123 
   33500    263.37398   -309.52824   -244.19827   -309.52824            0    6589.3042    24.912454    24.789007    23.024668            0            0            0    14218.999    4422.3932    8633.5763    6711.9432   -478.64261     1676.205   -1822.8148 
   34000    258.02628   -308.77979   -244.77632   -308.77979            0     7106.863     25.00375    24.866954    22.923904            0            0            0     14253.33     7189.972    6776.8136    7353.8035   -957.58599     905.4203    118.15139 
   34500    252.34978   -308.05932    -245.4639   -308.05932            0    9490.4125    24.833625    24.984099    22.873199            0            0            0    14191.579    10860.438    7627.0998    9983.6995    459.42453   -1630.5648   -886.18355 
   35000    262.68269   -311.30022   -246.14172   -311.30022            0    6205.9489    24.859018    24.924449     23.02905            0            0            0    14268.738    4433.8074    8813.9835    5370.0558    38.871648   -287.29379     684.7832 
   35500     266.0427   -308.53449   -242.54254   -308.53449            0    8076.2365    24.924529    24.723497    23.081361            0            0            0    14223.231    7791.6542     6318.233    10118.822    969.76651    693.37299    777.40668 
   36000    260.36699   -308.55208   -243.96799   -308.55208            0      5978.31    24.942542    24.878022    23.001221            0            0            0    14272.743    6787.7207    7966.5519    3180.6574    -1391.512   -503.65154   -93.153225 
   36500    259.18909   -307.71855   -243.42664   -307.71855            0    10029.291    24.894395    25.075874    22.798238            0            0            0     14231.77    11412.738    7957.2213    10717.913    209.96623    282.66651    37.326839 
   37000    266.19011   -310.41541    -244.3869   -310.41541            0    7779.1538    24.916294    24.968728    22.855275            0            0            0    14218.911    8433.4032     5615.515    9288.5433    -872.0442   -662.32451   -1432.7617 
   37500    262.10288   -308.91698    -243.9023   -308.91698            0    7311.7388    24.973985    24.797913    23.120505            0            0            0    14318.591    5681.7761    9278.3096    6975.1307   -300.68539    919.91561   -814.90483 
   38000    273.77937   -308.79681   -240.88577   -308.79681            0    7856.8709    24.793213    24.754048     23.04727            0            0            0    14144.856    9624.4575     7170.986    6775.1692    435.17257    1501.0888    1397.8329 
   38500    267.85395   -308.80403    -242.3628   -308.80403            0    4856.4948    24.905083     25.04968    22.988767            0            0            0    14341.872    3527.8691    6502.0784    4539.5369   -869.17056   -1325.9803    1129.1302 
   39000    268.91173   -310.02557   -243.32196   -310.02557            0    10940.433    24.915939     24.94323    22.835397            0            0            0    14191.834     10898.32     10429.71     11493.27   -279.54642   -2435.1554    1085.7199 
   39500    273.95044   -308.87294   -240.91947   -308.87294            0    10055.231    24.942105    24.891414      22.9279            0            0            0    14234.655    10777.032    9396.7373    9991.9249    332.76424    -1111.925   -1579.5297 
   40000    260.73781   -308.86928   -244.19321   -308.86928            0       5681.3    24.895543    24.895769    23.027096            0            0            0    14272.049    3994.8398    5593.8068    7455.2533    886.92204    1518.8565    2762.1714 
   40500    266.84044   -310.43673    -244.2469   -310.43673            0    6570.3377    24.816969    24.881835    22.965804            0            0            0    14181.194    8787.3971    6075.5094    4848.1066   -850.02265   -208.87418   -2703.8683 
   41000    261.63836   -309.68547   -244.78602   -309.68547            0    2564.3643     24.97353    24.949644    22.970718            0            0            0    14312.611    1795.1035    2200.1124     3697.877    628.78797   -1483.3717    1938.3366 
   41500     265.5584   -308.27709   -242.40528   -308.27709            0    6346.1783    24.898065    24.829866    22.853118            0            0            0    14128.154     6675.699    5237.8918    7124.9442   -649.88033   -1915.2536    585.24026 
   42000    263.49506   -308.13219   -242.77218   -308.13219            0    6614.5964    24.996769    24.928186    22.969182            0            0            0    14312.651    6038.8419    9076.0821    4728.8652   -1017.9258    433.13683    2555.8204 
   42500    263.78761   -307.00918   -241.57661   -307.00918            0    8279.8575    24.882199    24.917007    22.957182            0            0            0    14233.222    8851.4037    10242.167    5746.0015    -1790.196    407.76606    1284.5984 
   43000    268.10188    -308.3155   -241.81277    -308.3155            0    6031.7906    24.845879    24.863864    23.032961            0            0            0    14228.947    6385.5174    7174.3699    4535.4845   -266.67005    -912.6411    1864.6399 
   43500    267.41275   -307.28199    -240.9502   -307.28199            0    7105.4698    24.912877    24.912349    23.043334            0            0            0    14301.575    7048.7642    8726.6059    5541.0394    634.48423    130.52868   -1661.8042 
   44000    263.80806   -309.13901   -243.70136   -309.13901            0     7045.622    24.876636    24.883693    22.858309            0            0            0    14149.809    6800.9557    6062.2964    8273.6139   -972.18721    433.49136    2246.6574 
   44500    266.00768   -309.14833   -243.16507   -309.14833            0    5883.2189    24.975716    25.045395    22.960903            0            0            0    14362.657    5668.3402    7233.7459    4747.5706   -632.16293   -75.061929   -1578.5466 
   45000    263.32933   -309.07658   -243.75769   -309.07658            0    11165.125    24.769697    24.780656    22.940192            0            0            0    14080.904    10299.122     10629.36    12566.893    457.45285    1230.1287   -1594.1924 
   45500    258.88478   -309.85404   -245.63762   -309.85404            0     6233.061    24.973171    24.755475    23.218287            0            0            0    14354.072    4679.8822    7873.2715    6146.0292    1355.6205    2559.9324    1161.2051 
   46000    265.21617   -308.48275   -242.69582   -308.48275            0    7208.4668    24.863016    24.830936      22.9974            0            0            0     14197.95    7797.9241    7875.6123    5951.8639    2158.4295   -609.83563   -481.62269 
   46500    265.95167   -308.62822   -242.65885   -308.62822            0    8114.1472    24.889186    24.984635    22.880888            0            0            0    14228.417    8620.2871    9969.6029    5752.5517    385.73541   -1984.1747    -686.0163 
   47000    266.99978   -309.00977   -242.78042   -309.00977            0     6763.148    24.958559    24.988026    22.965626            0            0            0     14322.86    6229.1223    5564.6971    8495.6245   -1599.7065    484.70715    553.44223 
   47500    266.18147   -306.79913   -240.77276   -306.79913            0    4893.6506    24.864471    24.816856      22.9946            0            0            0    14189.002     5764.473    6580.3053    2336.1736    1889.2939    1752.7537      416.045 
   48000    265.82695   -308.81405   -242.87562   -308.81405            0    5678.9369    24.919416    24.868798    23.104294            0            0            0    14318.098     6088.832    4920.4445    6027.5341    -27.90286   -192.84395    -416.2293 
   48500    265.66679   -308.11233   -242.21363   -308.11233            0     8582.255     24.82567     24.90976    22.951325            0            0            0    14193.133    8509.0398    8761.7649    8475.9605   -1102.0215   -33.225786    768.09467 
   49000    266.83999    -306.8287   -240.63898    -306.8287            0    6416.6263    24.958341    25.000715    22.943003            0            0            0    14315.892     7025.545      6288.26    5936.0737    -130.7801   -1608.9683    1360.4586 
   49500     270.6168   -303.44056   -236.31401   -303.44056            0    5994.6593    24.956619     24.92444    22.946014            0            0            0    14273.103    4957.6228    8653.4258    4372.9294   -1732.4209    318.16099    1803.4895 
   50000    271.03752   -306.93818   -239.70727   -306.93818            0    7387.8002    24.932771      24.8744    23.047545            0            0            0    14293.805    8513.6119    7921.6177    5728.1711    274.65757   -1114.0443    1711.0236 
   50500    259.79123    -306.3325   -241.89123    -306.3325            0    6899.5176    24.777631    24.890782    23.032189            0            0            0    14204.748    8720.3997    6923.0581    5055.0949   -1116.0229    273.26451   -1805.3841 
   51000    273.92899   -308.63252   -240.68438   -308.63252            0    6504.5485    24.859609    25.031341    22.933712            0            0            0    14270.946    5845.3352    5811.4434     7856.867    1007.2938   -14.723061    1002.9303 
   51500    268.93833   -308.34837   -241.63816   -308.34837            0     5774.878    25.050275    24.902554     22.82806            0            0            0    14240.505    4435.2627    4373.0045    8516.3669    2536.7805    692.63844   -2502.1865 
   52000    267.05004   -311.11264   -244.87082   -311.11264            0    6653.8449    24.991294    24.742175    22.943445            0            0            0    14186.826     5787.749     5871.453    8302.3327    126.20951   -1751.8763    1618.3652 
   52500    270.58958   -307.93971    -240.8199   -307.93971            0    5769.2995    24.815515     24.91497    23.167846            0            0            0    14324.166    6231.6519     5298.766    5777.4805    29.847326    606.38493    230.22101 
   53000    265.03934   -308.53908   -242.79601   -308.53908            0    6480.0791    24.716222    24.908755    23.058635            0            0            0    14196.056    8843.6012     4504.535    6092.1011   -33.306956    351.05183    1423.2334 
   53500    263.43568    -308.0981   -242.75282    -308.0981            0    7277.1981    25.026773    24.903477    22.881441            0            0            0    14260.942    8806.5361    6281.0566    6744.0016    201.20357    1332.1012    1278.0416 
   54000    267.87483   -306.70407   -240.25766   -306.70407            0    7479.1592    25.075748    24.881098    22.799165            0            0            0    14224.676    7596.8455    7997.5749    6843.0572      46.6485    232.26577    1044.3883 
   54500    265.99161   -310.82194   -244.84267   -310.82194            0    8125.5012    24.844247     24.94192    22.915265            0            0            0    14199.746     7170.688     7679.227    9526.5886    1511.4182    748.45222    2776.3724 
   55000    268.46295   -309.33962   -242.74732   -309.33962            0    9433.6954    24.805012    24.939762    23.010162            0            0            0    14234.802    11865.277    6876.8459    9558.9634    147.18836   -344.53563    219.38656 
   55500    261.83035   -309.16071   -244.21364   -309.16071            0    8107.7902    24.945959    24.846441    22.967174            0            0            0    14235.475    5198.9825    12379.425    6744.9632   -1096.2347   -54.130933   -1046.8985 
   56000    272.27396   -307.75879   -240.22118   -307.75879            0     10103.37    24.939445    24.899315    22.892689            0            0            0     14215.79      13594.7    7598.9251    9116.4858    120.95911   -1052.2803     1353.766 
   56500    266.18207   -308.49922    -242.4727   -308.49922            0    5369.4703    24.851631    24.997374    22.951932            0            0            0    14258.326    5475.8917    7804.0022     2828.517    219.01541   -693.52706     904.4325 
   57000    265.66305   -309.36283   -243.46505   -309.36283            0    6165.7166    24.803572    24.911873    22.968135            0            0            0    14192.089    7477.3394    4232.0345     6787.776    656.31924    2094.4536   -1284.9655 
   57500    264.20969   -308.25008   -242.71281   -308.25008            0    7390.6595     24.99403    24.791794    23.026576            0            0            0    14268.345    4800.4471    7976.4656    9395.0656   -413.95505   -379.82363    1997.3735 
   58000    262.60704   -308.44692   -243.30719   -308.44692            0    8598.4038    24.981727    24.764622    22.959515            0            0            0    14204.203    11313.192    7879.0266    6602.9924   -4.8255503   -2024.2066    252.36199 
   58500    267.68023   -307.89247   -241.49433   -307.89247            0    4808.5483    24.833368    25.073958    22.834418            0            0            0    14218.326    5932.8138    2672.4885    5820.3426   -1226.5686    3578.2138    230.18835 
   59000    263.69554    -307.8452   -242.43546    -307.8452            0    6120.3829    24.846225    25.168683    22.889332            0            0            0     14313.77     6209.087    4694.3182    7457.7436      77.2516   -1728.4657    2451.2908 
   59500    269.33523   -308.34394   -241.53527   -308.34394            0    9047.8222    24.915032    24.692829    23.000088            0            0            0    14150.175    9599.7325    6961.5526    10582.181   -843.42897   -1576.8255    898.62396 
   60000    259.62901   -308.45242   -244.05139   -308.45242            0    8669.0602    24.992621     24.73187    23.149477            0            0            0    14309.022    6459.8028    11469.317    8078.0604   -355.18155   -1568.2697    763.65422 
   60500    264.05733   -308.43028    -242.9308   -308.43028            0    5839.9998    24.831219    24.906122    23.012207            0            0            0    14231.885    4809.4315     8873.174    3837.3937    625.98763    656.45355    439.10518 
   61000     265.5509   -308.92624   -243.05628   -308.92624            0    6082.5832     24.88116    24.989007    22.934897            0            0            0    14259.898    5329.8497     7071.839    5846.0608    268.99905     1581.756    1072.7299 
   61500    269.66976   -307.68428   -240.79264   -307.68428            0    8115.2764    24.932803    24.870515    22.938013            0            0            0     14223.67    6180.7992    9319.6706    8845.3596    517.05669    -644.8651   -2389.0138 
   62000    267.19087    -307.3503   -241.07354    -307.3503            0    6350.1186    24.944159    24.868202    22.979247            0            0            0    14254.404    5367.8793    6939.7498    6742.7265   -974.28766   -64.782152   -2107.0282 
   62500    265.83271   -308.76372   -242.82386   -308.76372            0    7011.7198    24.833916    24.935935    22.951667            0            0            0    14212.979    7887.7912    4664.0815    8483.2866    1710.1169   -2601.2904    2156.3341 
   63000    267.24467   -304.88928   -238.59918   -304.88928            0    6750.9059    24.887414    24.999379    23.000501            0            0            0    14310.219    8053.6635    7013.4769    5185.5773    114.62494    3021.8824   -1002.2418 
   63500     266.7727   -309.30149   -243.12847   -309.30149            0    8096.1463     25.00347    24.826083    22.941056            0            0            0     14240.39         7316    7099.2273    9873.2117    536.35574   -1735.7663   -1584.1542 
   64000    275.07388   -308.89315   -240.66101   -308.89315            0    6038.9904    25.044785    24.805208    22.945989            0            0            0    14254.992    6086.7749    5255.1517    6775.0448    -1824.649    471.29273   -1302.9393 
   64500    266.33733   -309.36492   -243.29989   -309.36492            0     5156.808     24.88923    24.995371    22.977348            0            0            0    14294.565    3472.8282    5774.3896     6223.206    832.10877    882.46011    774.54429 
   65000    268.32298   -312.11519   -245.55761   -312.11519            0    10197.249    24.740225    24.957768    22.930335            0            0            0    14158.583    11305.599    11398.634    7887.5137   -1506.4123    1623.0242   -1021.5276 
   65500    260.72622   -308.50114   -243.82794   -308.50114            0    5517.9256    24.974171    24.955181    23.006373            0            0            0    14338.376    4197.8735    5981.8964    6374.0068    597.36896    272.05082   -419.39578 
   66000    274.09943   -307.17493    -239.1845   -307.17493            0    9836.2093    24.966836    24.763948    22.932516            0            0            0    14178.657     9353.855     10653.28    9501.4927     1404.602    -1641.649   -459.48702 
   66500    270.57546   -307.75267   -240.63637   -307.75267            0    6465.4609    24.937101    24.938327    23.033243            0            0            0    14324.134    4698.6381    5460.4565    9237.2882    691.30298    752.87824    2279.3625 
   67000    260.28701   -307.90244   -243.33819   -307.90244            0    6753.8314    24.802165    24.924941    22.977385            0            0            0    14204.447    8266.4882     4651.537     7343.469   -370.60541   -646.65969   -78.981258 
   67500    261.99929   -308.48382   -243.49483   -308.48382            0    9369.8815    24.914153    24.942232    22.951576            0            0            0    14262.444    7305.3151    11186.301    9618.0287    -64.74289    533.46815   -429.24681 
   68000    268.85924   -310.55196   -243.86137   -310.55196            0    4577.5076    25.004722    24.854501    22.926532            0            0            0    14248.378     2418.487    5549.3579     5764.678   -117.72348    2363.7757    -3081.297 
   68500    266.19693   -308.15713   -242.12692   -308.15713            0    8613.2638    24.880693    24.828655    22.953831            0            0            0    14179.824    8791.6131     7500.895    9547.2834    830.08311   -603.55363   -1262.0392 
   69000    259.07261   -310.00407   -245.74106   -310.00407            0    6630.0289    24.780508    25.026747    23.104014            0            0            0    14328.543    6888.2518    6735.1245    6266.7102   -1008.0978   -733.32837   -74.304569 
   69500    264.57828   -310.00949   -244.38079   -310.00949            0    9577.6367    24.724322    24.912696    22.909983            0            0            0    14111.393    10769.532    7526.3235    10437.055    1677.4333    2269.3629   -820.97431 
   70000    261.44446   -309.36043   -244.50908   -309.36043            0    5636.5878     25.18807    24.882949    22.851345            0            0            0     14322.16    4259.5041    5918.7959    6731.4635   -650.76229   -509.84615    528.72343 
   70500    269.54173    -309.8015   -242.94162    -309.8015            0    7067.7802     25.06941    24.772424    22.839124            0            0            0    14183.782    6669.8261    8136.1345      6397.38    43.031755    223.27571   -1581.8526 
   71000    259.39245   -309.40264   -245.06028   -309.40264            0    9850.1355    24.790658    24.950561    23.011192            0            0            0    14233.362    10704.009    9366.1108    9480.2865    645.12605    379.59909   -696.04722 
   71500    262.30302   -307.78979   -242.72547   -307.78979            0    5767.6348    24.802238    24.961552    23.053117            0            0            0    14272.239    7563.6347    4807.5082    4931.7614    492.29823    1625.4884    703.51234 
   72000    270.09986    -306.4323   -239.43398    -306.4323            0    6529.7258    24.951348    24.843387    22.997853            0            0            0    14255.817    5450.5365    6868.4415    7270.1993     614.2149   -2688.3517    1687.3676 
   72500    268.85032   -309.62961   -242.94123   -309.62961            0    4995.6566    25.049135    24.896833    22.961075            0            0            0     14319.54    5194.3768    4541.2991    5251.2938    225.99592   -1501.2052    112.00981 
   73000    264.98423   -309.46259   -243.73319   -309.46259            0    8185.5168    24.842725    24.934342    22.934041            0            0            0    14206.194    9756.0949    7387.3425    7413.1131   -1406.7982     646.8042    3679.7436 
   73500    264.21686   -306.92824   -241.38919   -306.92824            0    7427.2476    24.818461    25.001182    22.997569            0            0            0    14269.781     6987.373     8488.026    6806.3438   -229.95145    -165.5685    1866.1342 
   74000    266.43462   -308.42142   -242.33226   -308.42142            0    6825.0753    24.949658    24.866455    22.951819            0            0            0    14239.528     7145.398     5518.489     7811.339    1395.6213   -3376.7384   -334.18456 
   74500    265.99212   -308.65566   -242.67626   -308.65566            0    6846.5616     24.95545    24.849115    22.933831            0            0            0    14221.747    7548.8607    6600.4651     6390.359   -905.26719    2816.8042    92.221476 
   75000    265.21938    -307.0737   -241.28597    -307.0737            0    4504.3756    24.873888    24.975247    23.031438            0            0            0    14307.855     2301.911    5619.4575    5591.7582   -565.48597    773.50851    413.33588 
   75500    271.22271   -309.20549   -241.92864   -309.20549            0    8265.0692    24.786218    24.866194    23.051037            0            0            0    14207.251    6854.8342    10910.149    7030.2247   -1697.3309    1415.5619   -206.37797 
   76000    262.54298   -307.97626   -242.85242   -307.97626            0    7335.7723    24.982875    24.875648    22.993855            0            0            0    14289.881    9735.4758    5599.9463    6671.8947    386.72973   -17.361235    645.22483 
   76500    259.10569   -312.25469   -247.98347   -312.25469            0    6292.7873    24.949856    24.942398    22.829847            0            0            0    14207.224    4871.5334    6010.0064    7996.8222   -1344.9546    1223.7936   -537.85114 
   77000    255.13176   -310.95135   -247.66586   -310.95135            0    6861.1569    24.813781    25.041793    22.844128            0            0            0     14194.92     8995.948    3590.5137    7997.0089    2535.8747    1925.7752   -1724.9007 
   77500    257.86495   -308.09727   -244.13381   -308.09727            0    5627.7596    24.917017    24.899809    23.048565            0            0            0    14299.997    3948.0993    5546.5039    7388.6756    805.61053   -1141.8764    477.74659 
   78000     276.5447   -307.76277    -239.1658   -307.76277            0    9648.9586    24.915006    24.691967    23.080199            0            0            0     14198.95    5802.0789    13272.112    9872.6847    1135.1153    364.47564    465.63518 
   78500     270.3781   -311.89561   -244.82826   -311.89561            0     4926.115     24.91457    24.950881     22.98632            0            0            0    14289.227    4290.0529    5151.3132    5336.9788    310.83201    169.49732   -999.11211 
   79000    264.17473   -310.37202   -244.84342   -310.37202            0    7177.6301    24.818306    25.068751    22.856756            0            0            0    14220.649    7317.8446     7228.192    6986.8536    839.82594   -1163.2627    1323.2918 
   79500    261.96268   -307.75446   -242.77456   -307.75446            0     5535.361    24.889067    24.958409    22.905523            0            0            0    14228.717    7294.5092    3207.4432    6104.1305    -871.8319    -16.47253   -894.57608 
   80000     262.9353   -307.27439   -242.05323   -307.27439            0    4455.1668    25.048952    24.802817    23.038901            0            0            0    14313.714    2800.0673    5986.4116    4579.0215    132.60719   -299.12797    2271.8744 
   80500    268.85837   -309.72219   -243.03181   -309.72219            0    7309.4933    24.842051    24.831526    23.002089            0            0            0    14189.208    8338.5744    6132.5413    7457.3642    1237.0439   -417.05947    1104.5677 
   81000    266.99244   -309.83602   -243.60849   -309.83602            0    5616.8791    24.799505    25.027304    22.988706            0            0            0    14268.279    7078.5311    5661.0878    4111.0182   -1203.0738   -1117.5152    894.26327 
   81500    269.34275    -311.1177   -244.30718    -311.1177            0    7912.7531    24.886035    24.944224    22.917695            0            0            0    14226.454    8385.2914     8040.686    7312.2818    810.16141   -532.80886   -58.055041 
   82000    270.87707   -310.34525   -243.15413   -310.34525            0    4562.5867    25.032089    24.795729    22.947365            0            0            0    14243.175    2664.5821     5424.341    5598.8369   -313.37211    74.822894    209.31729 
   82500    269.67279   -306.58096   -239.68856   -306.58096            0    7832.7369    24.982512    24.876731    22.983224            0            0            0    14283.688    8700.1204     6609.707    8188.3834   -1287.1624     11.36296    98.297807 
   83000    264.31953   -307.42089   -241.85638   -307.42089            0    7808.5812    24.776438    24.986891    22.998326            0            0            0    14237.946    8462.6706    6417.3044    8545.7687    1934.0025    -144.1654   -2036.3705 
   83500     272.7954   -310.55243   -242.88547   -310.55243            0    3846.7629    24.893988    24.906809    22.992153            0            0            0     14255.82    1375.5133    5167.0015     4997.774   -529.14377   -22.493285   -2549.9685 
   84000    265.84872   -305.48076   -239.53693   -305.48076            0    6402.4879    25.060305    24.764653    22.970945            0            0            0    14255.992    2874.2463    10740.467      5592.75    876.96815   -180.06527   -1051.7206 
   84500    265.02707   -308.79508   -243.05505   -308.79508            0    8110.4515    24.972213    24.938959    22.932313            0            0            0    14281.809    9926.5124    5738.6103    8666.2317    133.69788    42.329348    282.13282 
   85000    266.40515   -309.20475    -243.1229   -309.20475            0    4796.2525    24.781378    25.038603     22.90362            0            0            0    14211.492    5253.7737    6253.2633    2881.7204   -535.41974   -175.93102   -1672.4203 
   85500    266.36221   -307.08863   -241.01742   -307.08863            0    6985.3272    24.836749    24.876129    23.043757            0            0            0    14237.405    12187.858    4733.8284    4034.2953     881.6747    1835.3411   -232.11764 
   86000    266.76309    -308.3414   -242.17076    -308.3414            0    9276.8264    25.069528    24.730185    23.088039            0            0            0    14313.986    6834.8844    13176.731    7818.8638     719.5714    193.21776    1021.1598 
   86500    262.12284   -309.41942   -244.39979   -309.41942            0    8596.7368    24.923551    24.799287    22.879925            0            0            0    14141.768    7533.4781    8998.9957    9257.7364   -802.63341   -1012.2646   -1878.1836 
   87000    267.55024   -310.22367   -243.85778   -310.22367            0    6268.0038    24.838265    25.129924    22.933193            0            0            0    14314.525    7527.9547    6370.7332    4905.3234   -1202.3695    2917.4112   -176.16375 
   87500    264.38174   -308.18413   -242.60418   -308.18413            0    8748.8015    24.843594    24.914461    22.939495            0            0            0    14198.739    11121.354    6230.2146    8894.8361   -869.50178     1261.258    415.56352 
   88000    270.44808   -308.01084   -240.92614   -308.01084            0    7811.8527    24.984535    24.778951    23.040722            0            0            0    14264.293    5016.7847    9097.1249    9321.6486     272.8856   -3059.9676    3291.8229 
   88500    261.97038   -308.33915   -243.35734   -308.33915            0    5815.9415    24.899218    24.826473    23.064679            0            0            0    14257.656    6226.2598    6121.9009    5099.6638    1247.7557    -951.8589   -708.39503 
   89000     254.6885   -310.03742   -246.86188   -310.03742            0    6222.1216    24.776234     24.95368    22.924168            0            0            0    14173.055    7845.2415    4250.9419    6570.1812    79.229591   -2843.1834    530.75384 
   89500    255.08841   -309.63543   -246.36069   -309.63543            0    7307.3334    24.934002    24.955686    22.895578            0            0            0    14246.661    7757.3182    6034.3469    8130.3351    989.10234    1686.0044    317.30103 
   90000    259.22828   -310.94527   -246.64363   -310.94527            0    8119.0432    24.970257    24.752727    22.917762            0            0            0    14165.056    5654.1678     10375.38    8327.5813   -909.45849   -2339.9746   -963.25546 
   90500    269.14205   -309.59712   -242.83637   -309.59712            0    5684.5667    24.872351    24.870301    23.024517            0            0            0    14242.572    7102.1715    5044.1409    4907.3878   -842.13929    1894.8411   -92.367744 
   91000    260.43916   -307.82681   -243.22482   -307.82681            0    6123.6087     24.78308    24.993699    23.008927            0            0            0    14252.209    4732.6983    7131.6394    6506.4884    135.91688    1166.1253   -58.046789 
   91500    253.11201   -307.40523   -244.62074   -307.40523            0    5212.2325    24.887304    24.874166    22.882563            0            0            0    14165.472    2023.3473    8421.1424    5192.2077    1579.0979    549.67495    1390.1867 
   92000    261.19915   -308.53839   -243.74788   -308.53839            0    7278.4254    25.106972    24.850584    22.858759            0            0            0    14262.104    9319.3992    4394.2676    8121.6093    668.70629   -388.97757   -2828.4711 
   92500    269.56024    -309.0972   -242.23272    -309.0972            0    6873.7995    24.985185    24.918934    22.918554            0            0            0    14269.187    5105.2722    8627.8183    6888.3082   -1074.0534   -1429.7812    242.56511 
   93000    267.02514   -308.41817   -242.18253   -308.41817            0    4953.4351    24.721336    24.899376    23.061354            0            0            0    14195.321    3765.7855    4937.8124    6156.7074    1483.3078   -1713.5527   -430.48621 
   93500     265.0278   -310.25706   -244.51686   -310.25706            0    4938.1038    24.886138    24.887043    23.122978            0            0            0    14321.041    4647.0821    5833.8638    4333.3655   -6.1742216    982.25446    660.26936 
   94000    267.22783   -309.51551   -243.22959   -309.51551            0    8782.4544    24.984042    24.806254    22.788097            0            0            0    14123.162     5907.846    10381.023    10058.494    1439.2758   -493.29435    962.15865 
   94500    257.17819   -308.03136   -244.23826   -308.03136            0    2835.1548    25.046561    25.029419     22.80347            0            0            0    14295.515    3609.8962    2067.0287    2828.5394    807.84841    703.72326   -2016.2087 
   95000    260.51504   -308.87321    -244.2524   -308.87321            0    9484.0596    24.799353    24.954646     22.90697            0            0            0    14176.186    10079.352    11271.948    7100.8784   -292.29306   -292.44937    1295.4876 
   95500    267.78646   -309.44496   -243.02047   -309.44496            0    10431.626    24.867077    24.873234    23.049517            0            0            0    14256.694    10664.018    11921.689    8709.1713   -1381.5558    1572.9742    254.93888 
   96000     264.6394   -308.42082   -242.77696   -308.42082            0    5444.3507    24.919874    24.853986    22.989353            0            0            0    14238.644    5701.8732    6745.7897    3885.3893     1823.787    1534.6575   -1855.2258 
   96500    265.31968    -308.8279    -243.0153    -308.8279            0    8941.4951    24.899356    24.940235    22.902872            0            0            0    14222.587    8107.3567    7384.3889     11332.74    442.84294    2502.7658    136.64797 
   97000    260.55978    -307.6748   -243.04289    -307.6748            0    7602.9906    24.885437    24.960358    22.948584            0            0            0      14254.5    3124.8073    10171.691    9512.4733      178.849    196.11309   -334.35287 
   97500    258.88497   -307.87716   -243.66069   -307.87716            0    7076.3979    24.882894    24.860179    23.002251            0            0            0    14229.036     8971.939    5183.5381    7073.7166    946.02442   -1442.5626     1087.728 
   98000    263.17671   -309.51389   -244.23285   -309.51389            0    3313.4644    24.963989    24.830286    22.992048            0            0            0     14251.92    4277.8798     4027.486    1635.0272     1470.779    -515.2988    125.44927 
   98500    261.68107   -309.57422   -244.66417   -309.57422            0    5585.2062     24.88604    24.935574    22.892019            0            0            0    14205.589    4948.7991    4746.6487    7060.1709   -671.48145    981.97544    565.79617 
   99000    265.27721   -308.93342   -243.13135   -308.93342            0    10336.023    24.868061    25.082647    22.858407            0            0            0    14258.086     12764.25    7113.7482    11130.072    24.498773   -940.99946   -361.28839 
   99500     269.9637   -306.20914   -239.24458   -306.20914            0    8360.0402    24.996774    24.861296     22.93918            0            0            0    14255.604    6692.1318    9075.1219     9312.867     368.9477    59.086951    125.58895 
  100000    266.62339   -308.42238   -242.28639   -308.42238            0    7197.3877    25.087839    24.642612    23.098959            0            0            0    14280.467    6740.5717    10781.772    4069.8197   -2180.7577   -922.78762    1749.2946 
  100500    260.55132   -306.91616   -242.28634   -306.91616            0    9274.1303    24.792003    24.904525    23.092365            0            0            0     14257.99    10994.067    8946.3803    7881.9436   -1160.1275    2025.9656    1353.4207 
  101000    261.93279   -308.08578   -243.11329   -308.08578            0    5531.4062    24.744191    25.128881    22.868609            0            0            0     14219.56    9422.7884    2796.1077    4375.3224   -2254.8486   -1581.7445   -784.97941 
  101500    272.71892   -310.46981   -242.82182   -310.46981            0    8048.4254    24.968806    25.000416    22.854269            0            0            0    14266.332    9739.4651    5068.7618    9337.0492   -511.64824   -210.71479    129.37448 
  102000    262.80104   -306.33727   -241.14942   -306.33727            0    6862.0841    25.009504    24.713815     22.98208            0            0            0     14204.77    3528.6875    10802.347    6255.2184    743.67794    1405.1077   -2059.7587 
  102500    268.24983   -311.06438   -244.52495   -311.06438            0    5457.6713    24.854691    24.904948    23.066729            0            0            0    14278.416    5971.6621    5182.4572    5218.8945   -679.44343    685.90275   -1472.3897 
  103000    259.96834   -308.89708   -244.41188   -308.89708            0    9165.4895    24.787334    24.991815    22.970896            0            0            0    14230.021    8793.9432    8885.5588    9816.9665    537.28612   -244.49576     2293.442 
  103500    259.71242   -308.64958   -244.22786   -308.64958            0    5690.9582    24.964045    24.902131    22.862105            0            0            0    14212.408    4278.0294    5851.6799    6943.1654    727.74224   -180.83137   -109.49021 
  104000    261.47857    -307.7646   -242.90478    -307.7646            0    8190.2924    25.021778    24.870438    22.900691            0            0            0    14251.159    9640.5219    7179.1832     7751.172    649.68104   -2240.5576     185.7084 
  104500    261.30394   -309.17974   -244.36324   -309.17974            0    8746.2625     24.84778    24.896935    22.940022            0            0            0    14191.467    6899.4839    10646.417    8692.8867   -649.08171    792.94569   -1339.2225 
  105000      264.932   -307.02174    -241.3053   -307.02174            0    3861.9486    24.840423    24.972219    23.053526            0            0            0    14300.574    4787.4267    6351.3271    447.09205   -938.04046    2096.8385   -1835.8813 
  105500    273.90963   -307.40412   -239.46078   -307.40412            0    8278.7104    24.910623     24.83159    22.902783            0            0            0    14166.983    9142.6136    9371.6794    6321.8383    1142.1796   -1930.0143    1601.5466 
  106000    261.73833   -307.53237   -242.60812   -307.53237            0    8178.6978    25.109822    24.971082    22.806304            0            0            0    14299.996    6734.4865    8532.9122    9268.6946   -1813.5777   -1242.2054    1130.7524 
  106500    264.62864   -306.28746   -240.64627   -306.28746            0    8645.4101    24.878347    24.968693    22.860036            0            0            0    14200.193    9347.3233    7484.7171      9104.19    -807.7489   -1475.3377    636.87149 
  107000    258.83783   -307.34855   -243.14377   -307.34855            0     6213.162    24.793033    24.923203     23.09078            0            0            0    14268.296    7638.0133    7690.4256    3311.0473    11.372658   -334.97245   -1002.4027 
  107500    270.97381   -307.54925   -240.33413   -307.54925            0    6741.8674    24.888841    24.769727     23.11583            0            0            0    14250.673    6665.7832    8135.0887    5424.7302   -820.13449   -355.01449   -1773.6277 
  108000    266.10015   -307.33893   -241.33273   -307.33893            0    6019.6833    25.043072    24.815973     22.92962            0            0            0    14250.029    4703.4959    7130.4015    6225.1525   -365.77639   -843.53595    1442.7978 
  108500    263.35645   -307.00616   -241.68054   -307.00616            0    8133.8425     24.96256    25.071382    22.738329            0            0            0     14230.69    6435.9961    5772.1204    12193.411    193.04372    781.07838    672.39359 
  109000    259.71205     -307.812   -243.39037     -307.812            0    6800.5566    24.844142    25.048019    22.886686            0            0            0    14242.306    5967.8442    5609.2964    8824.5293    239.24023    1655.9994    1577.1904 
  109500    260.43986   -307.30593   -242.70377   -307.30593            0    5573.6991    24.888219    24.823656    23.071047            0            0            0    14253.675    4672.0074    6368.4767    5680.6133   -1071.9286    37.505017     427.1278 
  110000    264.42492   -307.55469   -241.96403   -307.55469            0    7031.9298    24.893906    24.821505    23.069403            0            0            0    14254.682    7402.3118     6228.237    7465.2407    672.07372    468.82627   -1441.1323 
  110500    261.67703   -309.75633   -244.84729   -309.75633            0    8038.4568    24.899763    24.881364    22.936773            0            0            0     14210.25    10781.003     7858.895     5475.472   -649.65947    409.39449    696.78545 
  111000    270.44472   -310.49041   -243.40654   -310.49041            0    7296.1489    24.913884    24.954916    22.879114            0            0            0    14224.492    7201.8029    8471.1791    6215.4648    1914.5474   -749.15407    2117.5133 
  111500    269.65349   -310.10738   -243.21978   -310.10738            0    6438.6018    24.857565    24.929914    22.957768            0            0            0    14226.859    8855.1779    4628.6928    5831.9348    808.83333   -325.98963    508.66897 
  112000    260.29433   -308.63694   -244.07087   -308.63694            0    7507.4016    24.908934    24.805528    23.041504            0            0            0    14236.868    5586.5309     8610.568    8325.1058   -1017.9942    482.77753    972.44104 
  112500    264.80067   -309.77244   -244.08857   -309.77244            0    6841.5129    24.913597    24.797833    23.029724            0            0            0    14227.838    7412.7265    7757.8046    5354.0076    1346.6074     578.0329    592.77107 
  113000    257.65639   -307.41779   -243.50606   -307.41779            0     7392.547    24.871025    24.964554     22.90291            0            0            0     14220.28      10088.8    3323.7013    8765.1398   -1455.9443   -1606.4058   -523.82348 
  113500     267.2961   -308.62529   -242.32244   -308.62529            0    8083.3309    24.902209    25.088894    22.918696            0            0            0    14318.888    8650.1463    5018.4685    10581.378   -1302.8277   -202.52729    390.98816 
  114000    259.72552   -307.73975   -243.31478   -307.73975            0    8013.1387    24.922335    24.745622    22.890666            0            0            0    14117.101    6266.9343    7968.9158    9803.5661   -1253.2278   -51.722389    379.63289 
  114500    268.31084   -307.83558   -241.28101   -307.83558            0    5514.3501    25.078169    24.736555    23.186876            0            0            0    14383.921     3722.898    7572.6442    5247.5082    1392.6467     175.8867   -92.420828 
  115000    268.47308   -306.86613   -240.27133   -306.86613            0    7978.5487    24.802667    24.870913    23.025378            0            0            0    14203.549    8559.3589    6466.7307    8909.5563    1763.3594    -881.3321    3162.8863 
  115500    262.63272   -308.36852   -243.22242   -308.36852            0    5422.2233    24.806959    25.028526    22.942425            0            0            0     14244.53     5575.178    6342.3213    4349.1707   -1855.9383    189.37106   -2503.8404 
  116000    258.54461   -310.14346   -246.01142   -310.14346            0    6959.5701    24.943723    24.936538     22.95347            0            0            0     14277.29    8134.0485    5361.2211    7383.4406    707.99889    116.19624    335.84946 
  116500    259.79259   -306.45013   -242.00852   -306.45013            0    9482.1383    24.907099    24.808632    22.942352            0            0            0    14176.333    9812.2309    9623.9221    9010.2619    507.80952   -769.56967    1536.2086 
  117000    260.59523   -310.00257   -245.36187   -310.00257            0    4135.7069    24.930719    24.990888    22.996504            0            0            0     14327.76    4140.2692    3715.0786     4551.773    -1334.149    453.27484   -456.03292 
  117500    260.29435   -309.20487    -244.6388   -309.20487            0    9999.2091    24.775173    24.938515    22.867043            0            0            0     14128.54    11361.445    9730.5643    8905.6175   -1433.5145   -2504.1632    212.60542 
  118000    257.63126   -309.90812   -246.00263   -309.90812            0    8158.8138     24.98704    24.925457     22.96077            0            0            0    14300.275    4832.2463    10333.778    9310.4168    1237.7036   -729.54472   -37.675902 
  118500    262.54476   -308.28122   -243.15694   -308.28122            0    4127.4602    24.994125    24.772875    22.948729            0            0            0     14209.31    4055.5803    6203.1314     2123.669   -3369.1603   -652.42051    -696.3367 
  119000    261.27169   -308.23311   -243.42461   -308.23311            0     8459.115    24.887548    24.944188    22.975167            0            0            0    14262.976    7071.9721    9112.9755    9192.3973   -1202.4532    525.87603    2842.2699 
  119500    267.29235   -308.08163    -241.7797   -308.08163            0     7638.394    24.819243    25.041008    22.979664            0            0            0    14281.836    5858.4001    10575.033    6481.7487    149.70864   -1328.4568    203.51479 
  120000    269.33766   -308.63874   -241.82948   -308.63874            0    7753.5882    24.938196    24.842725    22.926892            0            0            0     14203.96    8682.4054    6090.9581    8487.4011    456.48347    622.12412    259.26123 
  120500    264.50572   -308.79103   -243.18033   -308.79103            0    6244.1454    25.062412    24.795459    22.956256            0            0            0    14265.798    3166.2069    8023.0571    7543.1721    -675.3752    602.37791      2035.93 
  121000    257.76962   -307.22867   -243.28886   -307.22867            0    7862.8359    24.839803    24.923303    22.927051            0            0            0    14193.907    8935.4862    6773.1972    7879.8242   -778.87764   -2719.0463    812.57929 
  121500    265.66889   -310.04821   -244.14898   -310.04821            0    7920.6896    24.680678    25.081549    23.025023            0            0            0    14253.171    9025.2496    4795.0806    9941.7387    359.30508    75.631524   -90.234188 
  122000    264.41027    -308.0795   -242.49247    -308.0795            0    7248.2708    24.901627     24.84798    23.044155            0            0            0    14258.689    4392.5185      9718.97    7633.3238    1378.0688   -1545.9466   -1938.5597 
  122500    258.79441   -304.98322   -240.78921   -304.98322            0    6804.0655     25.08174    24.676153    22.976464            0            0            0    14220.613    6056.7528    8593.2732    5762.1704   -1242.0682   -508.36784    26.875925 
  123000    263.20453   -309.42441   -244.13647   -309.42441            0    6484.9475    24.954658    25.006216    22.897066            0            0            0    14288.263    8875.6406    4175.2406    6403.9612   -531.97933   -45.463604    1627.3955 
  123500    262.00292   -307.65296   -242.66308   -307.65296            0    9115.4199    24.794054    25.056872    22.845449            0            0            0    14192.996    8961.5832    9297.8729    9086.8035    -300.1571    1023.3261   -662.55099 
  124000    265.44767   -308.75507   -242.91072   -308.75507            0    7632.8282    24.936103    24.906309    23.012396            0            0            0    14292.224    7523.3528    6035.7824    9339.3494   -1342.5393   -1359.8937    657.07471 
  124500    269.51413   -307.81945   -240.96641   -307.81945            0    6950.8899     24.93356    24.769459     23.04761            0            0            0    14233.992    7518.4169    6345.1472    6989.1058    251.15686     1375.936   -1642.9279 
  125000    266.43373   -305.51071   -239.42177   -305.51071            0    4546.1525    24.918847    24.892444    22.981688            0            0            0    14255.335    7157.1627    1831.8892    4649.4055    269.01152   -2069.0508     657.8071 
  125500    265.29223   -307.88043   -242.07463   -307.88043            0    6313.3843    24.914605    25.023572    22.894601            0            0            0    14273.694    3590.5086    6747.0089    8602.6353     2967.165    -711.0544   -2082.3231 
  126000    268.56712   -307.51642   -240.89829   -307.51642            0     8006.475     24.92647    24.887576    22.869702            0            0            0    14187.436    5453.0799    9297.2825    9269.0627   -399.37823    1619.4103    42.945862 
  126500    259.24894    -309.0819   -244.77515    -309.0819            0    6259.7477    24.956985    24.805945    23.069441            0            0            0    14281.866    8601.3338    3574.8927    6603.0165    1061.4655   -1492.8998     55.05415 
  127000    271.20726   -310.08891   -242.81589   -310.08891            0    8567.4986    24.849029    24.818594    23.018769            0            0            0    14196.088    6806.9314    10230.021    8665.5438    1898.1781    1375.2192    245.02408 
  127500    265.48855    -308.8921   -243.03761    -308.8921            0    8726.4603    24.911396    25.012152    22.886271            0            0            0    14260.153    10680.088    7563.8612    7935.4316   -465.88923    99.585598   -417.41658 
  128000    268.45594   -309.29507   -242.70451   -309.29507            0    5050.0737    25.037542    24.922743    22.809696            0            0            0    14233.347    4096.2162    4623.8233    6430.1815   -1836.7508   -2154.0867    913.24954 
  128500    268.68416   -309.22842   -242.58126   -309.22842            0    7439.0614    24.961093    24.784033    22.964526            0            0            0    14206.696    8208.5341    10574.721    3533.9288   -258.35842    178.57622   -1077.4953 
  129000    266.86631   -308.40062   -242.20438   -308.40062            0    7856.2422    24.856284     24.83413    23.147703            0            0            0    14288.711    8717.2014    8086.9811    6764.5442    836.16417   -460.89665     742.1331 
  129500    258.90281   -305.82837   -241.60747   -305.82837            0    7212.8894    24.766231    24.970516    23.027632            0            0            0    14240.877    10736.188    4725.4826    6176.9982   -711.32034   -346.17526    1459.6912 
  130000    264.60195   -309.05486   -243.42029   -309.05486            0    9868.1135    24.954364    24.955736    22.854222            0            0            0     14232.57    9433.6439    8060.9459    12109.751   -865.64639    987.35847   -1428.2238 
  130500    264.81591   -307.25227   -241.56463   -307.25227            0    5930.2619    25.031982    24.809582    22.871632            0            0            0    14204.038    3065.8658     6734.163    7990.7569     -1655.96   -1223.8358    2397.0037 
  131000    257.39748   -309.70525   -245.85775   -309.70525            0    8256.4041    24.896246    24.902947    23.012693            0            0            0    14267.637    8586.0736    6907.1617     9275.977     38.84687   -738.07191    2500.4183 
  131500    257.83672   -309.96531   -246.00886   -309.96531            0    9028.6714    24.731479    24.901424     23.04242            0            0            0    14190.652    9196.6638    6669.5088    11219.842    1123.6605    321.60703    979.89013 
  132000    264.26871   -309.39193   -243.84002   -309.39193            0     8904.311    24.858517    24.910925    23.017552            0            0            0    14253.588    9028.3896    9131.3845    8553.1589    572.64598    1780.0653   -2361.1276 
  132500    275.88321   -308.87364   -240.44075   -308.87364            0    8247.6966    25.019452    24.838892    22.891415            0            0            0    14225.995    5779.8995    8449.3967    10513.793   -402.85622    2665.3578   -1194.7888 
  133000    272.21191   -308.33623   -240.81401   -308.33623            0    8181.5884    24.972389    24.948304    22.889194            0            0            0    14260.397    10131.118    6092.4597    8321.1873    158.31043    1820.8485   -307.07208 
  133500    261.68666   -308.13426   -243.22282   -308.13426            0    7642.5274     24.77267    24.997584    23.042308            0            0            0    14269.109    9731.7077    5498.6321    7697.2424    1880.4942   -2949.8899   -1244.5541 
  134000    264.24663   -310.31445   -244.76801   -310.31445            0    10645.916    24.801867    24.706629    23.109069            0            0            0    14160.557    12256.662    10224.254    9456.8323    1256.3734    246.19844   -118.55678 
  134500    264.99414   -307.55096   -241.81911   -307.55096            0    6203.2345    25.099733    24.771575    23.040797            0            0            0    14325.844    2885.1652    8433.8464    7290.6919   -371.35416    -908.5565   -536.83308 
  135000    261.32996   -310.09463   -245.27168   -310.09463            0    6793.9801    24.872098    24.941803    22.770158            0            0            0    14125.581    5513.4687    6774.1453    8094.3262    916.55829    1269.4908   -790.43186 
  135500    263.03873    -309.2928   -244.04599    -309.2928            0     4995.462    24.877143     25.06978    22.909925            0            0            0    14288.107    5923.1638    4098.8166    4964.4055   -426.47746   -1299.1951     875.2233 
  136000    261.36014    -307.1716   -242.34116    -307.1716            0    7450.3401    24.932608    24.818244    23.012301            0            0            0    14239.634    5066.4019    9973.4567    7311.1617    2402.7784   -607.89206   -398.19109 
  136500     264.8776   -308.22941   -242.52647   -308.22941            0    8664.3063    24.947025    24.825131    22.984543            0            0            0     14234.63    9144.5792    6966.1413    9882.1985    1326.2885     971.6099   -1773.6788 
  137000    268.73743   -308.70295   -242.04257   -308.70295            0    7511.0292    24.921535    24.974415     22.95768            0            0            0    14288.878    7533.0884    6275.0252    8724.9738    1409.8498   -105.49516   -1258.8028 
  137500    268.52283   -306.45843   -239.85128   -306.45843            0    10047.494    24.899741    24.945394    22.899513            0            0            0    14223.663    9227.5689    10064.638    10850.275   -809.40796   -2069.5636   -610.96511 
  138000    265.58906   -307.13246   -241.25304   -307.13246            0     5480.109    24.982844    24.937233    22.954131            0            0            0    14300.493    6864.7488    3983.7183    5591.8599     257.1791   -2936.0658   -318.42657 
  138500    265.48709   -308.63422   -242.78009   -308.63422            0    5141.8353    24.917738    24.816354    22.977739            0            0            0    14208.685    4505.7776    5200.9882      5718.74    447.46155   -1006.0451   -804.34958 
  139000    254.41257   -310.31105   -247.20396   -310.31105            0    9853.8383    24.866535    24.817203    23.038142            0            0            0    14217.249    10199.271    8453.4003    10908.843   -569.41645   -1418.3909    686.94494 
  139500    265.34661   -308.72044   -242.90115   -308.72044            0    6337.7907    24.827576    24.978483     22.99283            0            0            0    14259.123    4948.1114      7254.21    6811.0507    117.94325   -1050.0345   -892.62149 
  140000    269.76971   -307.89057   -240.97413   -307.89057            0    7430.7248    24.928136    25.033813    22.841299            0            0            0    14254.028    6883.7421    6173.2716    9235.1608     256.9083   -1078.2835   -231.30594 
  140500    272.80114   -307.70315   -240.03477   -307.70315            0    4756.5754    25.046728    24.866269    22.806394            0            0            0    14204.248    4155.9218    6597.9554    3515.8492    311.59919   -1690.5089   -1152.1782 
  141000    269.05782   -309.37059   -242.63074   -309.37059            0    7191.9078      25.0083    24.820144    23.072383            0            0            0     14321.25    5470.4978    7637.6526    8467.5732    1.4431894    758.64369   -333.48332 
  141500    262.19712   -308.05674   -243.01869   -308.05674            0     6178.485    24.699023    24.823975    23.131405            0            0            0    14182.511    8618.0056     6988.198    2929.2515   -1511.6319   -2332.8935   -254.16293 
  142000    264.82396   -308.75643   -243.06679   -308.75643            0    9363.2521    24.906527      24.9619    23.034904            0            0            0    14321.127    10202.708    9410.0036    8477.0445    743.33569   -2233.0656   -674.78546 
  142500    271.08771   -307.50601   -240.26264   -307.50601            0    5819.1657    25.079407    24.840335    22.789019            0            0            0    14197.123    2118.4355    7864.2748    7474.7867   -75.051781    606.79064    -472.1892 
  143000    262.13736   -307.25485   -242.23163   -307.25485            0    5405.7054    24.992186    24.900169    22.938205            0            0            0    14274.666    6304.5979    5011.1506    4901.3677   -744.39682   -354.52381   -425.59349 
  143500    266.36403   -307.64143   -241.56977   -307.64143            0    5773.9895    24.810383    24.906711    23.080538            0            0            0    14262.504    7643.3644    4392.5967    5286.0075   -602.78626    1268.3773    467.29118 
  144000    269.77576   -308.58391   -241.66597   -308.58391            0    6748.8271    24.846732    24.893711    23.048734            0            0            0    14256.273    6503.8113    9443.6369     4299.033   -140.97807   -1784.8115    1419.5656 
  144500    270.83214   -308.35267    -241.1727   -308.35267            0     8508.208    25.033987    24.856668     22.94298            0            0            0    14276.533    7834.9056    10819.208    6870.5104   -819.83374   -552.87664   -554.54897 
  145000    261.62423   -306.94032   -242.04438   -306.94032            0    8000.9383     24.95741    24.924141    22.888987            0            0            0    14237.911    9211.8937    4676.7636    10114.158   -353.38804    1620.9945    2817.7857 
  145500    266.98092     -309.014   -242.78932     -309.014            0    6907.7434    24.792961    24.986131    23.025067            0            0            0    14263.572     6183.142    7181.2097    7358.8783    1009.8506    518.42185    1125.0129 
  146000     263.4517   -308.63063   -243.28138   -308.63063            0    6318.0179    24.843477    24.867623    23.092252            0            0            0    14266.352    3683.3069    9396.1507    5874.5961   -111.39059    143.14656   -418.94631 
  146500    255.30088   -307.18094    -243.8535   -307.18094            0    8398.6764    24.993166    24.769777    22.946636            0            0            0    14205.692     8503.072     10663.67    6029.2869    138.57375   -50.949407    361.27038 
[...]
  365000    268.59196   -308.72306   -242.09877   -308.72306            0    6670.1156    25.011887    24.915184    22.956235            0            0            0    14305.769    6770.6655    7721.3041    5518.3771    223.97039   -1428.0647    1334.3658 
  365500    267.20494   -307.70084    -241.4206   -307.70084            0    7931.4491     24.74014    25.075677    22.847169            0            0            0     14173.83    8901.9082    7398.7443    7493.6947    -737.5438    921.14103   -2382.1714 
  366000    270.82139   -307.47107   -240.29377   -307.47107            0     8679.063    24.896757     24.99455    22.940055            0            0            0    14275.212    11271.232     4847.666    9918.2914    414.33527   -2687.5466   -57.146859 
  366500    269.73641   -309.18405   -242.27588   -309.18405            0    6475.1267    25.017119      24.7307    23.038128            0            0            0    14253.479    5659.4342    8828.7248    4937.2211   -1810.0059    -704.8705    -596.5763 
  367000    262.72634   -309.38252   -244.21319   -309.38252            0    6225.3597     24.89969    24.855625     22.99722            0            0            0    14232.919    8072.2495    2708.7971    7895.0325    378.55379    1534.3407    4005.2553 
  367500    264.53048   -308.46246   -242.84561   -308.46246            0     6656.414    24.814511    25.040903    22.912318            0            0            0    14237.205    7507.4691    5943.6189    6518.1541    903.13372   -2634.8053   -789.68453 
  368000    262.52636   -306.89924   -241.77951   -306.89924            0    8507.5071    24.905273    24.931045    22.911731            0            0            0    14226.226    7063.1078    10163.597    8295.8164   -434.83608    103.12174    334.60651 
  368500    261.52083   -308.23561   -243.36531   -308.23561            0    8997.8204    24.943647    24.843454    22.968037            0            0            0    14232.979    9493.3371    10095.122     7405.002    1315.2113    263.87346   -520.01751 
  369000    273.65014    -310.1387   -242.25972    -310.1387            0    5138.1713    24.923675    24.863914    22.996155            0            0            0    14250.719    4029.1066    5500.7272      5884.68   -719.17678    408.55737   -753.55931 
  369500     268.9068   -308.63616   -241.93377   -308.63616            0    7268.1984    24.889582    24.960571     22.95327            0            0            0    14259.907    6830.7161     6682.922     8290.957    1112.1446   -484.65171   -909.98461 
  370000    265.81067   -307.61868   -241.68429   -307.61868            0    8995.8628    24.902198    24.941183    22.888081            0            0            0    14215.565    11064.589    8005.0457    7917.9532     1060.889   -15.687125   -1630.7286 
  370500    259.33793   -309.37882   -245.04999   -309.37882            0    7578.7413    24.984611    24.950119    22.939593            0            0            0    14299.832    7884.6184    8035.1299    6816.4757   -1954.4344   -2064.2665     2413.843 
  371000    264.67552   -310.69891   -245.04609   -310.69891            0    7910.3177    24.895436    24.756149    22.918817            0            0            0    14125.213    5719.5093    10731.037    7280.4069    1763.6841   -360.05076    1222.5425 
  371500    262.67761   -309.31599   -244.15875   -309.31599            0    5959.5657     24.92982    24.920558     23.09324            0            0            0    14347.022    5975.8703    5416.8108     6486.016   -893.17482    1688.7474    -360.0525 
  372000     268.9056   -308.09507   -241.39298   -308.09507            0    9678.4066    24.786073    24.965586    22.942726            0            0            0    14196.932    9718.5071     9633.989    9682.7238   -1104.8722   -53.466819   -559.94723 
  372500    260.49246   -309.96576   -245.35055   -309.96576            0    6709.6969    24.956609    24.946497     22.87447            0            0            0    14241.187    8147.6435    6584.0422    5397.4051    389.25669    562.79065    -843.7695 
  373000    254.76854   -311.33863   -248.14324   -311.33863            0     4395.572    25.003433    24.823335    22.881964            0            0            0    14202.116     5285.949     3195.289    4705.4781    66.798243    351.89644    1737.4204 
  373500    260.74064   -307.33191   -242.65514   -307.33191            0     8375.044    24.814629    24.863907    23.059732            0            0            0    14227.593     8753.559    8356.1877    8015.3852   -1295.1534     681.1515   -1433.8668 
  374000    267.19357   -309.14863   -242.87121   -309.14863            0    6903.6372    24.769118    24.984791    23.088605            0            0            0    14288.411    7183.5225    8701.9593    4825.4297    867.84492    1591.2681    3254.7305 
  374500    269.38935    -306.5593   -239.73721    -306.5593            0    6260.8255    24.951564    24.932932    22.878136            0            0            0    14232.847    7429.9779    5377.2723    5975.2262   -794.78254   -500.05618    1650.9879 
  375000     271.1313   -308.40696   -241.15278   -308.40696            0    6565.5899    25.119968    24.867274    22.845975            0            0            0    14271.084    5762.7999    9053.5016    4880.4683    1319.6475    313.72799    386.48777 
  375500    265.67142   -308.94185   -243.04199   -308.94185            0    7488.4024    24.886026    24.843654    22.974767            0            0            0    14204.375    6847.2372    6782.4425    8835.5274    1129.8744    1343.2591    408.91303 
  376000    266.77134    -306.7765   -240.60382    -306.7765            0    6807.9782    24.801663    24.924861    23.129194            0            0            0    14297.959    8599.4875    7909.7668    3914.6802   -866.50298    2823.1809     990.3841 
  376500    262.88825   -307.58412   -242.37463   -307.58412            0    6798.8068    24.880605    24.877217    23.017841            0            0            0    14247.128    8023.2508    5189.0656    7184.1041    721.83524   -418.69382    1011.1766 
  377000    260.69988   -310.08768   -245.42102   -310.08768            0    7792.4491    24.974815    24.911168    22.874547            0            0            0     14231.44    8459.8827    5811.6369    9105.8277   -1126.9276    228.82352    1921.3971 
  377500    259.35797   -309.29751   -244.96371   -309.29751            0    5963.0424    24.931497    24.946664    22.899467            0            0            0      14242.5    5704.8937    3865.4459    8318.7876   -796.78349   -278.82617    1972.6726 
  378000    266.92829   -309.35941   -243.14779   -309.35941            0    6966.6205    24.866132    24.887062    23.040485            0            0            0    14258.488    8286.2327    8661.2381    3952.3908   -1160.0202    -1780.874   -1611.7697 
  378500    264.66628   -308.86014   -243.20962   -308.86014            0    5996.9786    24.849028    24.827381    23.047078            0            0            0    14218.579    5507.4132    9759.0087     2724.514    304.13198    841.62213    2492.9932 
  379000    261.04144   -307.68972   -242.93834   -307.68972            0    5085.9914     24.97644    24.890787    22.906876            0            0            0    14240.821    2689.1236    6340.2159    6228.6346   -29.067732    988.62939   -822.79502 
  379500    257.92692   -308.81914   -244.84031   -308.81914            0    8531.9526    25.004564    25.005363    22.761016            0            0            0    14231.284    6864.6682    8436.2746    10294.915   -1303.3438    2388.9366    1135.1437 
  380000    252.21651   -309.44304   -246.88068   -309.44304            0    5514.8059    24.898178    24.932941    22.897663            0            0            0    14214.521    7137.6647    4264.3635    5142.3896    83.376349    1199.2767   -1187.4879 
  380500    256.53069   -306.41868   -242.78619   -306.41868            0    6631.8829    24.825702    24.756413    23.195761            0            0            0    14256.006    6418.4154    9178.2823    4298.9509    145.24438    1025.2685    2676.3454 
  381000      262.801   -307.73626   -242.54842   -307.73626            0    9096.1148     24.83109    24.773494     23.14976            0            0            0     14240.64    8973.5777    11155.925    7158.8413    848.56891   -164.36222    721.93146 
  381500    277.30333   -307.77707   -238.99192   -307.77707            0    6369.2795    24.973259    25.042008     22.84338            0            0            0    14285.806    7139.4798    4534.5425    7433.8162     -592.183   -2146.4779    362.67963 
  382000    263.17642   -307.23891   -241.95795   -307.23891            0    8353.6949    24.992818    25.018354    22.723444            0            0            0    14208.496    5594.2223    8885.9765    10580.886    2342.2067   -1906.5852    1380.4896 
  382500    271.61426   -307.39564   -240.02166   -307.39564            0    8470.9419    24.959336    24.848943     22.99061            0            0            0    14259.078    8398.8965    8878.8955    8135.0338    296.53524    618.52902   -1210.9167 
  383000    274.46594   -307.09107   -239.00974   -307.09107            0    6609.2586     24.87546    24.808366     23.16884            0            0            0    14297.943    7324.4698    7977.0518    4526.2543   -918.57913    -1504.706   -655.48635 
  383500    272.79271   -307.17694   -239.51065   -307.17694            0    6692.7812    24.836635    24.888849    23.064264            0            0            0    14257.296    5568.3118    6351.5128    8158.5189    890.62875    402.17205    519.44553 
  384000    263.17583   -310.59654   -245.31572   -310.59654            0    6561.6984    25.013569     24.95653    22.861083            0            0            0    14271.074    4927.5816    9145.8211    5611.6926   -1802.2638   -367.45778   -970.41473 
  384500    261.31251   -308.88356   -244.06494   -308.88356            0    6151.5834    24.991875     24.89554    22.778157            0            0            0    14172.256     6096.359    3705.0841    8653.3071   -1175.0626   -1220.5009   -2776.5252 
  385000    256.47968   -309.55989   -245.94005   -309.55989            0    5527.0395    24.937774    24.897161    23.033921            0            0            0    14301.296    4145.2539    7443.5038    4992.3607   -114.81073   -173.18776   -290.84973 
  385500    260.02874   -308.59179   -244.09161   -308.59179            0    8944.4464    24.736928    24.859042    23.087704            0            0            0    14197.468    11236.717    9498.2267    6098.3955    113.69943    2125.5907   -550.21997 
  386000    265.57265   -307.80168   -241.92633   -307.80168            0    5783.2787     24.91912    24.907408    22.993443            0            0            0    14271.356    3278.5228    9144.2659    4927.0473    408.97702     -783.541   -1452.0203 
  386500     261.4985   -306.52631   -241.66155   -306.52631            0     9525.755     25.05219    24.943089    22.886737            0            0            0    14301.442    7432.3204    10240.628    10904.317    655.29808    627.94487   -268.14676 
  387000    267.63128    -308.7027    -242.3167    -308.7027            0    5707.6529    24.881898    24.914812    22.882707            0            0            0    14185.626    6172.2449    6687.0756    4263.6383    1452.3928    -761.6151    1152.9931 
  387500    264.64826   -309.62593   -243.97988   -309.62593            0    7522.8158    24.861524    24.955575    23.018294            0            0            0    14281.323    7190.4723    8801.8615    6576.1136    109.04967   -334.66312    547.28629 
  388000      263.544   -310.61862   -245.24647   -310.61862            0    9773.8345    24.865332    24.822105    22.992095            0            0            0    14190.948    7456.1515    10537.523    11327.829   -1646.2431    -749.1966   -1210.6341 
  388500    255.93558   -310.06299   -246.57812   -310.06299            0    7096.9593    25.002514    24.870204    22.916521            0            0            0    14249.897    6779.2481    8490.3463    6021.2836   -215.55574   -1491.6356    957.16832 
  389000    257.78584   -309.28986   -245.34603   -309.28986            0      5817.74    24.915858    24.990888    22.873845            0            0            0    14242.844    4355.1756    6742.7799    6355.2644   -1106.7353    1366.0132    1484.4832 
  389500    257.12383   -310.19158   -246.41195   -310.19158            0    7341.0646    24.798734    24.968998    22.926183            0            0            0    14195.882    10541.528    5083.5572    6398.1082   -622.55868   -814.11035    2036.1573 
  390000    253.84956   -310.63313   -247.66569   -310.63313            0    9694.2889    24.873437     24.83256    23.120046            0            0            0    14280.584    10089.307    11507.315    7486.2441   -465.64583    975.01622    1457.0028 
  390500    268.69689   -308.75132     -242.101   -308.75132            0      7797.13    24.929499    24.680086    23.041011            0            0            0    14176.263    7038.5934    9762.5159    6590.2807    839.61702    339.34231   -42.728763 
  391000    272.91211   -310.09921    -242.4033   -310.09921            0    5611.3404    25.096968    25.034263    22.853793            0            0            0    14358.675    4187.5738    4739.0974      7907.35    635.94198   -929.84024    -1096.402 
  391500     268.1849   -307.52143   -240.99811   -307.52143            0    8306.2704    24.891494     25.09025     22.71703            0            0            0    14187.553    5334.8904    7439.2734    12144.647   -10.654391    257.47247   -779.32173 
  392000     259.9115   -309.14644   -244.67534   -309.14644            0     6349.474    24.859548    24.925433    23.029143            0            0            0    14269.663    6807.1911    5034.2199    7207.0111   -1140.5357   -453.98104   -1112.9982 
  392500    269.68885   -308.87219   -241.97581   -308.87219            0     8302.716    24.880084    24.732419    23.109278            0            0            0    14220.171    7895.4691    9709.3428    7303.3362    1999.4526    107.15751   -932.17489 
  393000    261.98468   -306.77832   -241.79296   -306.77832            0    6538.0045    24.931195    24.888219    22.977703            0            0            0    14257.504    7422.3618    8206.2347     3985.417    2114.0569    2823.9508   -50.773958 
  393500    266.48898   -308.44931   -242.34666   -308.44931            0     5173.942     24.95489    25.052178     22.82055            0            0            0    14266.822    3765.1479    4913.8906    6842.7877    1101.1989    2055.2794    1499.5257 
  394000    264.24717   -309.85037    -244.3038   -309.85037            0    8929.6032    24.934406    24.912185    22.873294            0            0            0    14208.217    12340.319    6018.6554    8429.8352    1870.4076    279.14686   -383.58135 
  394500    263.97734   -308.01475   -242.53511   -308.01475            0    7517.4556    24.874686    24.839486    23.066849            0            0            0    14252.416    7807.9462    8135.2529    6609.1678    862.31569   -664.24635   -457.92859 
  395000    264.17144    -309.1171   -243.58932    -309.1171            0    6943.1793    24.791223     24.91949    23.058561            0            0            0    14245.225    8471.5592    5215.7701    7142.2088   -2692.1669     687.2857    1104.1107 
  395500    265.40128   -310.48844   -244.65559   -310.48844            0    9831.7962    24.916779    24.929152    22.904696            0            0            0    14227.348    9731.6439    8137.9553    11625.789    1291.3892   -1128.8227   -932.58824 
  396000    261.34324   -309.19558   -244.36933   -309.19558            0    4588.4971    25.043184    24.869897     22.84816            0            0            0    14230.323    4564.2418    4038.5457    5162.7038    -1105.716    495.14753   -3246.8519 
  396500    273.40636   -308.40763   -240.58913   -308.40763            0    7750.6558    24.898428    24.889445    22.928377            0            0            0      14208.9    8247.5375    6151.8831    8852.5467    1338.2416    2916.9949    521.32347 
  397000      266.843   -311.02191   -244.83145   -311.02191            0    8385.3312    24.808734    24.932907    23.118062            0            0            0    14299.766    8280.1131    8136.7947    8739.0857   -1066.4848    1016.9441     733.0786 
  397500    263.64507   -306.98623   -241.58901   -306.98623            0    6499.1789    24.820044     24.80554    23.057024            0            0            0    14195.624    9171.7513     5471.853    4853.9324    1230.9201   -116.07103    160.01286 
  398000      262.465   -308.88985   -243.78535   -308.88985            0     8055.205    25.046907    24.865144    22.912706            0            0            0    14269.918    7154.9659     8444.247    8566.4021    133.96345   -630.88704     216.1577 
  398500    264.65603   -308.26493   -242.61695   -308.26493            0    8601.0785    25.016645    24.986093    22.748388            0            0            0    14219.294    6407.5217    11521.785    7873.9287   -424.89523    2555.3571   -1443.5532 
  399000    251.55036    -308.1541   -245.75698    -308.1541            0    8917.7477    24.780175    24.991155    22.886668            0            0            0    14173.375    12597.992     6092.364     8062.887    -307.0857   -392.36699    1059.9528 
  399500    260.61276   -310.42285    -245.7778   -310.42285            0     6706.387    24.774954    24.816993    23.223362            0            0            0    14278.648    8517.9449    7793.4597    3807.7563   -1192.7012   -1696.3054   -1175.3827 
  400000    259.88114   -310.03306   -245.56948   -310.03306            0    6968.0744    24.883213    24.684281    23.141049            0            0            0    14213.793    7187.1129    6311.4298    7405.6805   -487.09812    52.689812    -2301.208 
Loop time of 4407.3 on 1 procs for 400000 steps with 1920 atoms

Performance: 3.921 ns/day, 6.121 hours/ns, 90.758 timesteps/s
63.8% CPU use with 1 MPI tasks x 1 OpenMP threads

MPI task timing breakdown:
Section |  min time  |  avg time  |  max time  |%varavg| %total
---------------------------------------------------------------
Pair    | 3777       | 3777       | 3777       |   0.0 | 85.70
Bond    | 0.060984   | 0.060984   | 0.060984   |   0.0 |  0.00
Neigh   | 580.46     | 580.46     | 580.46     |   0.0 | 13.17
Comm    | 15.754     | 15.754     | 15.754     |   0.0 |  0.36
Output  | 2.7966     | 2.7966     | 2.7966     |   0.0 |  0.06
Modify  | 28.972     | 28.972     | 28.972     |   0.0 |  0.66
Other   |            | 2.295      |            |       |  0.05

Nlocal:        1920.00 ave        1920 max        1920 min
Histogram: 1 0 0 0 0 0 0 0 0 0
Nghost:        7238.00 ave        7238 max        7238 min
Histogram: 1 0 0 0 0 0 0 0 0 0
Neighs:         0.00000 ave           0 max           0 min
Histogram: 1 0 0 0 0 0 0 0 0 0
FullNghs:      545284.0 ave      545284 max      545284 min
Histogram: 1 0 0 0 0 0 0 0 0 0

Total # of neighbors = 545284
Ave neighs/atom = 284.00208
Ave special neighs/atom = 0.0000000
Neighbor list builds = 40000
Dangerous builds not checked

unfix		3
unfix		2

write_data	data.final.${pid}
write_data	data.final.0
System init for write_data ...

write_restart   restart.lmp.${pid}
write_restart   restart.lmp.0
System init for write_restart ...
Total wall time: 1:13:30
