LAMMPS data file via MDAnalysis

        3840  atoms
           0  bonds
           0  angles
           0  dihedrals
           0  impropers

           2  atom types
           0  bond types
           0  angle types
           0  dihedral types
           0  improper types

0.000000 52.789078 xlo xhi
0.000000 24.860020 ylo yhi
0.000000 22.929338 zlo zhi


Masses

1 15.999000
2 1.008000

Atoms

1 0 1 -1.179400 5.660915 22.259310 5.468962
2 0 2 0.589700 5.590858 23.195698 5.631558
3 0 2 0.589700 6.178065 21.927807 6.199517
4 0 1 -1.179400 2.154505 10.580029 13.301210
5 0 2 0.589700 2.076732 10.310313 14.212405
6 0 2 0.589700 2.319133 11.517839 13.342916
7 0 1 -1.179400 20.342388 13.682849 4.796259
8 0 2 0.589700 20.160734 13.735468 5.730920
9 0 2 0.589700 20.285221 12.753392 4.593757
10 0 1 -1.179400 0.794406 1.741656 2.829713
11 0 2 0.589700 -0.044712 1.561049 2.408085
12 0 2 0.589700 1.446896 1.579839 2.151157
13 0 1 -1.179400 -0.617437 2.490909 5.074347
14 0 2 0.589700 -0.083548 2.271827 4.313941
15 0 2 0.589700 -1.324372 3.030768 4.725869
16 0 1 -1.179400 50.959103 1.367677 2.001325
17 0 2 0.589700 50.575558 0.571371 1.643106
18 0 2 0.589700 50.363136 2.061244 1.727286
19 0 1 -1.179400 7.596868 11.972654 9.239680
20 0 2 0.589700 7.636260 11.952518 10.192130
21 0 2 0.589700 8.488070 11.766694 8.959439
22 0 1 -1.179400 -0.469972 4.120363 1.317266
23 0 2 0.589700 -0.917825 3.415240 0.856475
24 0 2 0.589700 -0.637574 4.894731 0.787252
25 0 1 -1.179400 1.420091 22.158150 21.941175
26 0 2 0.589700 1.380498 21.739683 21.085466
27 0 2 0.589700 2.026213 21.618326 22.443995
28 0 1 -1.179400 -0.504784 24.775782 5.377201
29 0 2 0.589700 -0.620323 0.661467 5.498841
30 0 2 0.589700 -1.136438 24.543764 4.699477
31 0 1 -1.179400 20.861223 2.558055 10.842255
32 0 2 0.589700 21.675962 2.462690 11.333509
33 0 2 0.589700 21.127419 2.956236 10.017592
34 0 1 -1.179400 6.627829 8.969128 17.018471
35 0 2 0.589700 7.213500 9.191672 17.739000
36 0 2 0.589700 5.933052 8.452597 17.422228
37 0 1 -1.179400 4.656413 3.549664 13.039561
38 0 2 0.589700 4.006052 4.208213 13.274578
39 0 2 0.589700 5.254001 3.523541 13.783920
40 0 1 -1.179400 14.858161 0.698913 10.582730
41 0 2 0.589700 15.451818 1.429770 10.425728
42 0 2 0.589700 15.095774 0.054244 9.921656
43 0 1 -1.179400 9.708245 24.023504 21.394333
44 0 2 0.589700 10.460000 24.454386 20.991255
45 0 2 0.589700 9.763423 24.261000 22.316080
46 0 1 -1.179400 16.260799 3.032096 10.319433
47 0 2 0.589700 16.712934 3.698413 10.831079
48 0 2 0.589700 15.706404 3.524420 9.718211
49 0 1 -1.179400 6.638611 20.934053 12.217810
50 0 2 0.589700 7.020474 20.911348 11.343798
51 0 2 0.589700 6.630075 20.023411 12.498578
52 0 1 -1.179400 21.408625 20.477652 13.175037
53 0 2 0.589700 20.997351 20.121237 12.391397
54 0 2 0.589700 22.154165 20.978901 12.849406
55 0 1 -1.179400 2.252083 18.611067 16.718588
56 0 2 0.589700 1.371353 18.758139 16.375431
57 0 2 0.589700 2.759821 19.357735 16.410107
58 0 1 -1.179400 11.127789 15.215812 3.879365
59 0 2 0.589700 10.988672 14.926964 2.981382
60 0 2 0.589700 11.816863 14.643728 4.211487
61 0 1 -1.179400 20.258768 22.794325 10.895164
62 0 2 0.589700 20.447250 22.148624 10.219545
63 0 2 0.589700 19.469761 22.468765 11.325602
64 0 1 -1.179400 9.480866 20.460999 13.675236
65 0 2 0.589700 9.293409 20.460581 14.610244
66 0 2 0.589700 8.739902 20.001757 13.283853
67 0 1 -1.179400 11.352970 10.054154 22.848965
68 0 2 0.589700 12.234372 10.141254 0.012288
69 0 2 0.589700 10.921653 9.419025 0.217117
70 0 1 -1.179400 0.647012 19.775017 1.651148
71 0 2 0.589700 0.930567 18.985298 2.103888
72 0 2 0.589700 1.275588 19.879631 0.939746
73 0 1 -1.179400 21.286358 2.836064 18.403452
74 0 2 0.589700 21.013290 2.003780 18.779808
75 0 2 0.589700 22.085947 2.631629 17.920897
76 0 1 -1.179400 17.414761 16.775146 2.304399
77 0 2 0.589700 17.675259 17.350584 3.018734
78 0 2 0.589700 17.705124 15.909405 2.578437
79 0 1 -1.179400 21.290995 0.509707 6.792237
80 0 2 0.589700 21.232731 1.294974 6.255205
81 0 2 0.589700 20.411888 0.134024 6.761343
82 0 1 -1.179400 17.569098 3.696963 3.551535
83 0 2 0.589700 17.803085 4.413701 4.135050
84 0 2 0.589700 17.823538 2.910577 4.026687
85 0 1 -1.179400 12.038623 9.954892 12.230445
86 0 2 0.589700 11.503497 10.739494 12.323517
87 0 2 0.589700 12.330169 9.969396 11.322395
88 0 1 -1.179400 12.550319 18.526178 17.452753
89 0 2 0.589700 13.288657 18.087486 17.033819
90 0 2 0.589700 12.858994 18.719088 18.334402
91 0 1 -1.179400 23.705061 2.667867 0.233890
92 0 2 0.589700 23.888422 3.603097 0.244291
93 0 2 0.589700 24.447495 2.275087 0.689640
94 0 1 -1.179400 13.331396 6.795001 11.048853
95 0 2 0.589700 13.028085 6.992595 10.166394
96 0 2 0.589700 12.567108 6.947938 11.602089
97 0 1 -1.179400 25.042719 4.542305 3.378359
98 0 2 0.589700 25.736376 4.343749 2.752105
99 0 2 0.589700 25.392769 5.260481 3.899092
100 0 1 -1.179400 6.113071 4.655591 5.600742
101 0 2 0.589700 5.604631 4.606329 6.407069
102 0 2 0.589700 5.629282 5.269013 5.052880
103 0 1 -1.179400 14.345393 0.807655 21.715387
104 0 2 0.589700 13.910233 1.656418 21.715710
105 0 2 0.589700 14.186220 0.458196 22.588146
106 0 1 -1.179400 13.728245 4.871731 15.856925
107 0 2 0.589700 13.509709 4.229324 16.526680
108 0 2 0.589700 14.612749 4.637388 15.577957
109 0 1 -1.179400 21.265629 2.847882 1.570085
110 0 2 0.589700 22.122534 2.682678 1.178716
111 0 2 0.589700 21.112278 2.096823 2.136698
112 0 1 -1.179400 15.491619 -0.009322 7.821008
113 0 2 0.589700 14.583891 0.257672 7.679102
114 0 2 0.589700 15.559642 24.193363 7.394841
115 0 1 -1.179400 24.017632 5.445451 0.511498
116 0 2 0.589700 23.097775 5.633430 0.696248
117 0 2 0.589700 24.498066 5.871338 1.217535
118 0 1 -1.179400 20.753939 11.154628 13.054002
119 0 2 0.589700 20.142860 11.774442 13.446398
120 0 2 0.589700 21.168560 10.722726 13.796818
121 0 1 -1.179400 30.114540 1.171120 4.192686
122 0 2 0.589700 29.440516 1.138103 3.516511
123 0 2 0.589700 30.941380 1.159854 3.712477
124 0 1 -1.179400 28.350382 1.139235 2.248758
125 0 2 0.589700 27.393290 1.126740 2.250343
126 0 2 0.589700 28.600704 0.306250 1.858516
127 0 1 -1.179400 31.539164 4.270789 3.290216
128 0 2 0.589700 31.978342 4.343867 2.446194
129 0 2 0.589700 31.752047 3.392755 3.594074
130 0 1 -1.179400 28.692034 4.326759 3.635326
131 0 2 0.589700 29.618692 4.534557 3.517801
132 0 2 0.589700 28.337862 4.296417 2.750049
133 0 1 -1.179400 26.575333 2.534772 4.860634
134 0 2 0.589700 27.261854 2.899531 4.305441
135 0 2 0.589700 25.799278 3.055973 4.661774
136 0 1 -1.179400 25.637442 1.127968 2.003248
137 0 2 0.589700 25.020456 1.281514 2.715831
138 0 2 0.589700 25.251875 0.410591 1.506876
139 0 1 -1.179400 30.111626 2.667612 0.551948
140 0 2 0.589700 30.145798 3.619713 0.531108
141 0 2 0.589700 29.316000 2.467517 1.042759
142 0 1 -1.179400 27.055340 4.162390 1.205307
143 0 2 0.589700 26.915176 4.897884 0.615344
144 0 2 0.589700 27.091492 3.401087 0.632963
145 0 1 -1.179400 30.164005 5.576793 0.401586
146 0 2 0.589700 30.893524 5.959614 0.885633
147 0 2 0.589700 30.266945 5.908911 22.711924
148 0 1 -1.179400 26.678005 24.889519 4.960794
149 0 2 0.589700 25.891970 24.555910 4.531137
150 0 2 0.589700 26.608738 0.784153 4.880844
151 0 1 -1.179400 36.359657 0.735060 4.066011
152 0 2 0.589700 35.659096 0.860651 3.428582
153 0 2 0.589700 37.159142 0.693018 3.543417
154 0 1 -1.179400 34.517715 1.105669 2.026303
155 0 2 0.589700 33.581848 0.913710 2.082276
156 0 2 0.589700 34.558216 2.032332 1.807642
157 0 1 -1.179400 37.655483 4.359564 3.562240
158 0 2 0.589700 38.068977 4.212193 2.715065
159 0 2 0.589700 38.139050 3.797910 4.163298
160 0 1 -1.179400 34.981514 4.067289 3.608227
161 0 2 0.589700 35.937042 4.103715 3.565894
162 0 2 0.589700 34.745029 4.721957 4.259798
163 0 1 -1.179400 32.894260 2.542972 4.780809
164 0 2 0.589700 33.599045 2.943981 4.275598
165 0 2 0.589700 33.008114 1.606526 4.645431
166 0 1 -1.179400 31.729069 0.973689 1.785118
167 0 2 0.589700 31.357662 1.770562 1.415641
168 0 2 0.589700 31.194378 0.272204 1.420714
169 0 1 -1.179400 36.750404 2.983011 0.595858
170 0 2 0.589700 36.585453 2.668076 22.909216
171 0 2 0.589700 36.603439 3.923308 0.545584
172 0 1 -1.179400 33.470192 4.217403 1.372440
173 0 2 0.589700 34.158802 4.417881 2.003589
174 0 2 0.589700 33.553406 4.893929 0.706082
175 0 1 -1.179400 36.281528 5.611212 0.384902
176 0 2 0.589700 37.007111 5.844993 0.961088
177 0 2 0.589700 36.365116 6.204878 22.841854
178 0 1 -1.179400 33.307709 24.924910 4.727262
179 0 2 0.589700 32.496895 24.508230 4.439250
180 0 2 0.589700 33.494282 24.527166 5.573542
181 0 1 -1.179400 42.752338 1.312293 4.027900
182 0 2 0.589700 42.783092 0.504728 4.533149
183 0 2 0.589700 42.070587 1.161064 3.375966
184 0 1 -1.179400 40.947258 1.226984 1.920755
185 0 2 0.589700 41.403221 1.853941 1.364611
186 0 2 0.589700 41.274467 0.377276 1.637814
187 0 1 -1.179400 44.243958 4.203250 3.399870
188 0 2 0.589700 44.646355 4.966588 3.806192
189 0 2 0.589700 44.587814 3.463064 3.893117
190 0 1 -1.179400 41.335918 4.374444 3.312664
191 0 2 0.589700 42.284595 4.269728 3.384001
192 0 2 0.589700 40.975159 3.611854 3.757379
193 0 1 -1.179400 39.828518 2.565882 4.640749
194 0 2 0.589700 39.628746 1.639462 4.742179
195 0 2 0.589700 39.679821 2.938039 5.505912
196 0 1 -1.179400 38.207512 1.202028 2.155370
197 0 2 0.589700 37.812435 1.862362 1.591723
198 0 2 0.589700 39.143391 1.245835 1.960215
199 0 1 -1.179400 42.707676 2.779649 0.393695
200 0 2 0.589700 42.884853 3.707788 0.518389
201 0 2 0.589700 43.467678 2.339913 0.771029
202 0 1 -1.179400 39.458412 4.452947 1.427026
203 0 2 0.589700 40.152763 4.501004 2.081543
204 0 2 0.589700 39.527832 5.272502 0.945466
205 0 1 -1.179400 42.752060 5.603234 0.600195
206 0 2 0.589700 42.025181 5.827019 1.178725
207 0 2 0.589700 43.521534 5.988119 1.016481
208 0 1 -1.179400 39.412975 24.744324 4.851616
209 0 2 0.589700 40.151749 24.267019 4.478173
210 0 2 0.589700 39.324123 24.395142 5.734346
211 0 1 -1.179400 48.858799 1.062868 4.123018
212 0 2 0.589700 49.597904 1.233489 3.541721
213 0 2 0.589700 49.222126 0.511839 4.811600
214 0 1 -1.179400 47.263023 0.951860 1.762351
215 0 2 0.589700 47.614204 1.007049 2.647608
216 0 2 0.589700 46.321995 1.091582 1.866579
217 0 1 -1.179400 50.748856 4.269968 3.550596
218 0 2 0.589700 49.864502 4.352934 3.195387
219 0 2 0.589700 -1.471291 4.257862 2.783930
220 0 1 -1.179400 47.667152 3.950260 3.679008
221 0 2 0.589700 47.375961 4.670709 4.231584
222 0 2 0.589700 47.129967 4.021187 2.893050
223 0 1 -1.179400 45.802429 2.360874 5.043489
224 0 2 0.589700 45.794815 1.408156 5.062402
225 0 2 0.589700 46.609295 2.584299 4.581823
226 0 1 -1.179400 44.436966 0.950625 1.932808
227 0 2 0.589700 43.917015 0.352597 1.401009
228 0 2 0.589700 43.908001 1.092703 2.714637
229 0 1 -1.179400 48.964256 2.837506 0.686253
230 0 2 0.589700 48.960281 2.469779 23.004766
231 0 2 0.589700 48.274807 2.363236 1.146962
232 0 1 -1.179400 46.171078 4.352246 1.537345
233 0 2 0.589700 45.451305 4.387131 2.164895
234 0 2 0.589700 45.956684 3.615849 0.971121
235 0 1 -1.179400 49.250107 5.517781 0.688762
236 0 2 0.589700 49.009590 4.597453 0.627508
237 0 2 0.589700 49.111893 5.859430 23.007513
238 0 1 -1.179400 45.884201 24.638645 4.888209
239 0 2 0.589700 45.904884 24.247036 5.757202
240 0 2 0.589700 45.166145 24.193457 4.442030
241 0 1 -1.179400 17.938450 4.963224 11.171597
242 0 2 0.589700 17.521563 5.753699 11.504918
243 0 2 0.589700 18.037481 5.120853 10.236449
244 0 1 -1.179400 12.949292 2.543773 3.220242
245 0 2 0.589700 13.841815 2.658625 2.895502
246 0 2 0.589700 12.846887 3.221432 3.882784
247 0 1 -1.179400 1.709731 5.946946 21.899744
248 0 2 0.589700 0.762311 5.888868 22.022465
249 0 2 0.589700 2.042568 6.255969 22.738539
250 0 1 -1.179400 12.949442 24.423780 4.548277
251 0 2 0.589700 12.163658 24.472660 4.006032
252 0 2 0.589700 13.576278 -0.049873 4.119504
253 0 1 -1.179400 3.099281 7.284734 16.474468
254 0 2 0.589700 2.551309 8.063684 16.413553
255 0 2 0.589700 3.681663 7.456090 17.211462
256 0 1 -1.179400 50.901855 7.232324 2.206271
257 0 2 0.589700 50.436188 6.494438 1.820462
258 0 2 0.589700 50.482681 7.360419 3.053817
259 0 1 -1.179400 2.561905 1.452879 0.690125
260 0 2 0.589700 3.456479 1.791445 0.673649
261 0 2 0.589700 2.566853 0.736873 0.060966
262 0 1 -1.179400 1.384426 17.953018 3.654231
263 0 2 0.589700 2.077205 18.609579 3.690532
264 0 2 0.589700 0.729541 18.256609 4.279752
265 0 1 -1.179400 6.285728 0.454043 2.439760
266 0 2 0.589700 5.429097 0.288590 2.831621
267 0 2 0.589700 6.847907 24.817352 2.786270
268 0 1 -1.179400 -0.759170 6.025787 5.508951
269 0 2 0.589700 -0.858616 6.968178 5.407971
270 0 2 0.589700 -1.299189 5.653483 4.815429
271 0 1 -1.179400 4.909126 15.171293 18.289051
272 0 2 0.589700 4.135798 15.546502 17.871016
273 0 2 0.589700 5.530367 15.894203 18.343504
274 0 1 -1.179400 3.257674 16.916708 7.650517
275 0 2 0.589700 3.952054 17.392361 7.198667
276 0 2 0.589700 2.735138 16.530622 6.951271
277 0 1 -1.179400 12.552656 24.230644 17.962132
278 0 2 0.589700 11.750301 23.844692 17.614021
279 0 2 0.589700 13.163808 24.222340 17.228363
280 0 1 -1.179400 2.263993 24.578276 5.876098
281 0 2 0.589700 1.341640 24.381077 5.714821
282 0 2 0.589700 2.678737 23.725674 5.979437
283 0 1 -1.179400 1.416795 12.286393 22.086077
284 0 2 0.589700 1.751770 13.051741 22.545805
285 0 2 0.589700 0.471070 12.312343 22.230806
286 0 1 -1.179400 3.928726 18.982906 3.695823
287 0 2 0.589700 4.209806 18.282742 3.112786
288 0 2 0.589700 4.327091 19.769333 3.331850
289 0 1 -1.179400 11.473886 9.976606 17.225481
290 0 2 0.589700 10.861137 10.175908 16.520657
291 0 2 0.589700 11.568595 9.028719 17.198832
292 0 1 -1.179400 7.618382 16.717539 21.815157
293 0 2 0.589700 6.674938 16.854940 21.731514
294 0 2 0.589700 7.739789 15.786716 21.650587
295 0 1 -1.179400 21.704765 7.841622 13.481029
296 0 2 0.589700 20.866144 8.151875 13.819983
297 0 2 0.589700 21.477125 7.094490 12.934353
298 0 1 -1.179400 2.612071 3.472977 6.490647
299 0 2 0.589700 3.286435 3.513341 7.166088
300 0 2 0.589700 1.906330 2.962372 6.882915
301 0 1 -1.179400 8.429284 18.777658 3.738554
302 0 2 0.589700 8.424071 18.682964 4.687290
303 0 2 0.589700 9.270332 18.412937 3.466450
304 0 1 -1.179400 -1.474209 14.859935 10.835481
305 0 2 0.589700 -1.509846 13.918270 10.693635
306 0 2 0.589700 51.071648 15.237419 9.994202
307 0 1 -1.179400 7.514834 15.481814 14.579344
308 0 2 0.589700 6.589929 15.452517 14.823076
309 0 2 0.589700 7.875764 14.661223 14.904490
310 0 1 -1.179400 21.536467 12.330318 1.678952
311 0 2 0.589700 21.637278 13.245680 1.924299
312 0 2 0.589700 22.331367 12.126078 1.188690
313 0 1 -1.179400 2.454272 7.989307 0.695605
314 0 2 0.589700 1.962278 7.660940 1.444585
315 0 2 0.589700 3.364071 8.005517 0.991415
316 0 1 -1.179400 1.996897 9.701648 7.470064
317 0 2 0.589700 2.152583 10.218677 8.255834
318 0 2 0.589700 1.810426 8.824903 7.794193
319 0 1 -1.179400 22.155474 12.372207 7.773953
320 0 2 0.589700 22.782993 12.165870 7.084210
321 0 2 0.589700 22.042599 11.552982 8.247855
322 0 1 -1.179400 18.712557 1.282889 4.062989
323 0 2 0.589700 18.337845 1.092660 3.206509
324 0 2 0.589700 19.630753 1.024362 3.987989
325 0 1 -1.179400 15.333675 20.145134 1.252660
326 0 2 0.589700 14.609394 19.616579 0.922674
327 0 2 0.589700 15.346044 19.974182 2.190581
328 0 1 -1.179400 9.361855 17.781443 19.854889
329 0 2 0.589700 10.209855 17.535677 20.222431
330 0 2 0.589700 8.740431 17.647169 20.567539
331 0 1 -1.179400 19.152601 14.888688 -0.046237
332 0 2 0.589700 19.490259 15.437963 22.449083
333 0 2 0.589700 18.256128 15.193860 0.089472
334 0 1 -1.179400 23.051247 5.773599 6.748149
335 0 2 0.589700 23.316227 5.831893 5.833800
336 0 2 0.589700 23.688314 6.310453 7.214893
337 0 1 -1.179400 24.949900 10.456168 3.394324
338 0 2 0.589700 25.320791 11.202410 3.858122
339 0 2 0.589700 25.171274 9.704727 3.937631
340 0 1 -1.179400 1.170656 21.817816 8.947638
341 0 2 0.589700 0.783126 21.328026 9.668696
342 0 2 0.589700 1.949444 21.318556 8.707348
343 0 1 -1.179400 16.027697 22.831678 10.209172
344 0 2 0.589700 15.808152 22.852404 9.281353
345 0 2 0.589700 16.722088 23.480330 10.306297
346 0 1 -1.179400 9.398191 9.548508 5.444210
347 0 2 0.589700 10.096996 9.965799 4.943986
348 0 2 0.589700 9.019027 8.912422 4.843049
349 0 1 -1.179400 20.646051 7.149270 7.293034
350 0 2 0.589700 21.422073 6.648690 7.046681
351 0 2 0.589700 20.559383 7.807282 6.608792
352 0 1 -1.179400 15.810380 13.354006 4.638455
353 0 2 0.589700 16.287565 12.532146 4.721815
354 0 2 0.589700 15.767756 13.696542 5.527185
355 0 1 -1.179400 18.653381 1.982982 9.468676
356 0 2 0.589700 19.356981 2.406444 9.956895
357 0 2 0.589700 17.849623 2.357251 9.826218
358 0 1 -1.179400 15.971843 10.926219 7.482783
359 0 2 0.589700 15.874930 10.590071 8.369723
360 0 2 0.589700 15.758957 11.852542 7.554187
361 0 1 -1.179400 30.146757 7.286653 4.164624
362 0 2 0.589700 29.923037 7.957251 4.804339
363 0 2 0.589700 29.473160 7.365507 3.491825
364 0 1 -1.179400 28.587896 7.358642 1.833344
365 0 2 0.589700 28.923532 6.719298 1.210360
366 0 2 0.589700 27.651781 7.413696 1.642209
367 0 1 -1.179400 31.498199 10.327111 3.313908
368 0 2 0.589700 32.033012 9.635176 3.695981
369 0 2 0.589700 31.791777 10.381404 2.408019
370 0 1 -1.179400 28.610098 10.457167 3.432144
371 0 2 0.589700 29.562126 10.366381 3.470799
372 0 2 0.589700 28.431446 10.726569 2.535051
373 0 1 -1.179400 26.796206 8.899424 5.022593
374 0 2 0.589700 26.846027 7.959608 4.872930
375 0 2 0.589700 27.513533 9.261594 4.505669
376 0 1 -1.179400 25.447725 7.530194 1.818139
377 0 2 0.589700 25.105736 7.523829 2.708651
378 0 2 0.589700 24.867275 8.122437 1.345231
379 0 1 -1.179400 30.125977 9.082479 0.484387
380 0 2 0.589700 29.425314 8.595117 0.913547
381 0 2 0.589700 30.924965 8.800688 0.927293
382 0 1 -1.179400 26.954212 10.515709 1.202744
383 0 2 0.589700 26.163322 10.442911 1.734840
384 0 2 0.589700 26.883837 9.803592 0.573052
385 0 1 -1.179400 29.997736 11.921368 0.254275
386 0 2 0.589700 29.279270 12.317161 0.744246
387 0 2 0.589700 29.876451 10.983359 0.371175
388 0 1 -1.179400 26.978096 6.140967 4.727717
389 0 2 0.589700 27.679649 5.575642 4.410258
390 0 2 0.589700 26.849642 5.876865 5.634859
391 0 1 -1.179400 36.215889 7.673165 4.053544
392 0 2 0.589700 36.222458 6.854697 4.541829
393 0 2 0.589700 36.059837 8.343294 4.713367
394 0 1 -1.179400 34.736759 7.639822 1.720219
395 0 2 0.589700 35.220486 7.537776 2.536610
396 0 2 0.589700 34.941120 6.852958 1.222409
397 0 1 -1.179400 37.582153 10.399388 3.501724
398 0 2 0.589700 37.961720 11.190051 3.876293
399 0 2 0.589700 36.647861 10.592017 3.425587
400 0 1 -1.179400 34.774933 10.390553 3.228942
401 0 2 0.589700 34.413750 9.675967 3.747069
402 0 2 0.589700 34.551708 11.176608 3.719948
403 0 1 -1.179400 33.222801 8.642583 4.740190
404 0 2 0.589700 32.952465 9.006969 5.579035
405 0 2 0.589700 33.123764 7.700723 4.846395
406 0 1 -1.179400 31.719954 7.271864 1.841873
407 0 2 0.589700 32.655304 7.472832 1.865347
408 0 2 0.589700 31.429018 7.375806 2.744260
409 0 1 -1.179400 36.690708 9.201614 0.587648
410 0 2 0.589700 36.014809 8.852374 1.165307
411 0 2 0.589700 36.557762 10.145057 0.609743
412 0 1 -1.179400 33.246536 10.566231 1.011909
413 0 2 0.589700 33.837524 10.536163 1.761329
414 0 2 0.589700 33.456730 9.782348 0.511804
415 0 1 -1.179400 36.615360 11.961783 0.431701
416 0 2 0.589700 35.727932 12.303540 0.535315
417 0 2 0.589700 37.181667 12.649121 0.775089
418 0 1 -1.179400 33.045162 5.904663 4.949987
419 0 2 0.589700 32.962547 5.325919 5.702991
420 0 2 0.589700 32.565395 5.461600 4.254152
421 0 1 -1.179400 42.798252 7.356534 4.001760
422 0 2 0.589700 42.612011 8.014708 4.665846
423 0 2 0.589700 42.087952 7.448788 3.369341
424 0 1 -1.179400 41.127628 7.294973 1.985206
425 0 2 0.589700 40.179253 7.377865 2.083975
426 0 2 0.589700 41.344414 7.872233 1.257970
427 0 1 -1.179400 44.114071 10.555674 3.445488
428 0 2 0.589700 44.522804 11.279696 3.912965
429 0 2 0.589700 44.483902 10.600711 2.567220
430 0 1 -1.179400 41.188511 10.688372 3.380784
431 0 2 0.589700 40.847485 9.998439 3.943959
432 0 2 0.589700 42.128120 10.514612 3.327529
433 0 1 -1.179400 39.357422 8.830302 4.978755
434 0 2 0.589700 39.317112 7.890876 4.823896
435 0 2 0.589700 38.642654 9.189128 4.456007
436 0 1 -1.179400 38.277496 7.241169 2.098906
437 0 2 0.589700 37.759048 7.414951 2.881313
438 0 2 0.589700 38.050713 7.948457 1.501200
439 0 1 -1.179400 42.665222 9.284809 0.280258
440 0 2 0.589700 42.387028 9.009127 22.608770
441 0 2 0.589700 42.623596 10.236470 0.253545
442 0 1 -1.179400 39.370808 10.874823 1.331870
443 0 2 0.589700 38.518406 10.752604 1.748014
444 0 2 0.589700 39.998020 10.850080 2.051690
445 0 1 -1.179400 42.550659 11.968564 0.755707
446 0 2 0.589700 42.623051 12.549427 0.003296
447 0 2 0.589700 43.252552 12.247174 1.340980
448 0 1 -1.179400 39.362286 6.015281 4.740759
449 0 2 0.589700 40.115189 5.757129 4.211699
450 0 2 0.589700 38.601677 5.789237 4.207941
451 0 1 -1.179400 49.369446 7.252612 4.457490
452 0 2 0.589700 48.982166 7.940543 4.992749
453 0 2 0.589700 48.736439 7.113701 3.755929
454 0 1 -1.179400 47.419048 7.223530 2.482335
455 0 2 0.589700 46.471752 7.335063 2.561187
456 0 2 0.589700 47.523975 6.481795 1.892933
457 0 1 -1.179400 50.581081 10.482889 3.647751
458 0 2 0.589700 50.957039 9.739535 4.112147
459 0 2 0.589700 51.017719 10.478572 2.799275
460 0 1 -1.179400 47.607285 10.477440 3.285161
461 0 2 0.589700 47.350227 11.058351 3.996288
462 0 2 0.589700 48.560337 10.420675 3.352912
463 0 1 -1.179400 45.776627 8.818036 4.878028
464 0 2 0.589700 45.102661 9.294425 4.397211
465 0 2 0.589700 46.603527 9.148615 4.529863
466 0 1 -1.179400 44.654530 7.519469 1.799313
467 0 2 0.589700 44.266808 8.056709 1.113026
468 0 2 0.589700 44.002956 7.520827 2.497766
469 0 1 -1.179400 48.919346 8.981359 0.650562
470 0 2 0.589700 48.103920 8.719453 1.075597
471 0 2 0.589700 49.607300 8.569544 1.169888
472 0 1 -1.179400 45.651611 10.730932 1.070484
473 0 2 0.589700 45.611435 9.905300 0.596068
474 0 2 0.589700 46.286556 10.576292 1.766993
475 0 1 -1.179400 48.806061 11.644927 0.620476
476 0 2 0.589700 49.017200 10.715470 0.616898
477 0 2 0.589700 48.191185 11.748657 1.343790
478 0 1 -1.179400 45.801979 5.877137 4.779794
479 0 2 0.589700 45.407246 5.528422 5.575251
480 0 2 0.589700 45.547314 6.795686 4.770984
481 0 1 -1.179400 -0.639826 10.456934 18.795269
482 0 2 0.589700 0.311404 10.559043 18.766598
483 0 2 0.589700 -0.845854 9.916900 18.036968
484 0 1 -1.179400 6.497723 14.351908 7.916974
485 0 2 0.589700 6.880517 13.609758 8.377743
486 0 2 0.589700 6.536924 14.107678 6.996176
487 0 1 -1.179400 14.946246 20.574953 16.232277
488 0 2 0.589700 15.317959 20.182943 15.446046
489 0 2 0.589700 14.002681 20.588715 16.072660
490 0 1 -1.179400 3.922188 9.069180 5.665176
491 0 2 0.589700 4.499382 9.819098 5.540604
492 0 2 0.589700 3.345716 9.324335 6.382236
493 0 1 -1.179400 -0.825829 14.986713 4.791362
494 0 2 0.589700 -0.809987 15.578404 5.538602
495 0 2 0.589700 -0.952533 14.122930 5.173742
496 0 1 -1.179400 50.393166 13.735883 2.003739
497 0 2 0.589700 50.005402 14.567273 1.743124
498 0 2 0.589700 50.014740 13.098988 1.402976
499 0 1 -1.179400 0.564580 13.550150 2.221655
500 0 2 0.589700 -0.381753 13.654806 2.319182
501 0 2 0.589700 0.874991 13.340249 3.098804
502 0 1 -1.179400 2.176503 24.205095 18.388882
503 0 2 0.589700 3.011251 24.671238 18.376501
504 0 2 0.589700 1.535991 24.860645 18.656822
505 0 1 -1.179400 1.740657 12.353500 4.478041
506 0 2 0.589700 1.620839 11.488845 4.095427
507 0 2 0.589700 2.425166 12.233068 5.133520
508 0 1 -1.179400 -0.794560 12.183608 5.285058
509 0 2 0.589700 -1.289571 11.664442 4.655670
510 0 2 0.589700 0.101690 12.180475 4.950336
511 0 1 -1.179400 10.294704 13.303541 6.353391
512 0 2 0.589700 10.375409 12.693062 7.081085
513 0 2 0.589700 11.174352 13.663481 6.245667
514 0 1 -1.179400 18.842363 0.534182 13.286106
515 0 2 0.589700 19.398060 0.040008 12.687597
516 0 2 0.589700 17.952234 0.248754 13.082796
517 0 1 -1.179400 9.065014 2.480970 18.345583
518 0 2 0.589700 9.765735 2.855227 18.876301
519 0 2 0.589700 8.790689 1.703481 18.824402
520 0 1 -1.179400 21.925858 14.517669 14.018081
521 0 2 0.589700 21.857635 15.288084 14.575114
522 0 2 0.589700 22.407936 13.884365 14.544371
523 0 1 -1.179400 5.359755 18.167894 15.569437
524 0 2 0.589700 5.599673 18.398581 16.463146
525 0 2 0.589700 4.829383 18.901005 15.266234
526 0 1 -1.179400 16.377104 18.660242 18.395370
527 0 2 0.589700 16.008390 18.864454 17.539534
528 0 2 0.589700 15.614454 18.529076 18.956387
529 0 1 -1.179400 19.449205 8.967724 14.765808
530 0 2 0.589700 18.613258 9.431107 14.738767
531 0 2 0.589700 19.622290 8.840032 15.694815
532 0 1 -1.179400 9.789721 24.500954 5.296431
533 0 2 0.589700 9.379400 24.304602 4.457714
534 0 2 0.589700 10.303947 23.723593 5.500755
535 0 1 -1.179400 5.571605 24.564871 13.275494
536 0 2 0.589700 6.124760 24.499151 14.050843
537 0 2 0.589700 6.068553 24.121264 12.592083
538 0 1 -1.179400 11.166162 1.426553 16.780258
539 0 2 0.589700 11.573059 0.661151 17.178158
540 0 2 0.589700 10.397548 1.599995 17.321356
541 0 1 -1.179400 17.766747 8.279309 18.504261
542 0 2 0.589700 17.307358 8.307440 17.668257
543 0 2 0.589700 18.689787 8.184483 18.270414
544 0 1 -1.179400 13.871296 15.901714 22.871195
545 0 2 0.589700 14.738944 15.676885 22.537277
546 0 2 0.589700 13.988948 15.963615 0.617282
547 0 1 -1.179400 18.224661 24.657743 10.434696
548 0 2 0.589700 18.353191 0.467846 10.050117
549 0 2 0.589700 19.081848 24.238588 10.370487
550 0 1 -1.179400 16.244049 16.122240 8.860359
551 0 2 0.589700 16.914558 16.058146 9.537770
552 0 2 0.589700 15.797557 16.945717 9.040420
553 0 1 -1.179400 12.770337 7.260679 8.521132
554 0 2 0.589700 13.197475 7.832817 7.888391
555 0 2 0.589700 12.209599 6.695695 7.994308
556 0 1 -1.179400 6.872063 16.353825 4.193208
557 0 2 0.589700 7.103446 16.190748 3.282517
558 0 2 0.589700 7.670163 16.709644 4.580911
559 0 1 -1.179400 20.779266 8.558249 2.331731
560 0 2 0.589700 19.881496 8.885592 2.377195
561 0 2 0.589700 21.270788 9.115831 2.930172
562 0 1 -1.179400 14.712044 11.847563 21.254410
563 0 2 0.589700 14.936430 11.091863 20.718290
564 0 2 0.589700 15.546540 12.290875 21.400545
565 0 1 -1.179400 13.334169 13.120652 9.248955
566 0 2 0.589700 14.075873 13.430774 9.765624
567 0 2 0.589700 13.230187 12.208332 9.504135
568 0 1 -1.179400 2.871041 21.880396 5.901419
569 0 2 0.589700 2.446907 21.824810 5.048476
570 0 2 0.589700 3.807868 21.848543 5.708477
571 0 1 -1.179400 23.726366 15.790586 6.449659
572 0 2 0.589700 24.059160 16.669071 6.286544
573 0 2 0.589700 23.274197 15.856580 7.287434
574 0 1 -1.179400 22.180050 22.496599 20.206137
575 0 2 0.589700 23.111931 22.704302 20.271143
576 0 2 0.589700 21.861086 22.538124 21.104151
577 0 1 -1.179400 24.915110 16.938599 3.189990
578 0 2 0.589700 25.110023 16.302898 3.873249
579 0 2 0.589700 23.965221 17.049454 3.228534
580 0 1 -1.179400 13.553258 17.564035 11.023947
581 0 2 0.589700 12.954196 18.306719 11.052306
582 0 2 0.589700 13.021990 16.845510 10.689008
583 0 1 -1.179400 3.819963 12.316224 2.228531
584 0 2 0.589700 3.109549 11.693389 2.087252
585 0 2 0.589700 3.526665 12.846508 2.964896
586 0 1 -1.179400 8.927767 8.270152 10.594589
587 0 2 0.589700 8.013384 8.419423 10.355500
588 0 2 0.589700 9.419668 8.457846 9.798511
589 0 1 -1.179400 23.708199 15.805584 0.189557
590 0 2 0.589700 23.598070 15.267341 22.608551
591 0 2 0.589700 24.079454 15.214010 0.839164
592 0 1 -1.179400 21.177752 22.065331 22.935492
593 0 2 0.589700 20.919827 22.968124 -0.097886
594 0 2 0.589700 22.068846 22.003042 0.079868
595 0 1 -1.179400 8.691958 19.302408 22.981770
596 0 2 0.589700 8.905150 18.378399 22.885536
597 0 2 0.589700 7.913162 19.313049 0.337863
598 0 1 -1.179400 5.682257 24.946499 6.086986
599 0 2 0.589700 6.134576 0.654250 5.729836
600 0 2 0.589700 5.076494 0.254185 6.731312
601 0 1 -1.179400 30.029409 13.436888 3.864560
602 0 2 0.589700 29.989292 14.239004 4.377782
603 0 2 0.589700 29.978052 12.737728 4.510405
604 0 1 -1.179400 28.339586 13.518293 1.769217
605 0 2 0.589700 28.613935 14.264613 1.243096
606 0 2 0.589700 28.959969 13.498281 2.495029
607 0 1 -1.179400 31.490128 16.572388 3.311054
608 0 2 0.589700 31.972235 15.923820 3.818365
609 0 2 0.589700 31.923145 16.578100 2.460749
610 0 1 -1.179400 28.524466 16.432278 3.680839
611 0 2 0.589700 29.447800 16.602564 3.496135
612 0 2 0.589700 28.142126 17.295523 3.815083
613 0 1 -1.179400 26.514530 14.810611 4.626752
614 0 2 0.589700 26.657207 13.868807 4.657031
615 0 2 0.589700 27.343332 15.166615 4.309550
616 0 1 -1.179400 24.572340 13.989697 2.384849
617 0 2 0.589700 23.984648 13.962821 3.136960
618 0 2 0.589700 25.439695 14.138463 2.759625
619 0 1 -1.179400 29.842342 15.548287 0.449786
620 0 2 0.589700 29.998354 16.482996 0.348307
621 0 2 0.589700 30.692944 15.191348 0.702024
622 0 1 -1.179400 26.944889 16.596342 1.130211
623 0 2 0.589700 26.190306 16.919052 1.619958
624 0 2 0.589700 27.613045 16.434088 1.793357
625 0 1 -1.179400 30.093109 18.257238 0.466260
626 0 2 0.589700 30.893059 18.666988 0.791913
627 0 2 0.589700 29.408102 18.553799 1.062460
628 0 1 -1.179400 26.941582 12.201102 4.820971
629 0 2 0.589700 27.035730 11.761125 5.661515
630 0 2 0.589700 27.519175 11.719223 4.233088
631 0 1 -1.179400 36.450352 13.342546 3.865459
632 0 2 0.589700 36.280552 14.025556 4.508477
633 0 2 0.589700 35.779915 13.472210 3.197432
634 0 1 -1.179400 34.684402 13.663939 1.797275
635 0 2 0.589700 34.886044 14.377637 1.198256
636 0 2 0.589700 33.771648 13.808460 2.045287
637 0 1 -1.179400 37.676125 16.904854 3.313622
638 0 2 0.589700 37.989811 16.168993 3.832634
639 0 2 0.589700 38.209396 17.642162 3.601180
640 0 1 -1.179400 34.886688 17.011904 3.457063
641 0 2 0.589700 35.840424 17.046085 3.383902
642 0 2 0.589700 34.701836 16.130432 3.769049
643 0 1 -1.179400 33.354088 14.801959 4.532244
644 0 2 0.589700 33.443970 13.894293 4.808482
645 0 2 0.589700 33.499817 15.308592 5.326642
646 0 1 -1.179400 31.855047 13.532048 1.621026
647 0 2 0.589700 31.319727 12.848841 1.224217