LAMMPS data file via write_data, version 23 Jun 2022, timestep = 26000000

2592 atoms
2 atom types

0 31.157 xlo xhi
0 21.485012 ylo yhi
-0.7812381689622008 32.537406142088145 zlo zhi
-9.195174 0.7671672750943109 -11.22536184212142 xy xz yz

Masses

1 1.008
2 15.999

Atoms # full

572 0 2 0 10.003052349681163 -1.6710863026548672 15.202569002184152 -1 1 0
422 0 2 0 5.248108784854295 -2.398347798779376 8.302746868653442 0 1 0
868 0 1 0 12.059731759765839 -2.705173321492487 8.320176795081512 1 1 0
1412 0 2 0 9.193351840463142 5.41929440490113 10.702683641931335 0 0 0
829 0 1 0 4.833061475822886 0.17995129888473738 14.837462116120763 1 0 0
492 0 2 0 5.537027124066227 17.459096291223556 5.564910594436222 0 0 0
349 0 1 0 9.008961054301821 8.496270772997766 8.612797727768667 1 0 0
203 0 2 0 0.7503800792284783 16.312143092053226 14.2245718339041 1 1 0
169 0 1 0 0.8515411023494848 -0.3569960862593069 15.151783649759855 1 2 0
232 0 1 0 -0.3588838010051605 6.62715921277558 0.716606962495473 0 0 0
845 0 2 0 -0.8777860974953002 3.0562612182889133 12.586815136932858 0 0 0
100 0 1 0 3.205133461978252 13.840322183949299 4.679784168675295 -1 -2 0
846 0 2 0 -1.35467429755625 4.491593568887067 12.64582829662513 0 0 0
1066 0 1 0 -5.704756603993783 16.564255335059762 5.147863140435043 0 1 0
608 0 2 0 2.3310715874211807 10.798470315266933 5.492417310013498 0 0 0
475 0 1 0 -1.6883983487620542 8.498115908554135 12.141023255770188 1 -1 0
28 0 1 0 12.135435234520815 -0.07500839035573725 3.0854302101530324 0 0 0
568 0 1 0 -1.3521543142806873 14.56787348335489 4.783100751093338 0 -1 0
351 0 2 0 8.690251786228046 8.439240284677886 9.493391675439979 1 0 0
546 0 2 0 -5.45044692005975 14.699425752922421 2.3875197071219194 1 0 0
230 0 2 0 -5.187741722590359 15.494803871470948 8.871782487752471 0 -1 0
653 0 2 0 8.132678791797138 -1.4208011174583377 9.10670266671466 2 2 0
761 0 2 0 -7.679587908490184 19.964833062787086 2.4104166950536383 0 1 0
823 0 1 0 -1.287729765439928 11.552170957114374 13.802668743744388 1 1 0
685 0 1 0 0.9678273767392749 18.094800279406897 6.699673083121828 -1 0 0
257 0 2 0 -6.380269071673093 16.34914240628469 13.154465265352645 1 -1 0
1090 0 1 0 1.1825556264220445 10.059530992753153 11.200799854930137 0 2 0
2187 0 2 0 0.25642374402129525 8.406684938206055 8.81776624893201 1 1 0
511 0 1 0 7.328067090146354 -1.085299720287177 12.851229489332876 1 1 0
1070 0 2 0 8.311706463792058 -2.4584823793461354 12.473852165616858 0 0 0
2221 0 1 0 9.814415728346097 7.51778402704011 -0.2541403697862188 0 0 0
1162 0 1 0 8.499778694280055 -0.411971672609484 15.230177027761606 0 1 0
488 0 2 0 6.535098526338873 2.834662498015665 1.6754077523741273 1 0 0
489 0 2 0 7.339769765287393 1.5436395376305825 1.591235053760883 1 0 0
806 0 2 0 -4.498409661261722 13.30398692519738 15.144442374903708 1 1 0
578 0 2 0 5.056065659249688 4.271896251846417 0.49190062885653996 1 -1 0
331 0 1 0 3.760541231238371 4.689053275949204 7.403925942557393 0 0 0
113 0 2 0 -2.3836330382049087 19.266890865171064 3.297858879156421 0 -1 0
837 0 2 0 10.456783380513196 4.328667704026641 13.712926941547467 1 1 0
1151 0 2 0 -2.273949135194135 4.035696478595659 9.610939128228516 0 0 0
908 0 2 0 -1.7505260836893655 16.41564821779666 6.869658895037347 1 0 0
635 0 2 0 9.226297795748147 11.022504054716165 10.608257660192987 0 -1 0
310 0 1 0 9.645663429388136 7.36533657311052 14.189454943827474 0 0 0
277 0 1 0 0.14706493171270346 13.135883319595061 10.190476372436358 0 0 0
288 0 2 0 -2.8915221205164823 7.280863861512345 -0.4680654444341093 1 -1 0
2199 0 2 0 13.522006474954663 2.9951242396444977 -0.17293709599020912 0 0 0
817 0 1 0 -5.613901129798682 20.508996707738888 1.407661127958907 -1 -2 0
282 0 2 0 9.681265530554363 -0.7127603667150184 5.53968110049488 0 1 0
39 0 2 0 2.136272046853118 4.3920461094871985 6.565285296603196 0 0 0
394 0 1 0 2.9325765307407914 18.535231486457544 3.8487018391259262 0 -1 0
55 0 1 0 1.0408391580509755 12.953222114078446 12.9284179815306 0 1 0
722 0 2 0 -1.415146377688713 17.649682501652585 10.563877962929308 -1 -1 0
621 0 2 0 4.118601298789732 9.586838519521923 8.000106198372313 0 0 0
1293 0 2 0 9.04983794479909 0.5645505535446205 0.5321477914943389 0 2 0
192 0 2 0 -2.3210995910605217 12.177699849585359 15.128956387951098 1 -1 0
852 0 2 0 0.7608169960875657 16.111990350041765 3.648819583140676 1 0 0
153 0 2 0 3.7467849240151496 8.985245489204377 15.371585463760262 0 0 0
471 0 2 0 2.640874460079053 8.249676932638625 2.102818315060402 1 0 0
803 0 2 0 8.238387640531533 10.187789059488548 6.854430843717772 0 0 0
1265 0 2 0 -2.9589376008903487 8.713478340483988 13.349129460684667 0 -2 0
149 0 2 0 -5.539382271327082 12.409853929879807 6.573211616615185 1 -1 0
57 0 2 0 0.1949185366329757 12.780745729850768 13.389449077110028 0 1 0
869 0 2 0 2.1588554704245033 18.319196960117694 7.748201604303752 1 0 0
1671 0 2 0 0.8730198358096695 5.312178898922705 15.236581013483942 1 0 0
263 0 2 0 2.1318689764898098 11.9003183403266 1.2355387642448359 1 -1 0
505 0 1 0 12.959189193622674 0.47986792063850725 14.28630854157139 0 0 0
379 0 1 0 -4.68170333755031 11.17120799343626 13.019835730262495 1 1 0
1069 0 1 0 8.826632606016624 -3.0838256159049315 11.929249595387152 0 0 0
29 0 2 0 12.493515857379055 -0.4613795908570204 3.9353331395590265 0 0 0
513 0 2 0 7.892576806310598 -0.7669541819735102 13.529588572275244 1 1 0
923 0 2 0 -1.5901642969686167 10.181580431296172 11.152680712324504 0 0 0
470 0 2 0 4.198214558515244 7.72707911043032 2.4663830818914434 1 0 0
2581 0 1 0 7.689773982367275 11.697772333900144 9.746280667854563 0 -1 0
74 0 2 0 8.921255847685979 1.2376021264848327 8.162005403280398 0 0 0
853 0 1 0 -5.669034629725576 18.03068912804824 2.7962560934746334 0 0 0
33 0 2 0 11.138532080714452 0.31033405816427617 8.274927439503823 -1 0 0
185 0 2 0 8.760190013725403 14.508203130135866 2.632765165956082 0 -1 0
252 0 2 0 7.701741276518763 13.988824103560395 5.570857931442615 0 0 0
1413 0 2 0 8.481069620888704 4.9028623418837665 9.458149226676655 0 0 0
1266 0 2 0 -3.5918193985996045 8.78708330807147 14.8128650904123 0 -2 0
517 0 1 0 7.264898237740213 10.867790964545803 2.833140163607737 0 -2 0
804 0 2 0 8.567939694629375 11.628799880741356 6.499076207081974 0 -1 0
987 0 2 0 7.481072898255105 8.641101419738906 11.758391902264734 -1 0 0
740 0 2 0 8.450455648613541 10.095957034071066 12.805228557877209 0 0 0
453 0 2 0 -1.5118201072628104 6.300994066405762 7.467168850362439 0 0 0
910 0 1 0 9.491881706771931 3.79036654682883 1.7717847561951494 0 -1 0
450 0 2 0 3.0548246460586412 -1.6231576426697134 12.175429689904783 0 0 0
256 0 1 0 -6.977413273479578 16.487042746198668 13.89377426630468 1 -1 0
108 0 2 0 1.7559358565724987 1.441476968757909 -0.24078681291869308 1 0 0
1177 0 1 0 6.572555005525092 8.619009245349792 6.81144293013324 0 0 0
397 0 1 0 7.807871442357653 4.983026039163962 15.770551639540841 1 0 0
1111 0 1 0 1.048613215788703 2.1713447126936103 8.462815795603417 0 1 0
439 0 1 0 6.50485379835261 -0.279176499757241 6.068063777606734 0 0 0
1053 0 2 0 -7.24044996871789 16.55592146958884 2.2063063806909677 1 0 0
287 0 2 0 -3.45190705657182 7.788597944950102 0.8828932901995497 1 -1 0
772 0 1 0 5.79384541348471 13.803550272760326 3.3524283625216977 -1 0 0
543 0 2 0 1.3789640012323596 0.7074776991260142 1.9975861959985197 1 0 0
218 0 2 0 4.9116671158305465 15.606957221894302 14.614980565106864 0 -2 0
765 0 2 0 5.139219416596459 1.1116466212419531 2.7933246589096594 0 0 0
950 0 2 0 -2.7667985323822766 4.668370083836161 5.895570818657693 -1 -1 0
673 0 1 0 4.662005558542655 14.09822454277014 0.5917240285993279 1 -1 0
110 0 2 0 2.853709842510605 12.321966140868971 8.516288603248158 1 1 0
248 0 2 0 5.44945531273002 9.254882110303493 10.318270169808613 0 0 0
1073 0 2 0 -2.6972520123630326 5.779800809179607 13.895522837926515 0 -1 0
774 0 2 0 6.691895230137366 13.664975138539495 2.9966657366752463 -1 0 0
493 0 1 0 -1.573784967312618 14.638712460805893 14.638104388521665 0 -1 0
549 0 2 0 8.550565267789693 1.7312671635138208 4.662596951467005 0 0 0
395 0 2 0 2.2749952542493377 17.820598866972585 3.973223290811436 0 -1 0
888 0 2 0 1.851984158433042 14.120730245422079 3.54115480634266 0 -1 0
111 0 2 0 1.7681482985744712 12.21850462278481 7.386692234069509 1 1 0
440 0 2 0 5.937382256091472 0.17877271938099693 6.702000421768885 0 0 0
332 0 2 0 4.3255183489685 4.111793666892633 7.919441669123421 0 0 0
163 0 1 0 2.5740923372821936 1.9347091065225204 15.162845524113756 0 0 0
367 0 1 0 0.43400003482359145 -0.25451627839207847 9.592642449084092 -1 1 0
76 0 1 0 2.127579884419166 3.2492079975451267 10.650890770985182 -2 0 0
650 0 2 0 -4.0023680657333145 11.401134890688015 4.75430053139051 0 1 0
663 0 2 0 -2.2905440066924996 14.085556826262692 0.675247705371333 1 -1 0
141 0 2 0 3.640136791158601 17.680795268263626 0.39004948040581056 0 -1 1
569 0 2 0 -1.0697246119095536 14.777760468882686 3.8764670842496534 0 -1 0
988 0 1 0 12.608461771266278 -0.8544676145674841 5.932741498090193 0 0 0
750 0 2 0 -0.22231882187706803 1.1087537195468258 13.23356023195701 -1 -1 0
662 0 2 0 -3.432791713326888 13.0633946261221 1.1017841715247678 1 -1 1
1122 0 2 0 -2.111994866083177 10.588567710316871 1.4716938187460147 0 1 0
1279 0 1 0 2.2092683608146073 15.248912601647547 11.211349719341811 1 0 0
1057 0 1 0 4.485292950273984 12.074529337712868 15.690484403155551 1 0 0
1178 0 2 0 6.390591049024235 8.62174334312629 7.763729000963162 0 0 0
240 0 2 0 10.140492660231523 -2.2001145460947775 10.847345151312897 0 0 0
253 0 1 0 5.5445134984887625 4.338572007591751 5.266439348902681 0 -1 0
1192 0 1 0 0.5134336286451353 -1.074259873499598 5.609624330916804 0 0 0
398 0 2 0 7.008104871315969 5.49206899257786 15.421190001021305 1 0 0
523 0 1 0 1.5244060524695848 3.2585766908232316 -0.5667569420272466 0 0 0
1002 0 2 0 4.21603539159364 9.117912222417168 12.349567562767113 0 1 0
786 0 2 0 4.686686068158663 13.2490029643394 12.223247156038688 0 1 0
421 0 1 0 4.758537503514433 -2.7560934597473765 7.536896380869248 0 1 0
99 0 2 0 0.8429509611629924 -2.2956779221185997 12.05492105407752 0 0 0
476 0 2 0 -0.7524053142000215 8.339630003999229 12.41695960281166 1 -1 0
91 0 1 0 3.5219903221848585 5.366367430799862 1.3217813733876524 0 0 0
911 0 2 0 10.072686879892858 4.577732204272925 1.7496703526021844 0 -1 0
575 0 2 0 -4.400809421005877 15.463331595004952 15.178708668031312 1 -1 0
573 0 2 0 11.456228201805027 -1.4729336621539773 15.825728415147463 -1 1 0
844 0 1 0 -0.6150835960373533 3.963036073226691 12.368426967776344 0 0 0
77 0 2 0 1.9186184433073012 3.0121329881998884 9.73303540839491 -2 1 0
802 0 1 0 8.785101138015603 10.945999389432552 7.158319822389037 0 -1 0
1521 0 2 0 -4.150895427446562 13.880814519285009 6.979213903051912 0 0 0
912 0 2 0 9.472585400680938 3.52361921693773 0.8540975618230131 0 -1 0
56 0 2 0 1.7361247743002743 13.209188541411034 13.57756432757804 0 1 0
547 0 1 0 7.58292858901974 1.8962764091385476 4.71246757911682 0 0 0
551 0 2 0 4.281708990333456 18.447311457521963 2.439373444276504 -1 -1 0
170 0 2 0 1.5294202664880658 -1.0604004095296045 15.261485838981997 1 2 0
874 0 1 0 4.897201963774271 -3.2342444320517187 11.017787344110191 1 0 0
544 0 1 0 -5.913049890396983 14.374097769894323 3.1884394007948953 1 0 0
559 0 1 0 6.602856351540229 19.66439777190943 3.8042543310901316 0 -1 0
1041 0 2 0 2.0007159325427466 3.5338443094486403 14.091945891369857 0 0 0
562 0 1 0 5.3082770263795265 6.530710774256548 3.154594344183727 0 -2 0
885 0 2 0 10.025289984897965 2.6467732991254653 3.1595502637779136 0 1 0
518 0 2 0 7.695663644946549 10.006412034212913 3.0052176202457233 0 -2 0
1213 0 1 0 10.352999607240063 6.837193067804004 11.171959468342596 -1 0 0
966 0 2 0 10.641670937818398 -0.5018560482483201 1.9564734421775953 0 -1 0
862 0 1 0 6.168014568683461 10.76929695255387 -0.2356374985004468 0 -1 0
441 0 2 0 6.9405676043893605 0.48676332569168723 5.619401737776868 0 0 0
897 0 2 0 -2.64414805780885 7.53074881818566 3.9404872268634312 0 0 0
1455 0 2 0 -3.284208250352475 14.159141495035353 9.303533640302826 0 -1 0
480 0 2 0 9.514524813087585 6.869070422171063 5.699323623522246 -2 -2 0
553 0 1 0 -2.569749686317444 18.875541984269862 1.6296195861684755 1 -1 0
23 0 2 0 -2.8276986006745326 17.069271707997295 2.440888127946186 0 -1 0
1381 0 1 0 -0.5899728398160873 4.2297448348154525 9.653820883024206 0 0 0
958 0 1 0 -4.297726173588607 11.37988086118391 9.706385949146211 0 -1 0
1074 0 2 0 -3.135234179685739 5.93552819781717 12.387958037949728 0 -1 0
266 0 2 0 9.032398533625619 1.905533790358131 11.574588257248182 0 1 0
654 0 2 0 7.75103212469957 -1.1667426072967306 7.69552801778206 1 2 0
985 0 1 0 7.847168622258725 7.912518251224757 11.34929992688826 -1 0 0
88 0 1 0 7.578198705067088 14.49356234003373 10.840200300833363 0 -1 0
1147 0 1 0 -7.6316554717490925 17.66842478349237 6.754270716833887 0 -1 0
2437 0 1 0 -5.532748876237338 15.074354436417549 0.4831868091708116 1 -1 0
171 0 2 0 0.4356821848895282 -0.5083170288207643 14.291553785212715 1 2 0
632 0 2 0 3.003712558498015 7.52261963432586 8.56928253795694 0 0 0
1125 0 2 0 8.236467382625824 6.377772154608254 0.3254101987267568 0 0 0
36 0 2 0 -1.2483375791757454 14.187175730474305 10.100351036993303 0 0 0
449 0 2 0 3.816791821589551 -0.567074821632148 11.34326068350154 0 0 0
1376 0 2 0 1.9016807464459697 0.265002304157135 12.28054245651725 0 0 0
1040 0 2 0 0.9423239451629117 4.319968416189365 13.377684549679875 0 0 0
570 0 2 0 -2.003184084127859 15.276060826675565 4.850718999358842 0 -1 0
1268 0 2 0 -4.479381960704657 15.039921776927642 12.187575442456607 1 1 0
711 0 2 0 6.749536641108991 11.967903970147766 13.335533995289316 1 1 0
75 0 2 0 8.315377172736246 2.5957221824903614 8.03781792071378 0 0 0
1245 0 2 0 0.46953340027718804 4.9289379590937745 4.979048072755372 1 1 0
365 0 2 0 5.614196038230434 13.081406354646477 8.203344900319099 1 0 0
1375 0 1 0 1.160372158377113 0.8758008461808195 12.039248671738473 0 0 0
2451 0 2 0 -0.30823869332803583 17.110004921194797 -0.17712798649485084 0 0 1
713 0 2 0 15.195317617802635 -2.1789949595926372 7.25156954447829 0 1 0
512 0 2 0 6.612942664438357 -1.6052086104803078 13.318474704734841 1 1 0
452 0 2 0 -0.36670816895876135 5.4873427976493145 6.804382034927942 0 0 0
891 0 2 0 11.594170982627547 6.87185862076457 4.689162779382955 1 1 0
34 0 1 0 -2.0377170702794327 14.434786634943688 10.584767370349704 0 0 0
784 0 1 0 3.782066484565007 13.026220950574213 11.917859845324566 0 1 0
1411 0 1 0 8.884971702128723 4.592800851418042 10.282756625807707 0 0 0
825 0 2 0 -1.0428341372153656 10.726151958952137 14.269263284322044 1 1 0
381 0 2 0 -4.28182847297997 10.457714546564844 13.563541699020488 1 1 0
571 0 1 0 10.89785626947999 -1.9842170162297736 15.140929543289985 -1 1 0
633 0 2 0 3.2361826128191544 6.005883575248006 8.49275534319402 0 0 0
552 0 2 0 5.51901227780884 18.23241777322167 1.3832586692967488 -1 -1 0
709 0 1 0 6.073132007939465 12.637143049459931 13.417434756827815 1 1 0
922 0 1 0 -1.7691075245441126 11.172879595954555 11.063014906189421 0 0 0
924 0 2 0 -0.979055612331605 11.645184048496546 10.788273461350672 -1 0 0
741 0 2 0 7.220693278444458 9.621296679543207 13.637841555667176 0 0 0
295 0 1 0 1.0659676881697395 7.463448720342142 12.43991415947446 1 2 0
265 0 1 0 8.172075748009444 2.294918155565216 11.676079988634841 0 1 0
138 0 2 0 0.9980836999800752 6.83919380255891 -0.3518981901104725 0 -2 0
1044 0 2 0 3.707897725040613 -1.6665223455390221 5.677234548496655 1 1 0
1062 0 2 0 -3.8518434404735555 12.801958213281747 12.8158047392915 0 2 0
284 0 2 0 0.8806743151815343 15.559026349792651 7.934405934829776 0 -1 0
832 0 1 0 -1.7088214961359371 10.74800810822558 7.880036686186552 0 2 0
1126 0 1 0 -3.732487862610118 20.96681801600296 -0.7715773285724165 1 0 0
782 0 2 0 8.182239549768244 13.057423631333673 0.9348148860878169 0 0 0
425 0 2 0 6.142795445470693 14.073881903438656 -0.2012231698363749 0 0 0
878 0 2 0 3.260439595633216 15.442373568044614 7.676224850946664 0 -1 0
762 0 2 0 -8.256654526976131 18.490322937697186 2.593472672706145 0 1 0
697 0 1 0 3.5649925276642183 20.972338682301455 -0.2036354197245015 0 -1 0
324 0 2 0 9.81166337209739 8.701305549505989 2.995810838666454 1 1 0
527 0 2 0 12.914208890556399 1.714871481684746 9.37814174040825 -1 0 0
1124 0 2 0 6.970313505420353 7.192913766530828 0.5654107993333286 0 0 0
202 0 1 0 0.46226433919476023 16.019545731119678 13.369277779555532 1 1 0
739 0 1 0 7.450239141978073 10.214089770184954 12.910664044510272 0 0 0
107 0 2 0 1.0574012709534668 0.03985932607012503 -0.4998765315530806 1 0 0
800 0 2 0 4.886807888613575 6.718819111352971 9.926599566065013 1 0 0
609 0 2 0 2.425333516567928 12.21197948035455 5.35128755998667 0 0 0
392 0 2 0 4.973232798406828 1.5344417508271118 8.279589376012604 0 0 0
98 0 2 0 1.6009894139144514 -3.318821321015822 11.3123871255486 0 0 0
279 0 2 0 0.6932970771100094 13.144265249500165 10.972339797764137 0 -1 0
607 0 1 0 1.829221325471147 11.617376855822297 5.748497591563951 0 0 0
1058 0 2 0 5.103075192789791 12.140638056546459 14.932359581580911 1 0 0
268 0 1 0 7.368518459551488 4.825239902413499 3.2949609042247516 -1 -1 0
1383 0 2 0 0.02422466334575013 3.688614068557841 9.106168300479759 0 0 0
247 0 1 0 5.8588528424266215 9.549113116069647 9.468709310421836 0 0 0
1091 0 2 0 1.3926008983585962 10.21550131518536 10.291027812877708 0 2 0
1120 0 1 0 -2.3415804427352067 10.728213411630225 2.4131194871191686 0 1 0
909 0 2 0 -1.566100094701642 16.522995945729487 8.373326138081623 1 0 0
269 0 2 0 8.107208839970875 4.489989521574071 2.8025538658089513 -1 -1 0
438 0 2 0 12.117164818368726 -2.5646612289684456 13.576300939814105 1 2 0
437 0 2 0 12.538268894997254 -3.1903203646314537 12.15227858084372 1 2 0
695 0 2 0 7.451806055048472 16.795498310756614 5.000403882642088 0 0 0
596 0 2 0 10.019222416183203 11.895000859585197 1.4768120423820634 0 -1 0
1080 0 2 0 4.753354923521437 8.24945874491658 0.6727485830426538 0 1 0
715 0 1 0 4.167220756936069 17.03484409039227 10.141846281939891 1 0 1
1025 0 2 0 1.919543863921775 0.18032762656814727 5.842238677217911 1 -1 0
197 0 2 0 7.52241680728883 -0.3106653791735412 11.277657920744275 0 0 0
226 0 1 0 5.549127953146636 6.394433997903739 15.313549985402098 -1 -1 0
983 0 2 0 0.9072098063874553 7.396526236270077 3.498983178834031 0 0 0
61 0 1 0 6.059180344206494 2.321475063295577 13.598451511734943 0 1 0
1424 0 2 0 3.3007384815253418 5.556224316736561 13.437439343147291 0 0 0
97 0 1 0 1.6085443724778767 -2.8538174039072013 12.123193510474882 0 0 0
1140 0 2 0 -5.676198647972344 16.934072294168796 -0.11184513458585166 1 -2 0
1593 0 2 0 0.4710578507906449 8.759592131389972 14.825496628148253 0 -1 0
1425 0 2 0 4.22682453723878 5.347932925888024 12.22185974087495 0 0 0
667 0 1 0 7.344184902441805 8.442971874900325 15.042979846564284 1 1 0
479 0 2 0 10.52147335853451 7.972271822351967 6.1046406248545635 -2 -2 0
443 0 2 0 -6.347247889922325 12.680431618470658 12.015349240877907 1 0 0
1121 0 2 0 -1.5007706322319108 10.683506015849245 2.9460283618335446 0 1 0
366 0 2 0 5.515468737023274 14.145655379910412 7.21690984611277 1 0 0
30 0 2 0 12.902757222391054 0.2817522828226835 2.613724887137288 0 0 0
245 0 2 0 0.6432964252168698 4.263773206380494 2.943787864480419 1 1 0
769 0 1 0 7.724460458647807 6.083004255190225 8.336315800649244 0 1 0
855 0 2 0 -4.709182779593387 17.815657514408816 2.7543652099281912 0 0 0
1123 0 1 0 7.38945273929328 6.311426851715522 0.7020030394976573 0 0 0
350 0 2 0 9.836864586836082 9.027609258459275 8.704280300178294 1 0 0
723 0 2 0 -2.9545858053526883 17.52073674225095 10.477941363719463 -1 -1 0
683 0 2 0 2.0276495617576806 7.4030874605743655 14.205601695727161 0 1 0
32 0 2 0 9.98741222003031 -0.6576166104135912 7.952561581734054 -1 0 0
1165 0 1 0 0.10453168703909223 10.628480407615543 3.8020603387318657 0 0 0
721 0 1 0 -2.1214792670047866 17.074194402874607 10.298551663073399 -1 -1 0
1167 0 2 0 0.2093431745847012 9.674206426427016 3.979847352565889 0 0 0
783 0 2 0 8.058453216451378 12.129896041946907 2.123997978142041 0 0 0
1071 0 2 0 9.075722082755169 -3.828271124889767 12.430850430910292 0 0 0
204 0 2 0 -0.3298583092613142 15.445111502909938 13.536737123312903 1 1 0
189 0 2 0 12.12678307903117 3.324918451260897 10.223396972115884 0 0 0
20 0 2 0 -0.004158143135776171 7.428429616707064 5.660005737022887 0 -1 0
865 0 1 0 12.863649195273773 3.98962129663258 4.9106377353232205 0 1 0
1382 0 2 0 -0.15145134498539253 4.241506717867947 10.602216664511088 0 0 0
436 0 1 0 12.706395479154109 -3.193886719266919 13.117017765081723 1 2 0
836 0 2 0 9.246153357885964 3.547272296060191 13.312475242533061 1 1 0
1187 0 2 0 11.892639979978 6.103006234291324 2.467693457585162 1 1 0
1264 0 1 0 -3.7696183779126415 8.910106640843207 13.852289383228591 0 -2 0
649 0 1 0 -3.888542060756325 12.179035435737205 4.1998427037800905 0 1 0
1377 0 2 0 1.5658744892460557 1.737150664038544 11.788617910995164 0 0 0
399 0 2 0 8.485813114987339 4.826992251778005 15.091327508807785 1 0 0
281 0 2 0 8.849681994472286 -1.4577985511017657 4.5643305998866275 0 1 0
246 0 2 0 1.162758193229452 2.9944186164767883 2.3277715177293006 1 1 0
150 0 2 0 -5.302353892728479 10.945710935312803 6.8630146309731 1 -1 0
1095 0 2 0 7.034141313034365 14.498365107469882 15.422076161157175 0 0 1
864 0 2 0 6.33277469227969 11.062930267972432 0.738725621535895 0 -1 0
647 0 2 0 2.837991876938089 7.523504842802912 5.4246771586429645 0 -2 0
1243 0 1 0 0.26784884457895347 5.361999358616709 4.090644132089205 1 1 0
2222 0 2 0 10.46422773578662 7.008153238718487 0.2607763866185109 0 0 1
536 0 2 0 5.44304233561526 3.4971550864881724 12.039479148454735 0 0 0
1520 0 2 0 -4.160686975715373 13.260402351981645 5.540332431246468 0 0 0
682 0 1 0 2.269420424686783 7.993485450235165 14.89118670971665 0 1 0
896 0 2 0 -2.681607266886577 9.118241421406388 3.722014078759428 0 0 0
329 0 2 0 11.081325265338283 0.00011406048537931923 13.023707112134188 1 0 0
139 0 1 0 3.2452343960800953 17.52884316132005 -0.4869607092094223 0 -1 1
159 0 2 0 -0.03663201056793321 11.653659802089667 1.7504138786376364 1 0 0
684 0 2 0 2.425332233008587 7.492392989944236 15.669525650491735 0 1 0
2474 0 2 0 4.0312092080739275 3.517407708509997 4.84672810312803 0 1 1
270 0 2 0 6.924386991266997 5.523656717851727 2.7522284534029584 -1 -1 0
1249 0 1 0 0.08867404325574242 18.31811979775709 1.317364485967969 2 0 0
1083 0 2 0 -0.028679543342413905 5.974802077592173 9.452619047497738 0 0 0
619 0 1 0 3.4334091446699775 9.096430147404291 7.502118224247596 0 0 0
305 0 2 0 -2.5937988420710707 8.610135849501212 8.15947769455272 -1 0 0
640 0 1 0 -0.798869017340335 -1.5111123992549547 12.823908210422333 0 1 0
1244 0 2 0 -0.6885905500561994 5.422632967615111 3.9817993043408455 1 1 0
530 0 2 0 2.3639350043997527 10.842712195917219 13.708278005389527 0 1 0
886 0 1 0 1.1424776488960973 14.544917705751713 3.005865686249639 0 -1 0
283 0 1 0 1.528919109193764 15.11808081786267 8.473783694435662 0 -1 0
494 0 2 0 -2.1274623579987852 14.149284277720058 14.057144588739588 0 -1 0
687 0 2 0 0.8965047160758379 18.58936771004378 5.89922897665359 -1 0 0
1532 0 2 0 5.621487159969296 -3.7376432756996336 14.38877495763494 0 0 0
542 0 2 0 0.4900303040160565 0.6621736449563038 3.1804476282119687 1 0 0
932 0 2 0 11.15928360205485 3.0570143880623752 8.038863982084907 -1 0 0
763 0 1 0 4.383146057946687 0.8283505271397167 3.306498932011954 0 0 0
1000 0 1 0 4.4644153784847775 8.461626494914338 11.638170874021764 0 1 0
717 0 2 0 3.550584321045034 16.38822894739803 10.523468375095892 1 0 1
322 0 1 0 8.84697019994279 8.57410888381311 3.0672590302209617 1 1 0
555 0 2 0 -2.893371077015944 19.439395217863073 0.9381598896646077 1 -1 0
63 0 2 0 6.895988292559588 2.1863397022249114 13.210338049448138 0 1 0
393 0 2 0 3.8478450622226514 0.9011197783984164 7.293446389302632 0 0 0
495 0 2 0 -1.2007693038166902 14.112310538323433 15.364780758076382 0 0 0
834 0 2 0 -1.1416101037990756 11.442658126606199 7.49753301666413 0 2 0
1138 0 1 0 -5.412843808443939 17.83130841933577 -0.28234630562379653 1 -2 0
646 0 1 0 3.7632231934009366 7.42415261041587 5.1816754395954145 0 -2 0
620 0 2 0 2.6766793409075693 9.495889730165214 7.8784638566663165 0 0 0
380 0 2 0 -5.443401710401028 11.462724797857511 13.60600468495752 1 1 0
217 0 1 0 4.00747008998273 15.995621942444055 14.71946800298554 0 -2 0
716 0 2 0 3.6065753729431664 17.569189848165816 9.512797559028789 1 0 1
1216 0 1 0 -3.722622210286889 10.200519567482058 6.262874636436348 0 1 0
158 0 2 0 -0.298812524033964 12.67987596660303 0.705809351173968 1 -1 0
919 0 1 0 -2.1546287041136183 7.01700655105945 15.460072250517918 0 0 0
296 0 2 0 1.116691245969758 6.665495840221776 11.917336752557697 1 2 0
129 0 2 0 -0.31045673550866665 2.3409202672608362 15.452652448636996 1 1 0
1214 0 2 0 10.450868494742718 7.030027944360273 10.201999425287687 -1 0 0
525 0 2 0 1.0563939855688786 3.7138220469886996 0.1526372097008878 0 0 0
249 0 2 0 6.569342890196761 10.171095101562678 9.563772481235361 0 0 0
884 0 2 0 10.855779239872609 1.483224597014817 3.7911643806957906 0 1 0
1186 0 1 0 11.655806187295719 5.911522511575938 1.5436418489481492 1 1 0
545 0 2 0 -5.330517928057073 13.705468773821352 3.590219396926484 1 0 0
234 0 2 0 -1.184566857091416 7.121751632771925 0.6724633044362622 0 0 0
1188 0 2 0 12.325512140990424 5.300290429812246 1.2397522566411832 1 1 0
2306 0 2 0 2.634682097129411 9.01651340291184 -0.6339623915099946 0 0 0
49 0 1 0 3.428132775373182 10.473047811327756 3.6942764927042724 1 0 0
206 0 2 0 -3.6769803434305746 16.81395433162779 5.38256533819748 0 -1 0
669 0 2 0 7.39251577242872 9.060168532806177 15.829625138608982 1 1 0
207 0 2 0 -2.4555094011132397 17.65389144440412 4.915717278943203 0 -1 0
1267 0 1 0 -5.240925111736014 15.624920063267984 12.01896753441082 1 1 0
478 0 1 0 10.437399686494059 7.034473500435466 5.943725687778951 -2 -2 0
830 0 2 0 4.393822547074011 -0.47014676720790405 14.311700902424706 1 0 0
773 0 2 0 5.190547515854871 13.862511893552584 2.630057658159614 -1 0 0
1281 0 2 0 1.5090378554597421 15.377185800590059 11.90779438942397 1 0 0
289 0 1 0 -3.7913570945563544 6.91851691533466 10.836685862755312 -1 -1 0
698 0 2 0 4.28734862291734 20.396565515998418 0.0630366685064323 0 0 0
267 0 2 0 8.209909797477536 3.1044989523607978 11.231413504183138 0 1 0
227 0 2 0 5.0657268136576725 6.028556470103948 14.522469856522486 -1 -1 0
805 0 1 0 -5.228736068805436 13.94265150944577 15.123539170155155 1 1 0
674 0 2 0 3.8404710421380366 14.668598457627118 0.5165507339148605 1 -1 0
384 0 2 0 5.9213827083737565 -0.5216260708671756 10.189485230950869 -1 1 0
931 0 1 0 10.932475182630174 3.071852876085327 7.120051439556748 -1 0 0
264 0 2 0 3.3047210194974967 11.288369613521464 2.167552642107883 1 -1 0
529 0 1 0 3.1349456212526614 10.705628557623065 13.122564847001144 0 1 0
1454 0 2 0 -4.056683665501187 12.941901902521018 8.85382992769014 0 -1 0
990 0 2 0 13.384909154023713 -0.23745654367482194 5.942246100671416 0 0 0
770 0 2 0 7.870081672074047 5.65143047257809 7.432390871100333 0 1 0
290 0 2 0 -4.349747258527785 7.694788115221529 11.040024800695136 -1 -1 0
444 0 2 0 -5.827416808172675 14.039319183411852 11.342686596408184 1 0 0
92 0 2 0 2.794686135676499 4.880555648001339 1.6576680723816253 1 0 0
363 0 2 0 3.197932304146241 -1.6716280645992962 9.298876931450955 1 1 0
895 0 1 0 -2.8755096150880277 8.431827450678389 4.3854012801404405 0 0 0
404 0 2 0 13.883197927318646 -0.4659428226522353 9.765440975409614 0 -1 0
694 0 1 0 6.605853152602865 16.272978545273343 5.185205905062968 0 0 0
188 0 2 0 10.629108066569675 3.898728605665052 10.061941683998635 0 0 0
771 0 2 0 8.255516806749066 6.909480159770349 8.271982858666854 0 1 0
921 0 2 0 -1.3905269070564743 6.4844450136019685 15.622037103184269 0 0 0
487 0 1 0 6.792727051130831 2.042591810569161 2.1899539061159747 1 0 0
1113 0 2 0 0.783845458430628 1.2118701483709993 8.604294548290676 0 1 0
11 0 2 0 11.586125680858135 5.524083113546307 8.535397078217784 1 0 0
863 0 2 0 6.040416285265489 9.8105642220466 -0.18719155555754818 0 -1 0
391 0 1 0 4.62867018146711 0.7394235719132718 7.812671983575488 0 0 0
1163 0 2 0 9.132436588991633 0.2040854710969615 15.566675538497048 0 1 0
136 0 1 0 1.9042486496609607 7.1421457820008 -0.5776839326776404 0 -2 0
876 0 2 0 4.941715430788636 -3.056780936362957 12.009802706402805 1 0 0
661 0 1 0 -2.9488430208018444 13.909468425569392 1.3361774932480994 1 -1 1
354 0 2 0 5.631256788078315 3.1986972199039694 9.82935693343141 1 -1 0
362 0 2 0 2.234894318241098 -2.331001895007204 8.27663612648008 1 1 0
101 0 2 0 4.090815228041639 13.65382851254208 4.320268110647718 -1 -2 0
311 0 2 0 8.775210202604166 7.788943319937763 14.54389482519377 0 0 0
262 0 1 0 3.096665706810625 11.745677653568343 1.3408940284203306 1 -1 0
1591 0 1 0 -0.30777867259694763 9.159985375582506 15.222843128530641 0 -1 0
2413 0 1 0 7.916146587012958 6.99836035955496 5.028848589012515 1 0 0
62 0 2 0 5.692962330582489 1.442214959297119 13.858455697995916 0 1 0
1295 0 2 0 10.248589535906577 2.2425191723228295 14.877771434834166 0 1 0
519 0 2 0 6.845329216341926 11.042504384081024 3.6838134286214315 0 -2 0
827 0 2 0 7.57151071141065 17.567153075015526 0.7319741505620547 0 -2 0
1107 0 2 0 4.966751811769729 11.169355873140157 9.320389858780725 0 -1 0
383 0 2 0 4.820861852386144 0.10877156618162687 9.337525826231888 -1 1 0
2198 0 2 0 13.081183647540938 1.5118604340361341 -0.5548021870053761 0 0 0
90 0 2 0 7.061780205513152 15.258650438137442 11.056249040808906 0 -1 0
372 0 2 0 6.014411340320546 10.214681885290888 5.731171742375026 0 -1 0
1255 0 1 0 8.406265167925673 4.001640630319231 6.6516216555519705 -1 0 0
231 0 2 0 -5.237121267071685 17.073038450211683 8.465545871212376 0 -1 0
785 0 2 0 3.267992166807078 13.827101611330798 11.856869780918718 0 1 0
1280 0 2 0 1.7874796268505981 15.181328111251034 10.357166270240262 1 0 0
879 0 2 0 4.12436251012664 16.520286424171378 6.949268939818006 0 -1 0
239 0 2 0 10.966200933965327 -1.923020462395959 9.619541996288792 -1 0 0
964 0 1 0 1.2819436124775656 20.708889160463826 1.0412693000196025 0 -2 0