LAMMPS data file via write_data, version 23 Jun 2022, timestep = 41424000

2592 atoms
2 atom types

0 31.157 xlo xhi
0 21.485012 ylo yhi
-0.7731508368765301 32.52931878507125 zlo zhi
-9.195174 0.7667948507860475 -11.219912446986777 xy xz yz

Masses

1 1.008
2 15.999

Atoms # full

525 0 2 0 -3.927393201940208 15.46733470684128 14.810890259296565 0 -1 0
349 0 1 0 -2.1025888696318735 11.411882186401499 13.603952262863409 2 0 0
664 0 1 0 0.19498035093821606 0.5635243690399645 7.077991585859276 1 2 0
479 0 2 0 3.660101454990936 6.260001972978807 5.539166572411714 -2 -1 0
274 0 1 0 2.5128714908051477 11.62415283284972 9.177015925937058 1 -2 0
1114 0 1 0 6.294414450594629 8.811075793247443 15.394957136308973 0 -1 0
108 0 2 0 6.686355756752838 16.0242877678835 4.82327041262226 1 -1 0
560 0 2 0 1.7971596044408176 14.4232165346915 8.596653852526547 0 0 0
1190 0 2 0 3.2002685843054604 13.629256993140139 12.463189159839388 1 1 0
278 0 2 0 1.9355287886795103 11.034687181842681 1.4042714804913548 0 -1 0
1423 0 1 0 -8.108136921829296 17.870149092685956 4.312680920495108 0 -1 0
276 0 2 0 1.741689590831085 12.217972560882203 9.082126482621758 1 -2 0
124 0 1 0 3.847866021987827 0.6069737651600162 14.443046459482607 0 0 0
916 0 1 0 15.121321315635992 -3.606358439923304 12.448806717088916 -2 0 0
1381 0 1 0 7.937639490555039 1.3669249115770465 3.6483682016311674 0 0 0
466 0 1 0 8.843100219376579 7.393356654098191 7.122237484294832 1 -1 0
383 0 2 0 -2.093328644116519 7.3557359789314765 0.6031698921581778 -1 1 0
70 0 1 0 7.908170843377219 0.8035000740234102 12.112858710849967 1 1 0
322 0 1 0 9.432429645226174 -0.9800638292624095 7.958782043689505 2 2 0
367 0 1 0 3.692606916113842 7.487360487342315 10.116332317962504 -1 1 0
105 0 2 0 6.913295352704072 6.839502375757796 0.050136885432389255 1 0 0
731 0 2 0 3.188265085718138 13.455042189327767 5.0680766653533995 -1 0 0
1173 0 2 0 -6.6951338525522335 13.067176052141466 9.369100356893366 0 0 0
730 0 1 0 3.18437325529876 12.953864094501935 5.890180472966858 -1 0 0
104 0 2 0 6.737567287965997 6.937533319873694 1.5952165213864085 1 0 0
318 0 2 0 12.360371280805715 2.5768750317519413 5.281720086603518 0 1 0
324 0 2 0 8.613778912828497 -1.4124667798093498 8.120195555355657 2 2 0
498 0 2 0 8.500036036537026 14.940442762348448 2.0029479051547847 1 -1 0
1035 0 2 0 12.025685934828678 3.9784254009095457 9.552491265278638 0 1 0
947 0 2 0 2.0410863194047817 3.351917310990657 5.265730503199407 1 0 0
831 0 2 0 -3.784566103056611 7.449039138577999 4.2230699023702565 2 -1 0
30 0 2 0 3.34912109275344 9.033209456032818 2.5349604210875873 0 0 0
1243 0 1 0 0.0960108486617946 -0.8522536721588585 14.573602968311777 1 1 0
236 0 2 0 4.159906384158794 -2.650511858364546 10.447272563281032 1 0 0
926 0 2 0 2.8358711197444686 2.568005244839292 7.481439544410641 0 1 0
795 0 2 0 11.674099084054006 7.272408245006151 -0.5109097435179379 -1 0 0
651 0 2 0 6.931303285754816 15.700383271766043 14.102973176687156 0 2 0
634 0 1 0 -0.6427757481295815 16.546467235338042 13.668135625496223 0 -1 0
78 0 2 0 8.61266779899281 12.458771150304026 5.484457313013959 -3 1 0
450 0 2 0 7.074012015602239 4.582690976306007 15.117990359136334 0 0 0
887 0 2 0 10.83261635471766 0.9258443022699585 9.901678737911219 0 1 0
882 0 2 0 3.3310459294247567 19.28263894660861 1.5986617121395836 1 1 0
382 0 1 0 -1.3488971690444216 6.764691284593259 0.8997563614486754 -1 1 0
420 0 2 0 9.656053167645926 0.8968918122329599 3.2827861219476366 2 1 0
261 0 2 0 0.840855694758023 10.096549707822543 11.364325859285572 -1 1 0
115 0 1 0 -3.1725820154386977 11.371856835092641 4.650211821464105 1 -1 0
571 0 1 0 0.07563987034024056 18.89279705852442 4.332370922158536 -1 1 0
462 0 2 0 1.4769719793919633 -1.7736553090108336 15.130069059318023 0 0 0
1033 0 1 0 12.51646587615093 3.470185451437784 10.27832636819062 0 1 0
264 0 2 0 -1.4854358480734526 12.248450684231718 1.3816503971713496 1 -1 0
609 0 2 0 7.467517941371145 7.4937558266609 3.7252260100700694 0 0 0
705 0 2 0 10.05552196783519 1.7283459602838835 11.995632679190411 0 3 0
561 0 2 0 2.6055688642908588 13.950218691947196 7.304996375924581 0 0 0
348 0 2 0 12.593063684759027 0.5903019366347904 8.119033294491583 2 2 0
1578 0 2 0 0.05278928652196725 -0.23270879434113811 3.9746858015614466 0 1 0
148 0 1 0 14.588185851119865 0.9196422527240031 0.3320782467048644 1 0 0
703 0 1 0 10.242461391653533 2.193087776630928 11.17450740297582 0 3 0
1288 0 1 0 9.726509574758374 11.437203110372618 0.8275768763393592 0 0 0
808 0 1 0 3.221840404591189 9.360397994994814 4.929987957198077 1 0 0
301 0 1 0 6.094322105309686 3.7763180606482 9.050026420573193 1 -1 0
591 0 2 0 -0.10970860596841996 5.066282073906439 3.5779440111550187 1 0 0
1557 0 2 0 -2.6222662214345336 8.232574305029445 15.310616333187086 0 0 0
908 0 2 0 7.305299813976615 -0.4244537072359422 3.8329709021815077 2 1 0
1092 0 2 0 5.294662239191893 11.672661640488794 14.06245492258713 0 1 0
263 0 2 0 -0.21096314191597157 12.333697112495882 0.5471951892959059 1 -1 0
810 0 2 0 2.9343987396813946 8.428186062105603 4.822979905031129 1 0 0
764 0 2 0 3.486313855356518 14.150242385274995 2.4514347351982613 0 -1 0
716 0 2 0 4.098193655486297 -0.030511873165632197 4.368556326878675 2 0 1
506 0 2 0 6.187537974141331 14.168015109243052 15.301862586096034 0 -1 0
762 0 2 0 0.05637358861545394 -1.4544557787634182 9.348148020020494 0 1 0
1115 0 2 0 7.200415305277065 8.534747427912329 15.234619155290977 0 -1 0
436 0 1 0 8.762104962289017 1.7179758809166676 15.75296658353862 1 2 0
136 0 1 0 1.1122282552222535 7.020960505349328 -0.6109962963710732 0 -2 0
45 0 2 0 9.722772310005753 5.9436953634330525 0.5604295304047682 -1 -1 0
186 0 2 0 5.715445067945069 3.203508258003303 5.127960117923811 2 0 0
529 0 1 0 1.673099024334257 -0.751437764789467 1.5205970085511344 0 1 0
384 0 2 0 -1.744785255820212 5.887639799447204 0.9633941420367154 -1 1 0
177 0 2 0 -2.322371723861221 14.207958296134304 6.153992238124115 -1 -1 0
455 0 2 0 7.53272727487142 -3.394630818028809 10.693731502164386 2 -2 0
749 0 2 0 1.5862068255226376 15.936085330828869 4.688787030214498 -1 -2 0
284 0 2 0 0.4775905981288018 13.213093523735626 2.49641917736308 0 -1 0
1281 0 2 0 9.20372931266414 9.409415676720648 11.723510888992497 1 1 0
1210 0 1 0 0.4047615149357808 3.336468211203529 2.4168561959318375 1 0 0
83 0 2 0 -2.2674961583852187 8.798315037386153 9.19681546959404 -1 -1 0
766 0 1 0 6.815894433254022 -0.5717758662895465 10.285743583765948 2 1 0
36 0 2 0 5.969950868209183 14.384683253186624 6.346687765681323 0 0 0
948 0 2 0 3.5303345915327826 3.147173269146507 5.34964730802636 1 0 0
117 0 2 0 -3.1269240407980723 12.295075828543387 4.966594464085761 1 -1 0
126 0 2 0 4.027620790137929 -0.008097745675621937 15.136774442498558 0 0 0
857 0 2 0 1.5261381817264046 0.5001014327646383 11.814653643706025 1 1 0
381 0 2 0 3.543720090676344 11.239805108406845 15.715401596743886 1 1 0
625 0 1 0 0.7730970979472767 15.354175549022102 0.43449723578164545 0 1 1
2413 0 1 0 7.40672932797799 3.462425385949338 -0.5935155238833484 1 0 0
34 0 1 0 5.58860907941222 13.575480007481314 6.722793575140378 0 0 0
605 0 2 0 7.481971855408566 13.544720575038152 9.647014755944731 -1 0 0
1004 0 2 0 5.186185870473109 5.060152521738667 0.9610001012049778 0 0 0
423 0 2 0 5.060728091969336 16.846933433334648 11.146200562202093 0 0 0
268 0 1 0 -0.41182393302914044 3.8721988941505288 11.397233918491 -1 -1 0
1125 0 2 0 -3.375593697092545 17.438434531980416 5.348625134919316 0 -1 0
232 0 1 0 -7.931881756340461 15.914919759689898 13.537083999290056 0 -1 0
283 0 1 0 0.6186242582121096 13.038365707966856 3.43666938389953 0 -1 0
1180 0 1 0 5.492168129266798 4.1006227293766315 12.188217178271508 -1 0 0
639 0 2 0 13.481956653502085 1.5383487896095691 3.1910116832609683 1 1 0
98 0 2 0 10.597489256463085 -0.3209592326546016 13.526890686789118 -1 -1 0
88 0 1 0 6.503639975806887 4.927158722195254 5.306080275780802 0 -2 0
368 0 2 0 3.6510157979777236 8.16682640148761 9.387784878609432 -1 1 0
467 0 2 0 9.278393098733886 8.130586471242001 7.563099864183107 1 -1 0
293 0 2 0 1.0103024345844247 14.202473741594536 11.813045525410667 0 1 0
1008 0 2 0 -4.675020581810337 19.003784505165715 1.937259957489235 2 1 0
129 0 2 0 -4.700002197371988 12.342513749503956 14.79068445393286 1 1 0
1161 0 2 0 -6.234386240628831 17.890291452581174 1.760357399773091 1 1 0
1198 0 1 0 11.25778573504529 -3.33639892375576 14.080535482240817 -1 2 0
911 0 2 0 -5.093564795040525 10.692775280456356 12.64772023727194 1 -2 0
392 0 2 0 1.8406910297032353 5.987227388899925 5.013123082848677 1 0 0
474 0 2 0 0.7651383088256791 11.837596449730736 15.39299530737611 -1 -1 0
157 0 1 0 5.697520449861312 18.03062719464342 1.3124504817191749 1 -1 0
2197 0 1 0 0.3685424486490865 5.798949172115279 8.861440803107023 0 0 0
496 0 1 0 7.887173480644364 14.81485180826037 2.7078493506361303 1 -1 0
82 0 1 0 -1.4606804271853848 8.94261059082633 8.66388774843292 -1 -1 0
1105 0 1 0 8.032116278283025 12.269826005583374 12.509636383482304 -1 -2 0
722 0 2 0 -0.31313488865694095 4.62514020796916 7.373099396634521 -1 -1 0
1227 0 2 0 7.591270929564269 6.715104039660581 13.609412576852064 0 2 0
46 0 1 0 -0.3477203566667446 8.802182692796478 11.338620141021963 0 0 0
1014 0 2 0 3.665200590593076 17.806869857089392 4.700412109601346 0 0 0
277 0 1 0 1.6433864428857063 11.534216716988281 0.6128472706062267 0 -1 0
607 0 1 0 7.264840843764132 6.651218094842225 3.3219797797346793 0 0 0
721 0 1 0 -1.0344268649807458 4.337029874537467 6.815549008283662 -1 -1 0
351 0 2 0 -2.6918167673225284 11.68448450976866 14.333776399011406 2 0 0
127 0 1 0 -4.045059661838538 11.960197981414206 15.385906133041862 1 1 0
1258 0 1 0 2.307422803777628 17.034508203017467 9.740294558849472 0 -2 0
2329 0 1 0 -2.494712522564178 14.221309711586933 -0.7380955608994473 0 0 0
636 0 2 0 -0.07417569426612097 16.33209929165073 12.957888034597676 0 -1 0
54 0 2 0 -1.6949040889092473 4.138357600570467 3.996485631782792 0 0 0
424 0 1 0 5.793625162962959 14.022488371316356 -0.3316210823382534 0 0 0
1123 0 1 0 -3.390150748334521 18.223073199509933 5.923527850894603 0 -1 0
1142 0 2 0 5.182322900577267 9.207836931354908 12.578092325409546 1 0 0
627 0 2 0 1.0491677168477478 16.255605615428355 0.1673393341741316 0 1 0
68 0 2 0 6.0922792104627055 2.8633498221990683 13.347521335260117 0 0 0
100 0 1 0 3.793857435186768 2.482724337233561 10.698537339074818 0 -1 0
665 0 2 0 0.27842992955399326 1.0063461827157574 6.189673559296217 1 2 0
1424 0 2 0 -7.398189322608884 17.72053402202102 3.6598439795605815 0 -1 0
447 0 2 0 2.3798546425570235 -0.9429582836501014 7.410755671238446 0 1 0
2199 0 2 0 0.649713241921863 6.47873497119654 8.17114943052699 0 0 0
1224 0 2 0 2.327058088748692 17.680552762471088 3.1403146579877568 1 -1 0
311 0 2 0 9.435148190754806 7.965456678796204 14.306046354859708 0 0 0
817 0 1 0 5.662615879856932 10.096753012198226 1.708806274488174 -1 -1 0
20 0 2 0 -4.416971156814353 11.261552670107946 10.315332800016444 0 0 0
1447 0 1 0 -0.4912265178300355 0.7780041186592936 0.6957966218867897 3 0 0
43 0 1 0 9.88803039938046 5.0895364536431105 1.024339990366266 -1 -1 0
858 0 2 0 0.13995840948762145 -0.1645649744317832 11.321866714577533 1 1 0
444 0 2 0 5.9615831641977195 10.54122552731453 9.818329469287997 1 -1 0
1010 0 2 0 -7.278731855897629 13.052142598458467 13.525031711097839 1 0 0
1188 0 2 0 10.2311156651602 4.557206604748803 8.242818844380045 1 2 0
2187 0 2 0 -0.7571966726783761 5.255564630548528 13.92849811623033 1 1 0
1235 0 2 0 -6.294375916470017 15.384768334461466 12.448457407547899 1 1 0
570 0 2 0 -1.3955835580961167 18.087591689343906 8.365817212086162 1 0 0
920 0 2 0 -2.495590196762024 5.861534830753973 15.754893389722282 0 0 0
493 0 1 0 -6.032914789475444 13.492119987541203 14.876448210681932 0 -1 0
107 0 2 0 7.115759489381933 16.79113047210647 6.104782078745733 1 -1 0
1555 0 1 0 -1.9264294010751206 8.906124006325916 15.299929088489277 0 0 0
344 0 2 0 2.3110794409368003 6.9542139709296 11.134253342801768 1 0 0
1295 0 2 0 -6.100356743911627 14.723531220477302 6.4844146846476045 0 0 0
425 0 2 0 6.236961251152673 13.329590603620494 0.22937910674512296 0 0 0
1034 0 2 0 11.729236552382853 3.0009931828949554 10.520637373052452 0 1 0
1056 0 2 0 -2.4163805547870383 6.259493988583378 9.705047790082787 2 0 0
979 0 1 0 3.736263235859886 5.4125248952241005 8.71280281311296 -1 0 0
454 0 1 0 8.187697481751936 -2.9684850928627013 10.090375269196526 2 -2 0
185 0 2 0 4.938063218043162 1.9321597618364001 5.2252537217336705 2 0 0
303 0 2 0 5.169259985037944 4.036505595883879 9.072857598979478 1 -1 0
1172 0 2 0 -5.900131792172356 13.736829714791948 10.473172936771066 0 0 0
317 0 2 0 11.552689955288525 3.419742755342651 6.3057035679497675 0 1 0
589 0 1 0 -0.2974666647466113 5.448645193738708 4.425636447617568 1 0 0
99 0 2 0 10.529909487093812 -0.9726556230005321 12.123745952169292 -1 -1 0
235 0 1 0 3.9969460483827293 -1.6932833787380126 10.540719278125964 1 0 0
164 0 2 0 1.4477615387811278 2.257733359219075 15.43567294167138 0 0 0
884 0 2 0 4.952666275580365 12.711389003520392 3.5750956030169894 0 0 0
780 0 2 0 0.7727920745250909 8.906890044855626 2.390786704350497 1 -3 0
1181 0 2 0 4.914220882957779 3.5654684914536228 11.59757251528711 -1 0 0
19 0 1 0 -4.269263025318027 10.84405288246605 9.438210926582316 0 0 0
1628 0 2 0 -4.281392680103866 7.740129262182509 9.852759686925035 2 0 0
672 0 2 0 5.602338617205697 14.0679351532476 8.74547358373294 0 -2 0
353 0 2 0 7.926016216281756 9.743647497398689 4.822634543190528 1 -1 0
846 0 2 0 7.112903869142622 8.162142800261272 7.145312091072537 0 2 0
1215 0 2 0 10.726982244325184 -3.1896346345438076 12.245384210245772 0 1 0
497 0 2 0 8.373643067311512 15.181741638003542 3.5085709084962815 1 -1 0
620 0 2 0 8.8064901106893 -1.8268522967610785 15.690071047380085 0 0 0
103 0 1 0 6.315827898617214 7.1906260282110175 0.7495844867330197 1 0 0
598 0 1 0 2.0765912375583326 3.3126318279340445 12.611716686972233 -1 -1 0
1191 0 2 0 4.471770702091385 14.367285262319799 11.943282861711811 1 1 0
1148 0 2 0 -2.403907188072978 7.006972995637973 13.06587312290001 1 0 0
2366 0 2 0 -4.205280113924459 8.377086247908942 13.590092424718001 1 0 0
1292 0 2 0 6.39138730693687 0.06645402693494984 -0.0721636280599004 0 2 0
352 0 1 0 8.315085499650431 9.162391432744167 4.138195458559676 1 -1 0
135 0 2 0 0.5884970971557067 7.867305042018497 6.317996340665417 1 1 0
80 0 2 0 -2.8216668548338295 14.829393879483186 9.345564173508667 -1 0 0
1072 0 1 0 -1.8457010928605437 2.6134126919997938 13.612329201440245 0 -1 0
176 0 2 0 -3.8189577615651364 14.041420770435433 6.064750635458164 -1 -1 0
890 0 2 0 12.596127988264707 -1.3912639126721094 5.110823333479115 1 2 0
925 0 1 0 2.7722372586500983 2.203163746839499 8.385369818604344 0 1 0
323 0 2 0 9.937879981845736 -1.67002836564161 7.5469427607139075 2 2 0
901 0 1 0 4.4156822168303345 16.36495913746804 7.488734476149151 0 -1 0
704 0 2 0 9.477698093240125 2.747972006957381 10.95291027067144 0 3 0
89 0 2 0 7.191048935847993 4.887288399899234 6.01145254480074 0 -2 0
470 0 2 0 -4.131843737079523 13.120566639055436 9.178313117855392 1 0 0
2496 0 2 0 5.607179751507765 20.681475970202346 -0.6569284337678675 0 0 1
523 0 1 0 -4.697145725444951 16.06579199873467 14.901374143790646 0 -1 0
965 0 2 0 -2.670999814514135 5.387879300680824 7.185582313369249 1 -1 0
422 0 2 0 3.8535826446001935 16.32132300966689 10.242579342036834 0 0 0
1664 0 2 0 6.638520157993237 -0.8495970159184933 15.350488577866708 0 0 0
785 0 2 0 7.917398110646097 0.7249272229350066 7.998050933602002 0 1 0
84 0 2 0 -1.3415967185645288 8.132139231154593 8.146478476672986 -1 -1 0
437 0 2 0 8.746942688298416 2.452782106512444 15.122593013553438 1 2 0
768 0 2 0 7.174070276495647 -0.03675509253614084 11.116177614642721 2 1 0
202 0 1 0 4.562705443809724 6.578610863091773 15.308342372745736 1 2 0
150 0 2 0 13.974530614041122 1.071005787510852 1.0525157365308788 1 0 0
906 0 2 0 -1.8807577564803264 15.427348688603722 14.072136769332547 1 0 0
980 0 2 0 2.8302848779738805 5.090852873471826 8.747117421644576 0 0 0
573 0 2 0 9.577991770600704 -1.9268447020609876 4.955130056618353 -1 2 0
1712 0 2 0 -1.7088320935681724 10.12613482101696 2.0738637710628076 -1 -1 0
642 0 2 0 0.03227664732636437 2.856154643860739 9.863829331340229 1 0 0
1182 0 2 0 4.880714578367969 4.82383691398508 12.431928737580396 -1 0 0
24 0 2 0 -3.870680533366446 16.537454879167967 10.098364596848626 0 -1 0
133 0 1 0 1.1227901639508955 7.504930971001082 7.0657927636632065 1 1 0
345 0 2 0 0.938939359826483 7.256123698901519 11.816203965270294 1 0 0
881 0 2 0 3.5598428979306247 20.292598216511323 0.49156410798116545 1 1 0
166 0 1 0 -5.445847062687314 17.902567739699446 7.6568250112226774 0 0 0
393 0 2 0 2.1640024040963786 6.530975335848134 3.56704685710055 1 0 0
312 0 2 0 8.789294759008968 7.22426274002117 15.45346126625675 0 0 0
688 0 1 0 13.262535048943723 -1.1759688787883813 10.258426868367064 1 1 0
903 0 2 0 5.162102967283496 16.081291296799005 6.900403738788867 0 -1 0
868 0 1 0 1.060338182603993 1.2969015688941967 4.2272544357505435 2 1 0
776 0 2 0 3.1450620608941895 8.720439028723984 13.317874932521494 0 1 0
637 0 1 0 12.96491181219034 1.4474405647567448 2.401870848164001 1 1 0
763 0 1 0 3.7615220757061136 14.111001543545182 3.4166551195862196 0 -1 0
206 0 2 0 3.5860875846076636 9.390836444180666 6.962371524784701 0 0 0
732 0 2 0 2.5382457286671185 12.220901314156084 5.766199408176603 0 0 0
2414 0 2 0 7.390082886033167 2.476942990348287 -0.6556711573358194 1 0 0
720 0 2 0 -3.7920545950269315 12.844872275377817 11.982665009590184 1 0 0
419 0 2 0 10.796343814710404 0.14944611795568918 4.032114019680544 2 1 0
2401 0 1 0 14.861087583799852 -3.0518441456355805 9.08834235934309 0 0 0
1146 0 2 0 7.360669093617254 8.698102278515423 10.762578231396882 -1 -1 0
938 0 2 0 -8.34161150440501 18.48243630421011 7.177194388205736 1 -1 0
260 0 2 0 2.043460111559121 10.341138428980614 12.306775747330587 0 1 0
480 0 2 0 4.164460033830096 6.081084770817462 7.0276973917201815 -2 -1 0
748 0 1 0 0.7426333321242948 15.47271865322021 4.6261825299882116 -1 -2 0
767 0 2 0 5.967643428714191 -0.9258356477708078 10.514573733627605 2 1 0
902 0 2 0 3.9123565769141906 15.561599965034846 7.777137876701808 0 -1 0
159 0 2 0 5.8138269883688976 17.452139569965727 0.4905739898628565 1 0 0
2186 0 2 0 -0.9798370438363159 5.523583892890031 12.426693529208674 1 1 1
125 0 2 0 2.8856710117752575 0.9392574801836187 14.571044348121434 0 0 0
1144 0 1 0 8.06169535230882 8.354226926843218 11.286853525467547 -1 -1 0
1168 0 1 0 2.2991875151569947 5.726196267324437 1.8277620444932512 1 1 0
1265 0 2 0 -6.574376103400637 16.55562952294545 0.06614156235121571 0 -2 0
310 0 1 0 8.569139148202659 7.638099082926057 14.658760902196128 0 0 0
679 0 1 0 0.3180021987998141 20.835073264581347 1.0733766378652996 -1 0 0
870 0 2 0 1.9974085618533104 1.045048102276041 4.2121973181616825 2 1 0
460 0 1 0 2.244482509016073 -2.2392588733564165 15.524276389933155 0 0 0
1569 0 2 0 2.656301476226554 14.997208650359674 15.136327486744044 0 1 0
93 0 2 0 -2.8206525995805274 13.995929225770213 3.5183412786620503 0 -1 0
81 0 2 0 -2.8025735781626353 14.749560851709658 10.790581205400297 -1 0 0
1153 0 1 0 1.4406200110145233 13.692455896052284 15.243462162525129 0 0 0
779 0 2 0 -0.50406206257176 8.24034966797507 1.7341604397901818 1 -3 0
638 0 2 0 12.105117959760538 1.0719636153818164 2.65270727225904 1 1 0
1090 0 1 0 5.782156677306486 10.981119743164946 13.621856086782897 0 1 0
97 0 1 0 10.022857400497706 -0.4360606510096634 12.749236950285967 -1 -1 0
734 0 2 0 -0.2716635470251092 13.800445236386375 8.224322014333456 -1 -1 0
347 0 2 0 13.602180801297406 1.7040119422364821 8.103809927874563 2 3 0
1211 0 2 0 0.13747227077454585 3.088784473320276 1.532879609269092 1 0 0
1041 0 2 0 5.503484119669186 16.80321499746926 2.545495944682293 -1 -1 0
1382 0 2 0 7.909807763048756 2.1696654504430937 3.121862928801629 0 0 0
22 0 1 0 -4.779775993920499 16.96057404790749 10.139148257553511 0 -1 0
1270 0 1 0 10.042058933536342 6.412712528387509 10.51232747177961 1 2 0
630 0 2 0 5.011197662245969 11.999913448060498 11.385311811844769 0 0 0
825 0 2 0 -0.07211862386074458 8.553291073901306 15.428755758965197 1 1 0
1629 0 2 0 -4.043326493154673 9.217089413298718 10.159666383707915 2 0 0
784 0 1 0 6.949606367533125 0.73069747517544 8.04929053685293 0 1 0
1091 0 2 0 6.604408527319729 11.437976883184106 13.263716402673476 0 1 0
1290 0 2 0 8.839487118340315 11.861015577770814 0.9565300154372778 0 0 0
2185 0 1 0 -1.0377993529648681 5.959223215616265 13.327035827399637 1 1 0
547 0 1 0 3.5079615175525056 5.51274887994738 13.180905788401594 0 -1 0
469 0 1 0 -3.3193204219501244 13.325157539619946 8.622117320585229 1 0 0
468 0 2 0 9.466361459698073 6.977882208472896 6.5322143688694805 1 -1 0
1264 0 1 0 -6.419309644515629 17.50158826608398 0.0074209981728724506 0 -2 0
1291 0 1 0 6.782702618687182 0.7070657454640973 0.4819366604206108 0 2 0
2475 0 2 0 -0.09865817917656952 15.10828454998999 6.10840820850868 -1 -1 0
106 0 1 0 6.955639688901764 15.877383720343452 5.76583571295836 1 -1 0
761 0 2 0 1.5713827502853877 -1.2348312574150762 9.453590892863007 0 1 0
750 0 2 0 0.1764708709617885 15.962869745597489 3.991148638624801 -1 -2 0
1568 0 2 0 4.044355375949948 15.651722218103064 15.042075681324652 0 1 0
438 0 2 0 9.615738983409335 1.3038803151350384 15.614891430023816 1 2 0
1036 0 1 0 -7.281639427070789 15.423406194786224 5.296264200791252 1 -1 0
681 0 2 0 9.988167669683735 -0.27351176784555065 1.8297343929456238 -1 1 0
1189 0 1 0 4.181770868525149 13.66257442634128 12.515721343360067 1 1 0
1259 0 2 0 2.358068599523304 17.19604163164771 8.785832611431914 0 -2 0
281 0 2 0 0.8738931798832122 11.560492683124487 4.501924643755601 0 0 0
1137 0 2 0 11.108417430651127 4.355756294662616 4.119800090494528 1 1 0
572 0 2 0 -0.776424826389572 19.229695945546876 4.056114426473824 -1 1 0
910 0 1 0 -5.073349324380203 11.369338093140065 11.953171383322088 1 -2 0
1663 0 1 0 7.4613790478219 -0.9672071902269046 14.756876345829989 0 0 0
471 0 2 0 -3.232096230884834 12.447394010457804 8.214633222990871 1 0 0
1063 0 1 0 4.856506007576811 2.0749128404789126 1.971444799005289 0 1 0
1060 0 1 0 0.37164496223523885 15.672718384920568 11.123766784354814 1 3 0
1040 0 2 0 6.388096774988764 15.640987922746815 2.928678011873261 -1 -1 0
495 0 2 0 -5.781290118282881 14.424117392839802 14.934836245167798 0 0 0
1075 0 1 0 5.2397816366078445 0.1963347772135675 6.0309817460624515 1 0 0
802 0 1 0 3.2027372383089263 13.705276258204956 0.7506537734663654 0 -1 0
1219 0 1 0 -0.7761105698681758 8.07484972546921 4.890556958132792 0 -1 0
443 0 2 0 6.258152620369574 9.325395674882746 8.947138363180555 1 -1 0
374 0 2 0 7.21545087669242 12.779594935149758 2.067970638723009 -2 -1 0
702 0 2 0 12.734356466641476 3.4947152696229384 1.5935531539588976 -1 0 0
1234 0 1 0 -5.907088988544119 15.1008085669053 11.590987887446037 1 1 0
316 0 1 0 11.493282279487408 2.997911840987233 5.453506399752039 0 1 0
2221 0 1 0 8.728815691862781 6.780189098713015 -0.6745879865858001 0 0 0
1627 0 1 0 -3.660077553979921 8.348242726347875 10.304626878771884 2 0 0
2367 0 2 0 -5.031200337610384 9.094470937854107 14.735260261427504 1 0 0
800 0 2 0 3.4316781220602124 7.329912136347064 -0.7201139916784821 1 0 0
485 0 2 0 4.982389407628458 -2.859683322180744 13.13495084715781 0 0 0
710 0 2 0 13.91027564022596 -2.460154185205253 13.025769162447876 1 1 0
1177 0 1 0 8.368928726956998 4.14617792358109 13.887460354949946 1 0 0
604 0 1 0 8.150405513840617 12.804747068711938 9.664513876978047 -1 0 0
28 0 1 0 2.6611277196345156 9.141412025737543 1.8560264330344185 0 0 0
231 0 2 0 7.084507500754709 -3.5684542282687133 13.185539262880718 0 1 0
917 0 2 0 15.705773242755795 -4.275969534106597 12.895724606934763 -2 0 0
1107 0 2 0 8.121965634538618 12.71965246683338 11.632192602057195 -1 -2 0
269 0 2 0 0.4870732972609146 3.971898271986422 11.840570902065743 -1 -1 0
1124 0 2 0 -3.1470277646102613 19.025296318828566 5.405209246939382 0 -1 0
1054 0 1 0 -2.4382478200209263 5.392186862633442 10.032374957584416 2 0 0
142 0 1 0 -0.940303506288151 11.089931970977807 7.20930921076632 -2 -1 0
1007 0 2 0 -4.234059080330712 20.137569825487144 1.0659109479989346 2 1 0
1199 0 2 0 10.877438837575093 -2.954292713238684 14.893854529780606 -1 2 0
1593 0 2 0 10.698576360108188 5.975349576845943 12.25193167552746 0 -1 0
829 0 1 0 -3.401395585470658 7.789624802380868 4.992424960627804 2 -1 0
590 0 2 0 -0.439803680517177 6.410291142827967 4.443320176016471 1 0 0
484 0 1 0 4.010197302444686 -3.200099294533673 13.302006829554902 0 0 0
2402 0 2 0 5.2654128922588646 17.801659642009717 8.479649219618434 0 -1 1
735 0 2 0 -0.29356052615890443 12.91021023369216 9.581508459021777 -1 0 0
2415 0 2 0 7.330379889786315 3.835942801301923 0.2943487068265491 1 0 1
270 0 2 0 -0.7746465508337299 3.1845380995044534 12.051247001131246 -1 -1 0
769 0 1 0 1.431595173772863 18.013256143405393 7.2090445665992595 0 0 0
207 0 2 0 2.8719466637243234 10.187879233578562 8.072410485668998 0 0 0
669 0 2 0 3.182974439068243 9.060414978875489 15.62780544006504 1 1 0
21 0 2 0 -4.888349482088602 11.199684386810784 8.785645648891787 0 0 0
530 0 2 0 2.217455601224652 -0.6526836904449381 2.304807788079425 0 1 0
2474 0 2 0 -0.9821822382316943 15.699417104899998 7.21919490656301 -1 0 1
904 0 1 0 -2.4879557142491184 14.784203465386927 14.385988909949429 1 0 0
912 0 2 0 -5.927857120781819 11.194995461734674 11.55433033612499 1 -2 0
671 0 2 0 5.8452163714344785 15.180678296586128 9.81948071789358 0 -2 0
733 0 1 0 0.2440887035863957 13.194292348228336 8.82365683066946 -1 0 0
1064 0 2 0 5.286177325537054 2.3040691639456963 2.773713644632669 0 1 0
569 0 2 0 -1.9783349005020117 18.011037591882832 6.919137357153273 1 0 0
803 0 2 0 2.7904874729485867 12.855234281691171 0.6438614366372917 0 0 0
71 0 2 0 7.233271460818247 1.0471153526585137 12.746444538222223 1 1 0
548 0 2 0 3.674516048403823 5.98673579624553 13.985564935077266 0 -1 0
919 0 1 0 -3.233072928893704 6.469048186034623 15.61102523327102 0 0 0
709 0 1 0 13.320377581282452 -1.7080387305375266 13.087094942234785 1 1 0
715 0 1 0 3.5156269926507004 0.1960097411750754 3.607440685717509 2 0 1
1271 0 2 0 9.288898576050448 7.088481916342097 10.458952555095374 1 2 0
1136 0 2 0 10.455704508741144 5.693754042876894 4.14315005561694 1 1 0
486 0 2 0 3.5516644640688475 -2.8670925332273374 14.124171150807337 0 0 0
288 0 2 0 -3.939111452706501 14.092766306587786 0.04006012374669321 1 -1 0
230 0 2 0 6.931908375001488 -2.0989797901238645 13.102724628012922 0 1 0
889 0 1 0 11.792943440981043 -1.0067404610110608 5.514663931355525 1 2 0
707 0 2 0 8.564337534105567 14.237437037459015 -0.6390067322531632 0 2 0
178 0 1 0 3.117153443103353 0.10496712410523568 12.074381005539358 0 1 0
757 0 1 0 11.691703523439552 0.36611199855539933 15.035843428839737 0 0 0
845 0 2 0 5.591800603291455 7.994702376280824 6.702620087265375 0 2 0
698 0 2 0 12.382538889677386 2.999924674722298 -0.7553757252926072 0 1 0
1039 0 1 0 5.61177948174643 16.10239744358303 3.1717077319390294 -1 -1 0
1076 0 2 0 4.587801336161899 -0.01029501084235207 6.669422874983439 1 0 0
1122 0 2 0 -0.7826680548010522 19.367081254997473 0.7822252511640826 0 1 0
789 0 2 0 10.608844243713861 8.910353932201645 2.8150709455460707 0 1 0
880 0 1 0 3.98993025798895 19.86605248091532 1.2226456902472365 1 1 0
1143 0 2 0 5.680964306147391 7.716610806975801 12.516241059515067 1 0 0
194 0 2 0 -0.7315746646121863 -1.546068604229006 13.429065288108651 2 0 0
640 0 1 0 0.3974187070155919 2.006229935424374 9.45786694513318 1 0 0
1117 0 1 0 -1.5952313792978856 11.661507397607826 10.501939745247375 0 -1 0
856 0 1 0 0.5076235058036761 0.6025644504020757 11.75149766668696 1 1 0
153 0 2 0 14.133253653813044 0.7856221453727352 5.819348747787444 0 1 0
1061 0 2 0 -0.5073274675137514 15.618789879040442 10.725481917531045 0 3 0
891 0 2 0 12.194962475944482 -0.2670576919052656 5.955253887864696 1 2 0
29 0 2 0 2.9477511344776146 8.548759064492662 1.0975400047049646 0 0 0
1213 0 1 0 10.71249392156178 -2.567350891591566 11.490521228993877 0 1 0
786 0 2 0 6.800197690086858 0.41806019941356354 8.964690856148732 0 1 0
1170 0 2 0 2.9605644659804153 5.315396845170971 1.2461862925220908 1 1 0
282 0 2 0 0.5100134274343092 10.803347868707013 5.893732489993994 0 0 0
375 0 2 0 6.913120898416186 11.398186083753206 1.4277678479569862 -2 -1 0
371 0 2 0 1.3127183759420737 -2.836662180165715 11.042291508163315 0 -2 0
165 0 2 0 1.4343460176110825 2.3551642808975837 13.885400160620971 0 0 0
205 0 1 0 3.2446520219195967 9.323652075821359 7.890601988898121 0 0 0
1226 0 2 0 6.768369873716263 5.640655810482177 12.935974803158828 0 2 0
1179 0 2 0 9.231505327064452 4.663958803016902 13.976417482456833 1 0 0
262 0 1 0 -0.9025046159256473 12.870838294312911 0.8878004345555148 1 -1 0
1294 0 1 0 -5.523758473543715 14.218150925121122 7.006402324379144 0 0 0
823 0 1 0 0.573441687882422 7.917996271825471 15.077386714608842 1 1 0
91 0 1 0 -3.1741225010663356 14.56715861874248 2.8334442770239523 0 -1 0
626 0 2 0 1.6333546828286796 14.937456671129928 0.5109148052030674 0 1 0
632 0 2 0 6.732106968693217 11.94299386166246 6.625991783830998 -1 0 0
531 0 2 0 0.9378382107287204 -0.1559541058271775 1.5186757626780634 0 1 0
180 0 2 0 3.6390423563871153 0.28354803360088354 12.859927296902038 0 1 0
706 0 1 0 8.926903952847235 14.810464331246944 0.04872310365157517 0 2 0
907 0 1 0 6.9233926162171935 -1.3191099211980541 3.6485567822782823 2 1 0
372 0 2 0 2.5032555054269183 -3.3840021125652355 11.868933958908913 0 -2 0
2162 0 2 0 4.8806434352509624 3.0882762231216057 -0.670802092112557 0 0 0
771 0 2 0 2.0510952071439634 17.99703690381783 6.49091072564972 0 0 0
575 0 2 0 9.868632911651076 2.172019135939612 5.77722138947665 0 -2 0
343 0 1 0 1.585067111784688 6.531636731978133 11.67709590663574 1 0 0
1145 0 2 0 7.758565978365803 7.596333115113855 11.871668696700505 -1 -1 0
1073 0 2 0 -2.4266951880097727 3.3766843799327546 13.707290023453933 0 -1 0
279 0 2 0 1.6656717975991637 10.935505190023916 -0.1753172135848582 0 -2 0