LAMMPS data file via write_data, version 23 Jun 2022, timestep = 62331000

2592 atoms
2 atom types

0 31.157 xlo xhi
0 21.485012 ylo yhi
-0.872133181263381 32.62830115641043 zlo zhi
-9.195174 0.7713530203658694 -11.286608595970819 xy xz yz

Masses

1 1.008
2 15.999

Atoms # full

904 0 1 0 3.602613613526863 12.783644403528541 1.0960510700487258 1 0 0
41 0 2 0 6.195929964762142 10.194697216519462 12.182417600061507 -1 1 0
325 0 1 0 7.274515721359583 -1.360343211091017 15.565790694184797 -1 0 0
281 0 2 0 4.3955286035203125 19.587185438745266 0.7301064483170647 0 0 0
48 0 2 0 2.9912282167717716 14.871253820056719 7.18494484016882 0 0 0
776 0 2 0 -3.5233308495870186 8.438875685336638 11.135941105484116 1 1 0
700 0 1 0 13.537624798834024 3.299638113173364 2.9221183886926525 -1 0 0
542 0 2 0 11.259481572877071 5.313065439502865 13.754052746498795 1 1 0
616 0 1 0 3.093783551229258 2.241224247234536 2.191034534498877 1 1 0
1111 0 1 0 0.7125389729401335 3.0040869468822686 11.426477530333676 0 2 0
619 0 1 0 9.796234049060821 -3.0930162867771247 15.706524488942696 0 0 0
303 0 2 0 -1.9343289617212651 12.669890292879957 -0.4199514477801207 2 -2 0
219 0 2 0 5.972697917436513 0.3711475488434097 1.6846935722070646 0 -3 0
926 0 2 0 2.256730502176253 -1.8915686491114998 4.879073019411386 0 2 0
784 0 1 0 3.865603761773289 2.0384209128695097 10.16820256650151 0 0 0
1250 0 2 0 -0.03662825911849829 2.813623503081773 8.936058978503373 2 1 0
1663 0 1 0 -3.324736844742168 5.7173424596112925 15.224221839097359 0 0 0
1592 0 2 0 5.378741143724417 19.600760751609002 2.752889429663505 0 -2 0
159 0 2 0 8.23613213442631 -3.581444833062629 10.642258964259556 1 1 0
1245 0 2 0 -0.7166541262220886 -1.7179060260132428 14.68875103999213 1 1 0
1168 0 1 0 -4.920190202320509 8.158018381881217 14.170808929464313 1 1 0
472 0 1 0 10.672301251531799 4.8055715778422226 1.333918148626133 -1 0 0
601 0 1 0 -5.1617290472092785 13.823001544567681 8.240255348326134 0 -1 0
437 0 2 0 8.019174596911828 13.90860451782413 10.1009068128886 1 1 0
627 0 2 0 -1.396605080093987 8.059978487512918 4.50144535719565 -1 1 0
115 0 1 0 0.553094186380094 7.9632463617250675 2.204040168259776 1 0 0
65 0 2 0 6.960121827842123 3.898464999972041 2.6679857176658692 -1 1 0
523 0 1 0 -4.939837884400765 14.795528434685245 15.628616143199894 0 -1 0
405 0 2 0 0.7106199804292996 6.538684763651405 11.085891722646798 1 -2 0
748 0 1 0 2.9893279347832657 20.472513017415686 -0.5890043841666721 -1 -2 0
918 0 2 0 -5.004667326323002 9.979460739881183 11.722264483289011 -2 -1 0
184 0 1 0 2.6187744377032773 8.105164928054068 13.845059960581363 2 1 0
577 0 1 0 1.0772070822967557 17.029206651511515 8.883356086268043 0 0 0
508 0 1 0 0.8703768340097182 8.583915830064413 7.821282052221198 2 1 0
52 0 1 0 6.903869416728425 9.017027797919445 1.9087505216345453 -1 0 0
1568 0 2 0 3.1036875537983377 16.0288569621617 14.433267143968012 0 1 0
545 0 2 0 3.613567648483504 -1.4960680587345285 11.76681803133975 2 2 0
504 0 2 0 -2.1138269934623124 2.643788024552755 13.137765774916103 0 0 0
267 0 2 0 2.516115148467756 -1.3763757500825422 13.54466748613896 1 2 0
743 0 2 0 5.2029904495856165 3.5938128409537207 0.755742619787128 0 1 0
823 0 1 0 14.105355666697644 -2.0037441415279544 13.23824985197601 1 2 0
787 0 1 0 1.0402236689965165 13.792906029121385 0.4826853898793866 0 1 0
381 0 2 0 3.1604957423234947 11.79783207107948 15.574436308933462 1 1 0
495 0 2 0 2.142686510830237 16.100971672168853 11.698079728300833 0 0 0
603 0 2 0 -5.219589920017135 12.882760367366494 8.087702425588889 1 -1 0
167 0 2 0 9.589669985351048 -2.044582378859826 12.571972949985017 0 2 0
770 0 2 0 9.254449731575471 3.7026446427251534 13.820468758347587 0 0 0
275 0 2 0 -7.148635192439378 18.78877142401232 2.6776307921303504 0 -2 0
937 0 1 0 -4.109625430875961 17.588801099988682 9.930664956015871 2 -2 0
510 0 2 0 -0.010611225087421516 8.71551784813296 8.162053284010568 2 1 0
1043 0 2 0 -3.5779489608947332 17.138707385893838 3.604480786480168 1 0 0
232 0 1 0 3.4981520642760726 -0.38551293889616023 4.642245026000973 0 0 0
277 0 1 0 -6.095242558234197 16.920958389173634 -0.5656270351085739 0 -1 0
1107 0 2 0 6.643174126988742 4.423929429919092 9.20352331728656 -1 -2 0
898 0 1 0 5.963200232914739 1.461055971237069 8.31828419228678 -1 0 0
321 0 2 0 -0.8050838122716356 7.520224783934506 15.368917309852163 0 -1 0
1264 0 1 0 1.4609471407304457 16.427628476103706 -0.4694532870481263 0 -2 0
196 0 1 0 9.508794460634178 5.719374952194676 3.6248164787343713 -1 -2 0
894 0 2 0 5.520799353113415 14.020805333913462 6.272585872416299 1 -1 0
21 0 2 0 1.407650375555581 13.912835214165767 11.12908371148997 0 0 0
304 0 1 0 -3.230566194013539 13.600676107769267 10.32798139395925 -3 -2 0
1614 0 2 0 -2.494546883023846 9.096776392835173 8.067184500804423 1 -2 0
1106 0 2 0 7.937026096756975 4.126548486397653 8.372708422466745 -1 -2 0
2522 0 2 0 4.831075654297635 4.682422780337052 6.189889557221108 1 1 0
2582 0 2 0 -0.4181838782274624 18.627455893850556 2.073084012188279 0 -2 0
1099 0 1 0 -6.75579187755533 17.39400234231018 7.724598196577732 1 2 0
1115 0 2 0 6.730372517311851 7.779717018757082 15.496112852585478 0 -1 0
899 0 2 0 6.315802842490286 0.6739945373362639 8.705391776434864 -1 0 0
463 0 1 0 9.005711311849637 8.477770070718865 3.653847436682666 1 -1 0
170 0 2 0 0.1342917186342343 0.00834052671019192 3.022320243652042 2 2 0
1557 0 2 0 -0.505380717661511 11.223609861097515 13.384917159971037 0 0 0
464 0 2 0 8.175273372651684 8.657633162324164 3.1481463560958183 1 -1 0
1271 0 2 0 8.843108201204597 11.488516205455193 0.7521451756555222 1 2 0
1205 0 2 0 10.577320357730878 0.29752353988410185 9.497932100423471 0 1 0
1034 0 2 0 -0.39511170897767245 11.782665916087641 2.6265802655717665 1 -1 0
2307 0 2 0 1.641653354538703 9.38357281051561 -0.8128687163707318 0 0 1
828 0 2 0 12.693436916689484 0.002736435398453363 5.8093745123843465 1 -1 0
676 0 1 0 -0.5817450701409571 14.958802699986618 4.519272578301851 0 -1 0
546 0 2 0 4.5654233860015685 -2.3001302037276106 11.004535564060657 2 2 0
641 0 2 0 1.8598377675738607 13.558534059622163 5.12084563894527 2 1 0
117 0 2 0 0.5940213849359504 8.196579349079512 3.116613638512883 1 0 0
698 0 2 0 12.873998576394238 0.9091773290433771 -0.807589259913104 0 1 0
2545 0 1 0 5.377135296708391 12.761635448264336 3.0035252863460196 2 -2 0
1293 0 2 0 3.9467538603718757 7.455201108193658 12.741920162289775 0 2 0
398 0 2 0 -3.3732783462900606 18.639230392603775 0.9610137702247201 1 -1 0
507 0 2 0 5.855377565580997 13.259145409887465 15.174086756057397 0 -1 0
946 0 1 0 0.09203665261744974 2.7455159433767657 -0.7795707178893583 2 1 0
137 0 2 0 0.14546597925796473 1.3863357642880398 12.129485364243441 0 -2 0
975 0 2 0 -0.7267787844415888 1.738137384463314 3.644951055783145 1 0 0
981 0 2 0 9.218512225709201 10.826351525112798 12.776011233659775 -1 0 0
1351 0 1 0 -6.375626111438135 12.4607789152126 15.540822209520966 1 0 0
54 0 2 0 6.83121516842154 8.092220864934607 1.455858062965758 -1 0 0
95 0 2 0 -1.4419629043568643 11.074503208771219 9.104136823083646 1 0 0
1005 0 2 0 -0.954632073302877 15.982190019197661 9.311472485128691 -1 -1 0
826 0 1 0 13.297570766701432 0.5460957434804925 6.3612147224856885 1 -1 0
108 0 2 0 2.17952674255228 8.671020524961866 8.910552983804372 1 -2 0
1175 0 2 0 2.243302450567421 9.911923388914257 11.207539981043109 2 3 0
119 0 2 0 -1.4983268042199693 17.668611425339567 -0.07028345997802754 3 1 0
1122 0 2 0 6.897584392227667 10.640732005229715 8.738906461138187 0 1 0
550 0 1 0 5.790538889251185 10.612159419257711 14.251172887503191 -2 -2 0
1180 0 1 0 -4.12983122066037 12.824013584415377 12.96861543717929 -1 0 0
1578 0 2 0 9.047695125486054 14.02237121634767 3.461087340745064 -1 0 0
1227 0 2 0 8.9395443293844 1.7716297607643003 14.789247299216253 0 2 0
206 0 2 0 -5.433190915655442 10.867248934135379 6.992758211571241 0 0 0
441 0 2 0 -0.09235399826613522 3.4534492378529764 14.694473200432382 -1 -1 0
484 0 1 0 10.051793083744995 0.5591278729286171 5.981223169263314 -1 0 0
174 0 2 0 1.721128356088128 17.803276451379887 2.152532970744819 0 -2 0
341 0 2 0 11.847262926907717 4.699043961642209 5.665519889432358 0 1 0
897 0 2 0 -1.8787248848086926 5.862972150760921 5.816837012863221 1 -1 0
909 0 2 0 6.451749108850059 18.080211944650273 0.969616476072058 2 0 0
42 0 2 0 5.62885921587973 10.189195954509328 10.746707463438447 -1 1 0
447 0 2 0 11.014049135370364 -0.5497991613704998 4.71851793188216 0 1 0
1171 0 1 0 -6.657532082709351 16.46034502842309 4.4202289551802245 -1 -1 0
905 0 2 0 2.831933408436695 13.350470059441617 0.993379403904922 1 0 0
180 0 2 0 -7.26858676211956 15.746567901615796 8.23821617016031 0 0 0
10 0 1 0 -4.087826884793752 8.439541929527678 8.283003080356462 2 0 0
394 0 1 0 10.136322331077514 -0.1524970270896414 1.1537281257257126 1 -1 0
1526 0 2 0 -1.7227535870085988 11.218014452200094 5.24219294585141 1 0 0
1711 0 1 0 1.8730171879363176 -2.7981085657045646 10.008769257650545 -1 1 0
1103 0 2 0 3.914491044358129 17.367881839051613 10.651193571187468 -1 0 0
699 0 2 0 13.16767176160574 2.460406871713664 -0.6717570746409129 0 0 0
2222 0 2 0 3.883087619342919 6.315883756614428 4.831781916584204 0 0 1
529 0 1 0 5.471501831782246 9.81923522377634 5.26284363864145 0 0 0
125 0 2 0 4.37840639944377 -0.188265011073681 14.526214188444369 0 0 0
1628 0 2 0 0.7708471529012291 0.1738817051567043 15.1761093063924 2 0 0
217 0 1 0 5.406563001289304 0.3447850332932738 2.425924661931452 0 -3 0
630 0 2 0 8.305428717086862 14.327569897272411 0.9040970433742217 0 -1 0
628 0 1 0 9.110831220461703 14.226583068399256 0.33406746067520965 0 -1 0
995 0 2 0 3.066146506520361 14.959933187521319 3.7369961954632327 -2 -1 0
449 0 2 0 7.585770479529753 6.367850189894278 14.079488569218638 0 0 0
1027 0 1 0 -3.6533623870355236 12.232094768685993 2.1463258951092588 2 2 0
977 0 2 0 -8.34417737866294 15.8335953248968 13.631521682894107 2 -1 0
9 0 2 0 7.815788666392437 2.805181320117412 10.49212633890503 -2 -2 0
1243 0 1 0 -0.09513332952497572 -1.399551041960284 15.346260255221713 1 1 0
634 0 1 0 7.484515675482149 -0.6412836163795048 9.490756172914654 -1 -2 0
2486 0 2 0 6.612996727800655 16.306945815462182 -0.6885369229063276 0 0 0
246 0 2 0 6.205276499409432 5.7620757985994455 4.339199152881558 0 1 0
345 0 2 0 -6.327337091410866 16.23040813752096 11.75642147783071 1 -1 0
775 0 1 0 -4.400815671931719 7.970220416181806 10.927305461545357 1 1 0
1058 0 2 0 -1.4594898466599684 10.095784855932106 1.1247960896534483 1 3 0
1124 0 2 0 13.398164649996259 1.3763614420197212 2.7020668805949235 -1 -1 0
556 0 1 0 4.339380007721587 5.7608751678187 15.47528732385432 0 0 0
116 0 2 0 1.3147115622183347 8.3611593558498 1.7557567455088554 1 0 0
336 0 2 0 -1.358122012235855 6.691316278647591 9.930379176279105 3 1 0
723 0 2 0 3.5638166851786726 11.752233275491733 12.744228936523067 -1 -1 0
480 0 2 0 5.165367460327751 8.924140894608849 2.25714866482437 -2 -1 0
465 0 2 0 9.423029165020003 9.376438653151629 3.659158483725493 1 -1 0
872 0 2 0 7.646275631528413 7.505921495716386 6.272904640007069 0 0 0
750 0 2 0 2.1467555905820324 20.60448958828678 -0.16305715097075035 -1 -2 0
2583 0 2 0 0.23595962280124647 18.71159592877682 3.491252233954067 0 -2 0
687 0 2 0 -1.0640911449430681 18.234814331634922 7.987026739981566 0 0 0
558 0 2 0 3.794346438258982 5.448679186135067 14.729490786113878 0 0 0
2581 0 1 0 0.3859985606004778 18.92971107423064 2.5626654369660837 0 -2 0
579 0 2 0 1.5293301300919075 17.908135851857388 8.811571389085083 0 0 0
136 0 1 0 -0.083092534807781 0.40737978918584083 12.227242417470123 0 -2 0
107 0 2 0 2.892860665830299 7.998448135468859 10.136562221968534 1 -2 0
709 0 1 0 7.584469924909028 11.60344195891713 5.629488030796997 1 0 0
2521 0 1 0 5.051569111439772 5.568206439749606 5.830038232329263 1 1 0
1219 0 1 0 -2.391433734587159 13.965538665448799 6.7090341606464605 0 -2 0
474 0 2 0 10.343771236849554 3.917437246898865 1.45851177663106 -1 0 0
120 0 2 0 -1.8738804493151409 16.852016967496326 1.3509563277300582 3 1 0
1268 0 2 0 1.767744691503168 5.088496635673078 1.6054585116637412 0 2 0
1075 0 1 0 -0.14807239108563552 15.529136769120878 13.563195684212195 2 0 0
1340 0 2 0 9.621130221889944 8.92016494166533 8.999201594724177 0 -1 0
187 0 1 0 6.960381821309719 2.269661546573971 4.783573356432599 0 0 0
88 0 1 0 5.509350648955765 17.1126837262012 5.209503318091686 0 -2 0
891 0 2 0 -3.1772819956327476 9.521034071003019 -0.1494612872806238 2 2 0
1285 0 1 0 2.880064767897521 4.970018148838661 13.463170641588755 1 2 0
858 0 2 0 1.1669328794532687 17.41538678204641 5.001205256119536 0 0 0
657 0 2 0 9.74643926106629 5.513054696979888 11.84655872504138 0 1 0
1085 0 2 0 12.4135725909468 3.1777500259439377 7.632530980519288 -1 -1 0
1555 0 1 0 -0.11583401866325232 12.069411108394243 13.00135950435585 0 0 0
873 0 2 0 8.870680802043616 7.870428013370188 5.40600260441522 -1 0 0
358 0 1 0 6.177899172623489 17.991459141237762 7.809615049030725 -1 0 0
493 0 1 0 2.127517792398353 17.0181451734417 11.414576093045326 0 -1 0
786 0 2 0 4.632224622928388 1.9713626162706297 9.520643713318222 0 0 0
1029 0 2 0 -4.386765748712718 12.307527227045716 2.832130744659166 2 2 0
1701 0 2 0 3.5458103095990103 7.095346461496535 0.6328351888759709 0 2 0
834 0 2 0 6.7370359674732825 0.13520930395253572 12.745421834743658 -1 2 0
1266 0 2 0 1.087586927931825 15.591689679315518 -0.15459497393759103 0 -2 0
178 0 1 0 -7.5518421976498535 15.068931382353 8.863433147255407 0 0 0
557 0 2 0 5.0545587321831915 5.108908455404947 15.509098480486612 0 0 0
357 0 2 0 3.2065932978895813 10.530249172180733 0.7762946497471084 -1 1 0
606 0 2 0 2.2529570703661115 2.34381349199168 9.078741679197389 -1 0 0
691 0 1 0 -2.300440467713182 13.779678360637412 14.877448381610483 1 -1 0
544 0 1 0 4.57070265457874 -1.5647016782861352 11.701905822596148 2 2 0
280 0 1 0 4.795874047656244 18.80183901116274 1.1583161163556457 0 0 0
1292 0 2 0 5.016433747494343 8.091824777877529 11.789625993479198 0 2 0
1170 0 2 0 -4.797071085304416 8.31996509352006 15.102087792797755 1 1 0
1214 0 2 0 4.30477634854428 12.926059395914699 7.6119908386087225 -1 -1 0
202 0 1 0 4.093095857522153 3.029577674972774 5.785462870530684 1 2 0
102 0 2 0 9.517858314297744 4.132560120298644 6.207222579511303 0 -1 0
923 0 2 0 10.002442491270081 2.121571650611139 5.327366126577462 -2 -2 0
1026 0 2 0 -0.6348811257027347 6.053462705050635 13.624805778455999 0 -1 0
297 0 2 0 -0.053276386956954136 -2.2969959376857183 10.767033430529189 1 1 0
1411 0 1 0 10.72249059640514 1.1582001861302644 10.893895491736593 0 0 0
422 0 2 0 0.522574271213956 -0.10402952056528214 6.255557951501876 0 1 0
318 0 2 0 5.750354295484789 13.980202710443356 10.632451984668053 0 0 0
1104 0 2 0 4.909226976935781 16.36271820131813 10.317865150644609 -1 0 0
895 0 1 0 -2.3640798938563963 5.359359564958023 6.4468797565896665 1 -1 0
846 0 2 0 -2.819318972652104 15.259535469849427 2.1544087084371584 0 0 0
602 0 2 0 -5.924703979294294 14.162117274210722 8.777621068746775 0 -1 0
1046 0 2 0 11.689963364596148 -1.5780679840532246 11.610204286593394 0 0 0
1153 0 1 0 1.7521086317109638 13.127272077584216 15.203428734508952 0 0 0
1112 0 2 0 -0.06742886475646676 2.9613296544108265 10.870288745285713 0 2 0
203 0 2 0 3.558150424305134 2.6174324123986707 6.4947880349065406 1 2 0
234 0 2 0 4.16712242592926 -0.2608943858016779 3.9844524100716843 0 0 0
575 0 2 0 4.841503843600147 -3.7214234974660183 14.15167478789433 0 -3 0
276 0 2 0 -6.780322214546651 19.895519396924776 1.615360193632613 0 -2 0
854 0 2 0 5.8055095440811035 6.772944000829323 0.4256706171547182 -1 1 0
1118 0 2 0 1.158847587227854 6.333622606665078 15.599697536154425 0 0 0
149 0 2 0 0.456021475163142 3.3216109940909315 0.8825815215193002 1 0 0
288 0 2 0 -2.2177108010641122 5.51342965635482 8.200234667591811 1 -1 0
356 0 2 0 2.0835878658558267 10.626884923280134 1.7270490849348237 -1 1 0
1000 0 1 0 7.845327940450406 12.04362938599763 13.01173661100928 0 1 0
1220 0 2 0 -3.266160006733779 14.154180649736537 6.390386699298177 0 -2 0
1270 0 1 0 9.622777289032827 10.989206047356411 0.5304202920603365 1 2 0
1189 0 1 0 7.481210349116116 -0.37771637152800697 5.960832167424544 1 2 0
913 0 1 0 5.043260454212968 5.331374008404477 9.464832280524032 0 -1 0
685 0 1 0 -1.2847059556351974 18.5602467289292 7.075144898890558 0 0 0
1627 0 1 0 1.4718981101411606 0.9000893213684016 15.207797356528678 2 0 0
580 0 1 0 7.10649344056337 11.417800631247225 1.1117007372467866 -1 -1 0
584 0 2 0 1.2703487922678578 0.25374615595539274 0.5164872031035617 1 -1 0
1295 0 2 0 -0.5194991254880188 5.005077178078596 2.6297582673050495 0 0 0
647 0 2 0 0.44021492611831226 12.0877267929325 6.672967370697083 -1 -1 0
96 0 2 0 -2.2011959628194773 12.159518944803668 9.926015188731757 1 0 0
2336 0 2 0 9.490445368979612 5.708698243950485 0.05345088875513859 0 0 1
777 0 2 0 -4.243501896989605 7.090414121876686 11.229168144884326 1 1 0
1569 0 2 0 4.188422756352376 14.855836211108949 14.703047881669534 0 1 0
16 0 1 0 2.920590650456918 17.99735967364742 5.771683772719672 0 -1 0
1612 0 1 0 -1.7553752987006428 9.70690166424075 7.988117259797692 1 -2 0
1163 0 2 0 12.15272866212333 4.071837138506261 0.3878300214695387 0 2 0
283 0 1 0 4.771255439366296 10.103934905028122 -0.4268634370823977 0 0 0
1117 0 1 0 0.6072298883333589 6.7392561903731085 14.874655493367985 0 -1 0
622 0 1 0 7.835909422082967 2.828567770627469 -0.4538582727006347 0 0 0
595 0 1 0 15.156550630140302 0.4390621926664194 0.3187497899354925 -1 -1 0
1317 0 2 0 10.333425425345698 1.347738802186319 2.0244809802518455 1 0 0
355 0 1 0 2.388700658236736 10.074660676657006 1.0016649647730087 -1 1 0
1123 0 1 0 13.361317073768756 0.4294919271524109 2.39962135913626 -1 -1 0
543 0 2 0 11.398061016579161 4.193104923796423 12.747593885908987 1 1 0
832 0 1 0 7.387286104653976 -0.027043646744361105 12.029928856113322 -1 2 0
118 0 1 0 -1.7409507334913192 17.746880317228687 0.901031595032278 3 1 0
924 0 2 0 8.642037754797528 2.608041388861034 4.73727459680552 -3 -2 0
578 0 2 0 1.3793573874336067 16.38748238371742 8.196827048160598 0 -1 0
974 0 2 0 0.4931656758331504 1.574758948589715 4.618527799137645 1 0 0
1197 0 2 0 15.289119403753965 -3.6997581905860533 11.897754772160276 0 2 0
809 0 2 0 5.015809761302708 0.13126465180651392 7.188653028459649 1 1 0
1352 0 2 0 -6.917073083179438 12.139716038900279 14.81796603266599 1 0 0
89 0 2 0 5.87540368005456 17.362329155140102 6.063453683265576 0 -2 0
2365 0 1 0 -2.112475457055575 10.210321673151068 14.20505073940113 1 1 0
404 0 2 0 1.1249221486902679 4.992797073187485 11.071892285654082 1 -2 0
2259 0 2 0 0.031646214729127375 12.710218715716412 9.4400833137381 1 1 0
245 0 2 0 6.35223377405177 5.973347639835241 2.8272521690706687 0 1 0
439 0 1 0 0.6142547438137259 3.1903573187852086 14.090401518305947 -1 -1 0
1013 0 2 0 5.832801043993706 6.812083320245691 8.307029846341674 0 0 0
2293 0 1 0 7.2724977986773975 0.1032326624499188 0.4663388661596126 0 1 0
1375 0 1 0 2.420202981242411 -0.34089816254544303 9.229302110899567 0 0 0
582 0 2 0 6.856211262222477 11.643993899321893 1.9749485296452667 -1 -1 0
623 0 2 0 7.682271558265149 3.2527651465171035 0.42698964863574296 0 0 0
382 0 1 0 1.6318390429176093 8.663275613934127 5.06501720458213 -1 1 0
1042 0 1 0 -4.10318046898501 17.804432174130582 4.112985218075207 1 0 0
473 0 2 0 10.559892500184926 5.2622040367307354 2.2171211677912517 -1 0 0
2367 0 2 0 -1.9640888554288503 9.33594939064689 14.550517205106882 1 1 0
335 0 2 0 -1.2337366058757893 8.067210459755763 10.6826051493734 3 1 0
1269 0 2 0 2.9915480284335825 4.62138699958607 0.7648309004168732 0 2 0
1012 0 1 0 6.085016422840782 7.418562460164124 7.593412739152521 0 0 0
686 0 2 0 -2.2497053220540426 18.36003620000504 7.080599865446662 0 0 0
506 0 2 0 6.328750114319045 14.147143242201942 14.009026497097832 0 -1 0
94 0 1 0 -1.403747163037318 11.60669421240919 9.899750212921061 1 0 0
314 0 2 0 -3.551290025062813 9.312081421741222 4.244862026314587 0 -1 0
871 0 1 0 8.64981961639213 7.484837229213316 6.297336011092636 -1 0 0
1225 0 1 0 9.104268721800349 1.1497066654595738 15.547010109585537 0 2 0
711 0 2 0 8.419523370689934 11.523408294989448 5.21591797536554 1 0 0
2221 0 1 0 3.2247089596493996 6.692297566251865 4.1834028602271545 0 0 0
1077 0 2 0 0.17850333534471913 15.749091076690737 14.44160691997506 2 0 0
197 0 2 0 8.5970614989179 5.515448299924296 3.8596755862249035 -1 -2 0
815 0 2 0 1.7007102326135384 11.730629507608544 3.723680967183334 0 1 0
2294 0 2 0 7.396188940006588 1.069084927764134 0.2590336133418989 0 1 1
1291 0 1 0 4.5248271744268695 7.275343512523944 11.979940178021385 0 2 0
185 0 2 0 2.3954655251081696 8.905726203798098 13.346155290714833 2 1 0
359 0 2 0 5.709633593546179 17.698756383931546 8.56359111580842 -1 0 0
165 0 2 0 1.2833821806615187 4.194286017344518 4.620464497468191 0 1 0
742 0 1 0 4.294264744002569 3.4155192842677273 0.3928961950020553 0 1 0
648 0 2 0 1.1294370845822326 13.117661382395639 7.505924401192852 -1 -1 0
17 0 2 0 3.835049621779227 17.78167631665292 5.684693270708893 0 -2 0
636 0 2 0 7.472062395736253 -1.6360943171586686 9.365526486075455 -1 -2 0
333 0 2 0 -3.7105282520322946 14.451693006007265 -0.015071147811159924 0 0 0
785 0 2 0 4.238816197098695 2.376198701893955 11.009648684353154 0 0 0
655 0 1 0 9.02893653366328 5.859731476124285 11.31199478145941 0 1 0
163 0 1 0 2.1193933803846674 4.058348268450209 4.080012184316272 0 1 0
938 0 2 0 -4.8834362283642925 17.26799266754443 10.399929593292038 2 -2 0
757 0 1 0 11.65847082842562 -0.3795999674398196 14.657887302506746 0 0 0
925 0 1 0 -7.6696818462958545 19.05452358117703 4.528067562259118 0 1 0
1664 0 2 0 -3.4409568039458795 5.765212734218139 14.241726497614717 0 0 0
585 0 2 0 -6.558032435866553 21.12976087021791 0.08779875612914512 1 -2 0
20 0 2 0 2.4229359211962658 13.73795992031712 12.318139331109041 0 0 0
538 0 1 0 -6.508549752560125 14.478852647773179 11.806976370095118 0 1 0
747 0 2 0 11.666599566770506 -3.4030101127982793 12.954644095682204 1 1 0
1161 0 2 0 -0.4719413622274603 3.6833105453245514 6.333079979191895 1 1 0
511 0 1 0 6.705765955809675 4.020711629917274 15.585129658669372 1 1 0
316 0 1 0 4.875253154606447 14.37991210588132 10.709665921162506 0 0 0
445 0 1 0 11.807970547255842 -0.9333907730912033 4.395520132073761 0 1 0
1148 0 2 0 1.1713713947611966 5.341035191629979 7.7393296915829595 0 1 0
1172 0 2 0 -7.153551473867607 17.28269632195003 4.432102308861579 -1 -1 0
485 0 2 0 9.136057213107861 0.24448704034454183 5.7835178757688555 -1 0 0
166 0 1 0 9.869708390568604 -1.1150876115828208 12.545899715721387 0 2 0
1147 0 1 0 1.48633274960366 6.0919280069580255 8.244198504635447 0 1 0
265 0 1 0 1.8510358066728436 -1.7163826669367301 12.886778471898856 1 2 0
399 0 2 0 -4.622920872968226 19.018867424488466 1.5570444960921792 1 -1 0
1287 0 2 0 2.583878313820576 5.440656187668145 12.675533051613959 1 2 0
380 0 2 0 4.4108078621803335 10.972629461482029 15.101838503953296 1 1 0
7 0 1 0 8.24053615331948 2.331119969628145 11.26739374580042 -2 -2 0
1244 0 2 0 0.586985246489122 -2.0735145484585784 15.443311705223325 1 1 0
808 0 1 0 4.434616141921227 -0.605065465748202 7.090386237015602 1 1 0
1226 0 2 0 9.987270543767238 0.7890401020551678 15.438909746200858 0 2 0
596 0 2 0 5.714568173297505 21.05329150230524 -0.1880445765670904 -1 -2 0
816 0 2 0 1.4304827969590346 10.180295316165093 4.060515068586132 0 1 0
1294 0 1 0 -1.2707796849155104 5.441572970978894 2.987366459023507 0 0 0
40 0 1 0 6.06794696205954 9.625424725729193 11.371012260569653 -1 1 0
552 0 2 0 6.163993603479062 9.774073626098716 14.481119094808939 -2 -2 0
18 0 2 0 2.810591988891253 18.54815208957531 6.523673191071509 0 -1 0
1047 0 2 0 13.15634539393661 -1.9525279953284174 11.424795066297788 0 0 0
973 0 1 0 0.25036172248700567 1.7683467266716995 3.6804477256556627 1 0 0
45 0 2 0 -1.9462432057039574 10.321479753122814 11.13812917999803 -1 -2 0
629 0 2 0 8.967614536214613 13.495243385874069 -0.339394662091397 0 -1 0
1032 0 2 0 13.37172073195594 0.03879459425083054 10.69139653697066 -1 -1 0
914 0 2 0 5.008510592044968 5.819534794431827 10.307821698629848 0 -1 0
24 0 2 0 4.058908339853507 10.696816552328384 6.331901468880087 -1 -1 0
1127 0 2 0 -4.5871357776369965 20.061034985535937 -0.5490700081480223 1 0 0
1248 0 2 0 12.631256923423598 -2.318286481954673 8.668863209456262 1 3 0
1206 0 2 0 9.343739238328482 -0.41364441475223446 8.849006325625913 0 2 0
1064 0 2 0 8.90206600962472 7.729279625059645 10.725170301923853 -1 1 0
1201 0 1 0 10.739701196486944 4.760411731839776 9.406465558674018 1 1 0
312 0 2 0 6.414495908382918 -1.0271691844342041 3.3442149402281016 0 0 0
1286 0 2 0 2.040907814447359 4.48074125799528 13.765178645721312 1 2 0
274 0 1 0 -6.544928500333724 18.945491177078505 1.9016972146618647 0 -2 0
1135 0 1 0 6.621704163210158 5.481131743025811 12.651865097900222 2 2 0
46 0 1 0 2.3658319227240208 15.200987541780712 6.515299530207902 0 0 0
1176 0 2 0 1.326757512134304 10.905287520627237 11.989990212993556 2 3 0
19 0 1 0 1.7110831832354942 14.274684141930104 11.990704651765949 0 0 0
1024 0 1 0 -1.3309235255562346 5.737970062740578 13.047646617650965 0 -1 0
2547 0 2 0 5.194693180754954 13.292428107211089 3.823510559990104 2 -2 0
1162 0 1 0 13.088500231884352 3.741076099069423 0.327996466544465 0 2 0
124 0 1 0 3.6266894295659564 -0.7376877872716507 14.828847143052382 0 0 0
1045 0 1 0 12.431523551053761 -1.5432504061857713 10.995160029364353 0 0 0
1267 0 1 0 2.4856605179360387 5.417983915816538 1.006554511513464 0 2 0
915 0 2 0 4.499890573375349 4.5411036140650065 9.597455698086296 0 -1 0
1712 0 2 0 2.4083510912285617 -3.3437900899579303 10.60155420898634 -1 1 0
1065 0 2 0 7.7263457080099744 8.784956482328266 10.70066600513319 -1 1 0
448 0 1 0 8.196353538891916 6.935388867969086 14.628406340138469 0 0 0
1035 0 2 0 -1.8476661442138553 12.36182443135792 2.3156480207102703 1 -1 0
1063 0 1 0 8.634604354233048 8.59878750748853 10.489865268025031 -1 1 0
344 0 2 0 3.465685818174559 -4.097525048376441 12.696386475328834 1 0 0
395 0 2 0 9.283471719563117 -0.172669724797827 0.7409561976265422 1 -1 0
2257 0 1 0 0.7042954481310132 13.476028828215112 9.394386506624421 1 1 0
278 0 2 0 -5.712348300433465 17.223942598126992 0.3098991006194072 0 -1 0
722 0 2 0 4.45798017298462 12.936361986776085 13.341201578040558 -1 -1 0
218 0 2 0 4.769594990228694 1.063844681807143 2.384913993108215 0 -3 0
2415 0 2 0 5.67438362453641 -1.985060193139224 12.81501404398839 1 0 1
1202 0 2 0 10.402592825094558 4.557807041123878 8.495835954564125 1 1 0
1003 0 1 0 -1.364772493202509 15.15953723670571 9.015312637176638 -1 -1 0
952 0 1 0 7.33444570330325 14.8370574257338 2.3128394324480888 0 0 0
77 0 2 0 5.656880013766936 3.7708215985238924 12.480156608028246 -4 1 0
2413 0 1 0 6.168258965104359 -2.470163920798004 13.50727285803826 1 0 0
1221 0 2 0 -2.3512357957582926 14.423903996314035 7.5327915914395245 0 -2 0
624 0 2 0 8.829241430625876 2.8778893432908967 -0.6359502335840608 0 0 0
1377 0 2 0 2.3601091307374364 -1.206994669002654 9.699948408844566 0 0 0
8 0 2 0 7.733787446729817 1.5572262099565668 11.56408710018499 -2 -2 0
842 0 2 0 5.261852186873828 1.5205056810208104 13.560038281409062 0 1 0
305 0 2 0 -3.9685631914335646 13.94668766141327 9.767159181691284 -3 -2 0
735 0 2 0 -4.948219340744283 11.591890791519866 15.692076488180996 -1 0 0
311 0 2 0 -2.8777253588271083 19.14895462880543 3.8995512711470735 0 -1 0
514 0 1 0 -5.2571649117037715 14.436597703045186 5.518058498970548 1 0 0
845 0 2 0 -1.8100239527713171 15.502566474998307 3.3133999714010836 0 0 0
551 0 2 0 6.586079610099868 11.19557547018892 13.9591697537601 -2 -2 0
310 0 1 0 -2.2054734873127573 19.822499441982742 3.7278281620254745 0 -1 0
1101 0 2 0 -7.556261462595662 17.582179501377023 7.215260021047062 1 2 0
340 0 1 0 11.82894040764797 5.371927807705777 5.0119286577610165 0 1 0
990 0 2 0 12.15554493004435 6.728774070745685 -0.2946557075696683 0 1 0
1556 0 2 0 -0.7419846445843883 12.24977397355546 12.323925426192362 0 0 0
90 0 2 0 5.634058334285452 17.920377972214887 4.7050752174683765 0 -2 0
1181 0 2 0 -3.5458750367550396 12.968846302615898 13.728962148372533 -1 0 0
635 0 2 0 7.387428372309418 -0.42263477749591916 10.492326045770628 -1 -2 0
953 0 2 0 6.560639860946161 14.333620523537887 2.5198175888784076 0 0 0
855 0 2 0 7.37152016116024 6.391210212208282 0.354783136602127 -1 1 0
617 0 2 0 2.6590708003215755 1.445063182289962 1.9107967063548048 1 1 0
1591 0 1 0 5.907050320376157 19.63508158918858 3.5325653017556515 0 -2 0
677 0 2 0 -0.9644566353965577 14.445942146854833 5.2036120848384035 0 -1 0
1164 0 2 0 13.310700831789376 3.5621533500713083 1.2465304811012485 0 2 0
906 0 2 0 4.224027563823056 13.10412707225144 0.4387243720202285 1 0 0
317 0 2 0 4.456075377530897 13.879497514947406 11.37609388976448 0 0 0
331 0 1 0 -4.080286820355121 14.821642509405049 0.7715073641534416 0 0 0
1629 0 2 0 2.2913534386089545 0.34781315364012144 15.205019110341157 2 0 0
618 0 2 0 2.559122842346126 2.6602110536261083 2.8932388865126404 1 1 0
78 0 2 0 4.296412428042443 3.6918948771609914 12.902994060853214 -4 1 0
1100 0 2 0 -5.994795658605272 17.573126510381442 7.137572675692148 1 2 0
978 0 2 0 -7.646298499882571 14.548204094233395 13.1107412388865 2 -1 0
1173 0 2 0 -6.888612389840833 15.982754363922353 3.587083744390017 -1 -1 0
856 0 1 0 0.2584124354283064 17.70130273854272 4.877014983091246 0 0 0
525 0 2 0 -5.393717039566415 13.985031992949544 15.317352267714474 0 -1 0
11 0 2 0 -4.39872905340704 8.14340313716708 9.142934823719603 2 0 0
212 0 2 0 12.751375344169182 2.809864714368647 11.544154256413897 0 -1 0
1149 0 2 0 1.6354955705494305 5.890787021466456 9.1550643423059 0 1 0
1160 0 2 0 0.8668959148361464 3.116485923140774 6.677570177614834 1 1 0
1261 0 1 0 8.406487181730617 -3.4994872439695515 12.38107646671636 -1 2 1
106 0 1 0 2.7353056922141796 8.874486807505129 9.647512078446818 1 -2 0
927 0 2 0 -8.362219450723178 19.63079446728168 4.238752546150205 0 1 0
1121 0 2 0 7.623711807269834 11.140077511960744 7.453827693739607 0 1 0
44 0 2 0 -2.382331340243064 9.619013164514545 12.474600244984472 -1 -2 0