LAMMPS data file via write_data, version 23 Jun 2022, timestep = 156000000

2592 atoms
2 atom types

0 31.157 xlo xhi
0 21.485012 ylo yhi
-0.7867966622968243 32.5429646732359 zlo zhi
-9.195174 0.7674232455498409 -11.22910725863608 xy xz yz

Masses

1 1.008
2 15.999

Atoms # full

1249 0 1 0 4.054985587681158 5.1858375795587985 11.06029180944587 2 1 0
867 0 2 0 4.494396191811771 9.011345775886845 1.9152227817718726 0 3 0
33 0 2 0 1.5922400435450328 13.036472898969919 10.826593112922907 -1 -1 0
943 0 1 0 -0.8265003904079897 16.75631692008855 12.521159324349671 -1 1 0
705 0 2 0 11.075576782209724 -1.0141384183571462 14.931971704839144 0 4 0
1099 0 1 0 7.532956760502134 0.45201177122034775 9.94594718514311 0 3 0
73 0 1 0 9.983062381813529 7.725454916502275 2.539560659197769 1 1 0
1122 0 2 0 -6.117226696647104 12.986393267825301 10.790402571710743 0 2 0
837 0 2 0 7.495612035104226 0.5144277609600267 0.1879715724934201 1 1 0
615 0 2 0 1.53570515410639 -3.23458856177343 13.776453892605792 2 -1 0
1065 0 2 0 -0.9570567212496228 12.005484471285824 2.0539909877642875 -2 0 0
330 0 2 0 -5.1141284958063595 13.731720137126485 13.377786266885272 2 -2 0
246 0 2 0 5.418241387138936 12.589546692842234 0.5071057682113269 -1 0 0
2278 0 1 0 -4.913238208147208 10.852571898711247 12.887825367473367 0 2 1
938 0 2 0 7.357644488293587 12.151300057567125 -0.49215772550034825 2 -2 0
1220 0 2 0 7.43459174785082 9.060433377661697 0.49590914239917416 -2 -5 0
1280 0 2 0 -6.929563153469139 17.108784000432763 1.1670123839869828 -1 -2 0
34 0 1 0 -2.3637830226816097 12.065469384585048 6.605599460901701 -2 -1 0
1106 0 2 0 3.180167870891062 -1.3549197992827278 12.69421280549772 -3 -5 0
806 0 2 0 5.40041275215308 -1.865332229470722 6.880292902513719 2 1 0
161 0 2 0 -0.8759690770720981 6.882507000856448 9.070389184367206 0 -1 0
344 0 2 0 -2.035253979239066 4.388439707437201 12.051456780226138 1 1 0
1382 0 2 0 -0.9205658135944594 -0.7813288160227039 14.460738575871838 1 0 0
225 0 2 0 11.774040564326485 5.478619727745496 6.649784130276083 0 0 0
1025 0 2 0 -1.452288205497085 15.90616663265202 9.291500630302137 -1 -2 0
168 0 2 0 10.518931292474399 0.040398640553756415 11.633449130492396 0 1 0
1196 0 2 0 1.060050533075995 6.0132079268676915 4.1407010240028255 0 -1 0
919 0 1 0 -1.8067115822831867 4.325540881347724 3.285474952295571 -2 0 0
1135 0 1 0 2.718000926880915 2.196034378720797 8.813743520647108 2 3 0
964 0 1 0 0.7272226479954862 2.2175393590836388 12.371742902189956 1 -2 0
2566 0 1 0 0.19548933970859123 20.285372272951957 2.39202443051656 -2 -4 1
674 0 2 0 -1.018376773636331 8.89083252268685 10.058579774122517 2 1 0
972 0 2 0 -2.9560215055006895 3.9733796321732697 9.855965269091385 2 5 0
866 0 2 0 4.149039312556048 9.38446243649716 3.349143289004159 0 3 0
2401 0 1 0 7.239523082068318 9.966736092022003 8.795731111503953 -1 -4 0
1051 0 1 0 1.42945813223604 4.586546717408014 0.94385114789307 2 0 0
245 0 2 0 5.72395132175523 11.095057981867187 0.2553477663981294 -1 0 0
1010 0 2 0 -7.129969063437084 20.042164257291947 0.15445253263591674 3 1 0
858 0 2 0 -0.3939046081809417 9.274163231823348 0.5805968206780106 -2 1 0
968 0 2 0 5.126788225000385 15.908757904991539 12.441252141544048 0 -3 0
416 0 2 0 10.162995240843372 2.578927183708965 6.389694257199348 2 5 0
598 0 1 0 7.40352504706323 6.088003521687687 12.1727648287034 -3 -2 0
2336 0 2 0 8.23050421302175 5.94948469313856 5.861701007055088 0 -1 1
2424 0 2 0 8.93838109181209 -1.0983323042268551 4.580377977761363 0 2 1
263 0 2 0 3.969730603757196 -2.379591846104732 9.013305437095138 2 -1 0
195 0 2 0 1.1820186902069831 12.992688464260489 7.90579660249578 2 0 0
240 0 2 0 13.37832412367531 0.5016478216130515 6.775704828083555 -3 -4 0
1026 0 2 0 -1.2298898115016141 14.50498200990079 9.825470585203087 -1 -2 0
206 0 2 0 9.581319413787698 -2.6301831118349153 15.536733945576033 1 1 0
538 0 1 0 -4.188691268373525 9.304747733862303 9.250568504963596 0 0 0
1038 0 2 0 -3.029257054274291 11.05486151026081 15.16589184905966 2 -1 0
433 0 1 0 -2.6596706208251546 9.449445060631302 12.431755441876945 -1 0 0
1178 0 2 0 -1.3147426006661114 6.640951015104686 5.027422037701497 4 0 0
741 0 2 0 9.122518005006143 12.843119524697396 6.5577350171806295 0 0 0
357 0 2 0 9.864756869602958 6.426377925539928 15.322501811600416 -1 0 0
732 0 2 0 5.250379339810704 7.819650110163199 9.59866803651404 0 1 0
668 0 2 0 0.7485362627266015 0.49764756082536454 14.927891899435217 1 1 0
720 0 2 0 7.71170012242267 12.647078274661354 10.698890328243733 0 1 0
95 0 2 0 2.6322481336217405 19.622622193527135 -0.0693702176685913 1 0 0
540 0 2 0 -4.734087900758844 9.486906117542222 8.436019112154858 0 0 0
1339 0 1 0 6.006249927011752 -1.8062492830237376 10.301827529200486 2 -4 0
2199 0 2 0 -2.3677153485726223 16.087745897528293 1.0758604067350448 -1 -3 0
266 0 2 0 10.207016790014192 2.8121302623624587 15.001979835431792 -1 2 0
599 0 2 0 7.296818397814637 5.599865876303172 11.342694760386882 -3 -2 0
552 0 2 0 -2.8527403186581486 13.992798120874822 11.677129297107486 -2 -1 0
271 0 1 0 8.555806961323091 9.660381532812842 6.236727919160803 3 3 0
731 0 2 0 4.644000971949542 6.753509672051591 10.472584047281076 -1 1 0
88 0 1 0 1.3111364167825255 15.477589185609856 5.024116604820191 1 0 0
1050 0 2 0 12.666121986887811 2.3224165899340767 8.125706494294947 0 4 0
1195 0 1 0 0.3045822478792919 5.546242474667963 4.489329956782161 0 -1 0
555 0 2 0 9.28564602918971 0.6285132845054742 7.625015047112219 -1 -1 0
578 0 2 0 10.797840051518335 7.752538030676054 9.297934339368423 1 0 0
1036 0 1 0 -3.6940570501394054 11.797394519955741 15.121617299125683 2 -1 0
703 0 1 0 11.613103911219502 -0.16973963181482343 15.11140219863002 0 4 0
518 0 2 0 -2.8947524513282734 14.31710311960359 4.714946680569087 0 -4 0
26 0 2 0 -4.347080923866658 19.801630161511195 2.91534526601417 0 0 0
664 0 1 0 14.161850673393548 -1.2938748080438551 14.28670359658496 2 3 0
1029 0 2 0 0.3275571527410153 0.9791022242541549 10.9502226717201 1 4 0
2423 0 2 0 9.057239890487056 -0.6697610979176976 6.051615314823158 0 2 1
568 0 1 0 9.927008385030378 10.80935425822527 3.7582473798797107 0 0 0
813 0 2 0 2.329225103952327 7.471870890878904 6.778745954713605 -1 -3 0
104 0 2 0 3.2496726518678307 11.267266507517244 13.687267874263117 2 -1 0
614 0 2 0 0.19839250052981183 -3.970293117082794 13.750084211686328 2 -1 0
908 0 2 0 8.815558787303916 5.160048490134856 12.461799141186484 3 2 0
1002 0 2 0 2.950909311942868 2.9619776272734755 4.798214532228314 -1 -1 0
1189 0 1 0 -1.855709387944235 10.19636656658365 4.354010068629326 1 1 0
247 0 1 0 2.3073062464174185 -2.4093227177538057 15.155322329540125 -1 2 0
952 0 1 0 2.9058187274740135 4.222974465116937 3.449638678569813 0 0 0
1037 0 2 0 -3.1272348972868316 12.561677771636436 15.036748775291866 2 -1 0
51 0 2 0 3.2933270760291755 -0.7857283874311349 15.280926532263122 4 6 0
501 0 2 0 -0.6165327820244927 9.736231663318492 2.980036799069096 2 -1 0
1005 0 2 0 4.570674459022074 9.362299106622013 -0.23414124121963997 0 -2 0
1179 0 2 0 -2.429900795744714 7.196896132992725 5.967973957368557 4 0 0
967 0 1 0 4.770046334164775 15.836281724283857 11.532035356934955 0 -3 0
1000 0 1 0 2.8748320703958616 2.246109027282154 5.459249875470994 -1 -1 0
1639 0 1 0 8.64177571988636 5.673158804656466 7.731304197549836 1 1 0
1224 0 2 0 11.720569111605402 5.371182469420585 3.9251614099071572 1 1 0
1665 0 2 0 2.933168226728218 17.025399489432196 8.948448391452779 -1 0 0
801 0 2 0 4.951460313921907 12.409688590335904 15.127711846892616 1 0 0
872 0 2 0 2.0152240490464117 15.280259187767047 11.237962763520752 -1 -2 0
733 0 1 0 7.481225932537366 14.994622331240423 3.2872015064121705 -1 0 0
230 0 2 0 -0.005594025383407725 14.85692351207054 6.075246888443502 -3 -5 0
1519 0 1 0 10.723084939840495 1.0373402901259066 0.025219207850689207 -1 3 0
1272 0 2 0 6.899351381389711 13.628870096390509 15.298744015733162 0 3 0
125 0 2 0 -1.4419707923461518 15.724973950873231 3.629190606655376 0 -1 0
524 0 2 0 11.208317759404624 1.6850262777132679 4.161531115222057 0 0 0
1270 0 1 0 5.994723409761443 13.942203312507178 15.435943516575735 0 3 0
169 0 1 0 9.3554524578186 2.5073229382999402 9.729422102327147 1 1 0
551 0 2 0 -1.588120956677811 13.366216640413214 12.264002335824042 -2 -1 0
265 0 1 0 9.62147287250681 2.8690716508966396 15.766141694726395 -1 2 0
333 0 2 0 9.731473862892964 4.811185569973014 1.1459081269219307 0 0 0
1279 0 1 0 -6.083573367509929 16.62689719909707 1.0821660978578556 -1 -2 0
264 0 2 0 3.504236143817629 -2.7737076498370627 7.617127948201748 2 -1 0
1109 0 2 0 -3.5470098410327697 8.401314074033642 -0.6083400566963951 0 1 0
193 0 1 0 1.7446443031842027 12.419405019184008 7.352468188649707 2 0 0
958 0 1 0 1.14475586116164 11.317211218598123 5.096542883792483 -1 0 0
903 0 2 0 -1.7421672465394409 16.234500616608166 6.635230476979345 1 0 0
469 0 1 0 7.36979188626758 4.7003701551795825 10.014994484557956 1 1 0
167 0 2 0 11.179214461306483 -1.307473444853942 12.234800667605887 0 1 0
331 0 1 0 9.322444544951724 4.813817181096057 1.9677969187308606 0 0 0
1412 0 2 0 8.948037108357001 10.04641206199785 13.85173625320009 1 0 0
915 0 2 0 3.491752420738733 13.761842772028434 3.8537630399460028 0 -1 0
547 0 1 0 11.225233454222645 -1.8040072353006225 7.472059726029158 -1 -1 0
2244 0 2 0 6.544890390356063 0.12761281928229695 2.4180161094391805 2 -3 1
580 0 1 0 2.313373714198335 19.077437247979184 4.406151615659625 0 0 0
725 0 2 0 2.806952147206732 14.278721695661112 15.494278123328064 0 0 0
907 0 1 0 9.513674530311157 4.46410202085352 12.57587432788618 3 2 0
954 0 2 0 2.250691805098357 4.427900866854787 2.803782602982274 0 0 0
434 0 2 0 -2.3753402934165195 9.079803712601873 11.583321716178204 -1 0 0
633 0 2 0 3.750839742456291 3.559363868154642 8.098641389230945 -3 1 0
74 0 2 0 9.96568556870728 6.7677938520319545 2.422941717560218 1 1 0
570 0 2 0 10.025804604306812 11.170070358962686 2.8421802878212437 0 0 0
804 0 2 0 1.7156257392719276 3.3920713793532453 6.504086521072934 -2 -3 0
1221 0 2 0 6.843355913457315 7.774202508232411 -0.28379805819819237 -2 -5 0
316 0 1 0 5.2106694584186934 16.45583143210879 3.3563282531837473 -1 0 0
194 0 2 0 2.5540828322485645 12.951156087023698 7.331706982131006 2 0 0
1576 0 1 0 2.696870887369445 13.943693341643751 13.975040000061195 0 -1 0
575 0 2 0 4.419485136509744 4.859083847578907 0.3237483032905777 -1 -4 0
179 0 2 0 6.92240887624258 -1.1499577405780008 14.346081574747899 1 0 0
2579 0 2 0 -0.1223280862199404 0.8433931412724085 -0.7188433304698383 -1 1 1
472 0 1 0 7.310832392832273 4.225237056795413 14.932162266757908 -2 0 0
317 0 2 0 4.470253207084235 16.93639230056422 2.858720659169748 -1 0 0
669 0 2 0 1.1988568506553121 -0.2948736550617115 13.72024722323644 1 1 0
873 0 2 0 1.1703285906005685 14.795160687320418 10.023173746222017 -2 -2 0
1711 0 1 0 -4.110753954669255 6.036831645652784 14.408077286722882 -1 -2 0
784 0 1 0 7.621094209326692 9.166480835244746 2.612726222854193 0 0 0
914 0 2 0 4.2910534402258245 14.879297155426974 4.525958167857021 0 -1 0
1211 0 2 0 -7.465937655879584 15.555967706476515 11.143098350263157 -1 -3 0
619 0 1 0 -0.790068246160217 1.810834938550314 4.525837954624072 0 0 0
248 0 2 0 2.9088979874992327 -3.0775135141702417 15.430900683074862 -1 2 0
2408 0 2 0 2.5544908627859715 10.798234355203018 4.370615229707223 1 2 1
1455 0 2 0 -5.464396083024679 15.130041097349507 7.622135957870604 0 0 0
191 0 2 0 11.447971707046941 -4.256752597359405 12.761629256165449 2 0 0
905 0 2 0 6.194579814558554 4.308831132156897 13.280402213179434 1 -1 0
1262 0 2 0 2.7020554302884343 4.96259550304509 12.014334994217835 -2 1 0
613 0 1 0 0.9587906749298104 -3.736121405136229 13.194270204986418 2 -1 0
994 0 1 0 -1.9126091464357398 7.318873752437698 14.005469871315638 -2 0 0
694 0 1 0 3.5382800780946533 5.435075470972994 14.973241928442539 0 3 0
1293 0 2 0 8.394175732298814 15.687063154704253 1.772859227793703 1 3 0
1281 0 2 0 -6.0256014613252535 16.108774165115776 1.8600830144007654 -1 -2 0
1197 0 2 0 0.67676150929913 4.966457067958554 5.160787652545245 0 -1 0
59 0 2 0 2.867793301936312 2.6033455691527623 14.571990093812094 0 2 0
305 0 2 0 12.371992401033435 -1.4388580076362882 10.56553850513998 -5 -2 0
253 0 1 0 2.5272702989289697 -0.08020369127203097 4.124195981845095 -2 -1 0
771 0 2 0 -3.594580165260723 17.423242040571054 5.3036842041393495 -1 -2 0
2233 0 1 0 12.595657792735798 3.3726162583295674 1.3715799718601511 0 0 0
569 0 2 0 9.59069420998515 11.591209258003982 4.218366505063868 0 0 0
616 0 1 0 -7.101440068544235 15.735859533131755 7.208746710860088 1 1 0
1376 0 2 0 13.99075293744381 -0.37241959577043793 4.552563857780342 -1 1 0
2299 0 1 0 -1.9780915759184519 19.34391886690837 -0.34435470653515704 0 -1 1
366 0 2 0 3.398056674702366 8.088202804197557 11.936530912453561 1 0 0
1377 0 2 0 12.95536870062292 0.12088789611374606 3.452999643558531 -1 1 0
675 0 2 0 -0.7663161324061236 7.558383483406457 10.853971073105653 2 1 0
364 0 1 0 3.3303208592166054 8.003085389481615 12.923145076902783 1 0 0
913 0 1 0 3.9802078212484737 13.983948480106982 4.660510423369314 0 -1 0
759 0 2 0 0.05596411081269381 11.40319735535637 9.468267743779213 0 3 0
108 0 2 0 -3.8640741375691983 16.557685690305345 10.074306324233152 1 -1 0
1097 0 2 0 12.84300672546131 -2.2886600271919217 13.444277417738874 0 1 0
1263 0 2 0 2.450581466457782 4.881712196250353 13.470645227971172 -2 1 0
603 0 2 0 1.4546254971291708 6.193958032486291 8.427581547862859 3 1 0
1250 0 2 0 4.184970710914049 4.564620873391487 10.328228893067491 2 1 0
436 0 1 0 8.401140805741102 -0.3871279376765706 13.839754080826392 1 4 0
94 0 1 0 1.657299443634559 19.808094202895973 -0.1639279031156109 1 0 0
1640 0 2 0 9.41411243450872 5.1364297234514344 7.572347048713743 1 1 0
343 0 1 0 -1.6635571794246828 3.7660332705763535 12.658502363835987 1 1 0
1082 0 2 0 11.013885598448713 0.9754239542114254 1.8627986837293156 0 -3 0
205 0 1 0 10.315723205300918 -2.4386436311170576 14.966660024525083 1 1 0
1341 0 2 0 6.455926568208697 -0.9545539400371648 10.224685441010905 2 -4 0
909 0 2 0 10.060246297697283 4.710788239353903 13.328681893526923 3 2 0
853 0 1 0 4.915190024898463 11.207414234162203 9.01252156799359 -3 2 0
1454 0 2 0 -3.8833346112186122 15.156099004327892 8.16099255238262 0 0 0
318 0 2 0 5.294749139210641 16.942874606344542 4.182461927888749 -1 0 0
90 0 2 0 1.041789116133029 16.229786369389437 4.483640312267523 1 0 0
643 0 1 0 12.474829726842724 -4.239146635829355 15.413199024997551 -1 0 0
500 0 2 0 0.4899079455596847 8.717015775483299 2.7696440446696533 2 -1 0
951 0 2 0 11.024311395956945 8.670301127476462 1.3337589719562928 -2 -2 0
329 0 2 0 -6.112369330784909 14.815324072582495 13.105383274023401 2 -2 0
628 0 1 0 -0.08142286219217075 1.9242260269036913 1.047888848350103 1 -1 0
752 0 2 0 11.327886407031677 2.1537324818456955 12.724550009958685 2 1 1
103 0 1 0 2.770501241658166 10.810632071821212 12.99082625496616 2 -1 0
492 0 2 0 3.3070358613420408 14.473378732233138 9.177196104134584 2 -1 0
2223 0 2 0 -4.42308559406031 13.329641460519468 1.1755913296502327 -2 1 0
1019 0 2 0 6.325867483996774 17.972419245479717 1.8432611506854388 0 -1 0
321 0 2 0 7.341789517401825 -4.460823014173254 13.83590005335098 0 -1 0
1118 0 2 0 1.3872989376230567 -0.48443366980255975 6.963995277315443 0 0 0
36 0 2 0 -2.1031820045398555 11.189711842375129 6.229109047874029 -2 -1 0
550 0 1 0 -1.9526252013316066 14.219953803031188 11.901367194477077 -2 -1 0
805 0 1 0 5.725130074971153 -1.1021135247059723 6.309735181350799 2 1 0
239 0 2 0 11.891816023755455 0.04203501886064842 6.72370433655714 -4 -4 0
696 0 2 0 2.8685146924555274 6.132338573008776 15.300147897238334 0 3 0
750 0 2 0 -3.6488118969897254 18.71904098433989 0.9574359057653632 1 -3 0
1227 0 2 0 10.805056377963142 1.9798057897669659 10.407568831859274 0 2 0
328 0 1 0 -5.707798876873076 14.28913296763371 13.828886916225153 2 -2 0
1053 0 2 0 0.6894363902497596 5.1517475042322465 0.8192948011156245 2 0 0
1045 0 1 0 9.930501268926594 11.554173113485502 0.9838698307416582 -3 -3 0
856 0 1 0 -0.26363546490737133 8.992952572364866 -0.3324099944941458 -2 1 0
349 0 1 0 4.19987192377151 13.481662996646797 0.12990997067533694 2 0 0
212 0 2 0 -2.6910294856151378 10.143046220620107 1.171410895828092 -1 -2 0
706 0 1 0 2.487922570001449 -2.1330033768748806 10.048987738815507 0 2 0
432 0 2 0 0.6770197136823712 3.6778098806441903 15.220032495936701 1 0 0
567 0 2 0 1.1913324729234747 12.919967345290324 14.694679428099748 1 2 0
534 0 2 0 5.788226361288842 7.236171945892579 15.7901061097686 0 -2 0
148 0 1 0 5.482177422223738 16.19455630074395 14.085775680086773 2 -1 0
1137 0 2 0 2.5641959934812957 1.321108034455404 8.437843655530397 2 3 0
304 0 1 0 12.366707740588414 -0.8456640334636472 9.813572217696416 -5 -2 0
666 0 2 0 13.35016047463986 -0.87541548113375 14.683402151018031 2 3 0
959 0 2 0 0.47039793768216526 10.669048773904981 5.353801993126271 -1 0 0
156 0 2 0 -0.9906369320038719 8.76998841376124 6.523836475166769 0 2 0
1225 0 1 0 11.523263766240916 1.57007698439882 10.876948138010656 0 2 0
721 0 1 0 -0.5426569557497212 4.605342660350885 14.876374164112473 0 1 0
2343 0 2 0 -6.72714566317312 19.059071737172406 5.219069013498817 -1 -1 1
1222 0 1 0 11.660279238845 4.593096292149401 3.423697374046423 1 1 0
2197 0 1 0 -3.028291818957254 15.819649327237272 0.41021622290839965 -1 -3 0
2229 0 2 0 5.497915098019209 2.933023889624904 1.7521171402551552 2 1 1
1081 0 1 0 11.151611948425131 0.7544340779194425 2.8035418611908476 0 -3 0
395 0 2 0 5.1959942462226545 11.012647634737153 5.5489553567026295 1 0 0
231 0 2 0 -0.6036370328913763 14.580308904085399 7.519852122424979 -3 -5 0
273 0 2 0 9.143668345798996 9.86229735507236 5.518927173829004 3 3 0
60 0 2 0 3.9975332575631257 1.484748057056792 14.563869863322202 0 2 0
756 0 2 0 7.156649514424677 9.916542574944872 15.647484254309253 -1 -1 0
1161 0 2 0 4.659022484953651 16.637183182056376 0.6247979870371185 2 2 0
577 0 1 0 9.894015265379995 7.910306548328887 8.980093644733701 1 1 0
1158 0 2 0 6.861532811765204 13.5531828618272 7.106417605169128 1 0 0
338 0 2 0 7.534701858747622 6.053324972988132 1.337773587794425 -2 1 0
2402 0 2 0 6.34456893116156 10.40245440680511 8.893072247787504 -1 -4 1
831 0 2 0 -3.5847074297359214 7.696068648418365 8.300241145803364 2 -2 0
745 0 1 0 5.844747718515875 15.317754410780072 7.286651298107483 -1 -3 0
684 0 2 0 5.245591047234512 -2.340684438922763 13.415593482618362 0 0 0
2356 0 1 0 8.016828934522893 8.663633184146956 11.11350324483319 2 2 1
812 0 2 0 1.3502302954078997 8.580737846587713 6.414531898730305 -1 -3 0
1020 0 2 0 7.029773306081569 17.26902420973632 0.893044207040244 0 -1 0
996 0 2 0 -1.5414165485309663 7.489572901749882 14.897598206751226 -2 0 0
1107 0 2 0 2.749910003969042 -0.13885138995656465 11.966135434466718 -3 -5 0
126 0 2 0 -0.8633918411339907 14.271436143924493 3.3856869207642886 0 -1 0
1351 0 1 0 14.408220862556986 -2.655011932265526 8.663157982412326 1 0 0
2351 0 2 0 -3.207671337404577 8.110799777712778 2.0835786570846673 -1 -1 1
1096 0 1 0 12.34628591707065 -2.5016644734086713 12.595115843985658 0 1 0
178 0 1 0 6.309207599131166 -1.7518295401243216 14.820258761320876 1 0 0
807 0 2 0 6.719929739217549 -1.0172061090799958 6.2289291173983266 2 1 0
207 0 2 0 10.85165116376328 -3.193004438056714 15.089925273677737 1 1 0
1453 0 1 0 -4.67810561054458 14.602770802236932 7.927189576408422 0 0 0
493 0 1 0 7.213178581963242 3.1375258766845553 2.856880812839569 1 0 0
683 0 2 0 5.165525775116681 -2.0853657371406333 12.00960056187522 0 0 0
319 0 1 0 6.567977175602686 -4.781878390716054 14.28464676428768 0 -1 0
50 0 2 0 4.8158650276817685 -0.7425420826791393 15.208975745693488 4 6 0
583 0 1 0 6.998114641344122 3.1238693253154057 5.569609639368335 -1 1 0
562 0 1 0 7.173376168635584 12.131537423730077 12.421001056145133 1 2 0
892 0 1 0 -2.896358182683776 5.352736380624383 10.866918264380113 2 2 0
865 0 1 0 4.554095131504232 8.634556084271058 2.853868350665242 0 3 0
995 0 2 0 -1.1924977731565192 7.086331049769522 13.380152460375628 -2 0 0
106 0 1 0 -3.343684550946649 16.654324256901905 9.258247770873052 1 -1 0
350 0 2 0 4.299804783066605 14.418148019148264 -0.0543844909328659 2 0 0
871 0 1 0 2.0195451954716823 14.724221929391772 10.454334405995072 -2 -2 0
1015 0 1 0 0.7271640008382314 9.21231512121997 14.1324493096151 0 -4 0
1641 0 2 0 8.962377869635498 6.4344817098311955 8.15435360157314 1 1 0
1064 0 2 0 -2.0120963103059184 12.407566833724891 0.9296715857329154 -2 0 0
904 0 1 0 5.563916256686031 3.7311137795661917 12.778595273487648 1 -1 0
1296 0 2 0 -4.772791749928615 14.373372798830225 3.3105523037490885 0 0 0
723 0 2 0 -1.2258572780875852 4.599425338622678 15.59649728495574 0 1 0
926 0 2 0 0.5278246792417072 12.383355062267643 3.904245177513115 -2 -1 0
279 0 2 0 5.40989297301067 18.465481133955336 6.404465962066922 0 -1 0
1027 0 1 0 0.15701520555478177 0.2210303010355159 10.354988853225656 1 4 0
1186 0 1 0 5.29436780535705 10.102317691086988 11.543540320625837 3 2 0
2198 0 2 0 -3.1842320612829558 14.84760483632032 0.5964323497704123 -1 -3 0
1156 0 1 0 7.441492823295953 12.749590070601831 7.175717726144624 1 0 0
262 0 1 0 4.32041119771523 -2.645031500877921 8.11002556379651 2 -1 0
2307 0 2 0 5.478966379413649 5.906189645678836 5.279217371739252 0 2 1
632 0 2 0 4.5370972507540595 4.765069795774981 7.558638607185879 -3 1 0
579 0 2 0 9.404553464391972 8.193448412211454 9.80302723524683 1 1 0
1016 0 2 0 0.1380639161048524 9.707570364046386 14.774809091225379 0 -4 0
2227 0 1 0 4.606436881508081 2.987383894921608 1.4400343400341704 2 1 1
1117 0 1 0 2.0944290149070817 -0.21857149555371747 7.640516562134156 0 -1 0
1047 0 2 0 10.420407363610213 10.91518948672495 0.4486308079194856 -3 -3 0
1017 0 2 0 1.044922933636408 9.926280997045957 13.517685819833197 0 -4 0
953 0 2 0 3.425323461726824 5.040535571310613 3.5301994528001055 0 0 0
786 0 2 0 7.934516617033268 10.071218850441989 2.807199870528761 0 0 0
365 0 2 0 2.9327438985610037 8.843460183378042 13.150401364049934 1 0 0
527 0 2 0 1.515062562169785 11.39747661923609 0.22827132004850625 0 5 0
1340 0 2 0 6.383916192759108 -2.2344993607006707 9.58345946801992 2 -4 0
825 0 2 0 4.657377964784561 14.024277573634752 11.450986451092904 2 1 0
2568 0 2 0 0.511227035033998 20.060694702566558 1.4876458457400092 -2 -4 1
757 0 1 0 -0.5812507614616709 10.713302350758742 9.20541068545869 0 3 0
2439 0 2 0 2.637727596923774 8.05238042111162 2.892536518630527 2 -2 0
31 0 1 0 1.355510992736918 12.111312766768902 10.982094420063897 -1 -1 0
902 0 2 0 -1.6420266097473044 17.808761231295062 6.8368915935270715 1 0 0
925 0 1 0 0.2042100363776368 12.854801541811305 3.1282688769452833 -2 -1 0
336 0 2 0 -2.046982358458423 14.839851929720718 14.526890953753634 2 1 0
563 0 2 0 6.77438993619591 11.306065743271335 12.320660937328514 1 3 0
1083 0 2 0 10.540635400712624 0.019680775026615915 2.9349534219993356 0 -3 0
1046 0 2 0 9.18829862230948 11.889211915943903 0.4471194405816361 -3 -3 0
984 0 2 0 4.870438364512421 7.36506627309286 13.520805362524714 -2 -1 0
982 0 1 0 5.6226586616782255 7.0889882844946435 14.062657086660606 -2 -1 0
707 0 2 0 1.7525200290631084 -2.6957466170856357 9.73319625237519 0 2 0
1004 0 2 0 3.4794092908764145 10.287406405284647 0.4330135579333865 0 -2 0
2300 0 2 0 -1.897095227576514 20.242121082703374 -0.6157169235809505 0 -1 1
510 0 2 0 -0.7383758095169995 17.590703492958134 2.516293956173352 1 -1 0
2234 0 2 0 12.37645439091912 3.8999952508745763 2.1568505306089 0 0 0
1248 0 2 0 11.667731998470916 4.674525400140802 0.18763970329351176 3 5 0
494 0 2 0 7.162867527146268 3.08651906044714 3.8402812081873083 1 0 0
190 0 1 0 1.8928688469581112 16.341692874549818 12.754354456707125 2 -1 0
548 0 2 0 10.29635932741861 -1.6620570786077713 7.365944979740929 -1 -1 0
170 0 2 0 8.85807395105267 3.191459894264763 10.175068953467068 1 1 0
1031 0 2 0 5.033179874607104 19.202922771312885 0.2780463265749078 0 -1 0
855 0 2 0 4.706283423022409 11.085524122620406 9.961199942876046 -3 2 0
695 0 2 0 4.249134835850188 5.975644370351267 14.55830249196755 0 3 0
405 0 2 0 -2.9351056284955344 11.935612896846745 8.208448568065807 0 -2 0
93 0 2 0 4.209523889706745 1.8362302761125173 6.4934642632188515 2 2 0
802 0 1 0 0.9367795054082022 3.9776675192515754 6.619092241722673 -2 -3 0
1713 0 2 0 -3.158930014732439 6.331574238433596 14.289081674390669 -1 -2 0
385 0 1 0 -1.3571464514094291 1.3435053249139504 7.754131219229874 3 2 0
1198 0 1 0 -0.2709601084512004 -1.1107104822131006 6.583124666520325 -1 0 0
438 0 2 0 9.143692172153921 -0.7851747137819998 13.387609275926897 1 4 0
747 0 2 0 5.608175656434339 16.130814392061623 6.7893977130043 -1 -3 0
2305 0 1 0 5.710405672757768 5.524734846009128 6.160796513915096 0 2 1
1210 0 1 0 -7.03499487686704 15.839358024842962 11.968562479198809 -1 -3 0
891 0 2 0 1.9455214660099656 9.615808065974335 10.48102905498704 0 1 0
927 0 2 0 0.994300506641073 13.195852013936875 2.6188920409978866 -2 -1 0
499 0 1 0 0.12205265164360422 9.528702775400124 2.3509056239019595 2 -1 0
1316 0 2 0 0.15096856348876628 4.367362121547817 9.34469881378827 1 -1 0
673 0 1 0 -1.4026335046669423 8.011234887181544 10.263969182247452 2 1 0
667 0 1 0 0.44031077869991064 0.17027049987935694 14.05371437965563 1 1 0
630 0 2 0 0.5349498397500284 2.65327429329181 1.0680156951595776 1 -1 0
1157 0 2 0 6.9700182542434845 12.137204650009949 6.661977690359955 1 0 0
192 0 2 0 0.9310951957087862 16.371644072506218 12.912434880078518 2 -1 0
1049 0 2 0 12.152561878752117 3.6177671140284726 8.577541164149828 0 4 0
1028 0 2 0 0.8519856107728981 0.2059689462310339 9.709899811367555 1 4 0
166 0 1 0 10.294320938531202 -0.8703063045997457 11.954762267121687 0 1 0
32 0 2 0 0.5423647466138384 12.055851915517412 11.523539655445113 -1 -1 0
2279 0 2 0 -4.634219003121524 11.213938039347912 13.73052951056004 0 2 1
213 0 2 0 -4.2875481112785545 10.215024778698293 1.3196496281810925 -1 -1 0
1352 0 2 0 13.993204952122051 -1.7780865435774857 8.639084523812706 1 0 0
1223 0 2 0 11.433059369296153 3.882322229838108 4.070250410039576 1 1 0
584 0 2 0 6.296319419988951 2.5724259006816266 5.899171808017695 -1 1 0
730 0 1 0 4.942623501972738 7.686203277804214 10.499931348311462 -1 1 0
160 0 1 0 -0.5257260665287788 6.1497336465131855 8.521293683677332 0 -1 0
196 0 1 0 -0.649944986204503 11.689331289839796 12.859458329606056 0 -1 0
5 0 2 0 2.9487512574659456 1.6833857533969288 10.872692918633117 0 1 0
2357 0 2 0 7.651993552543347 9.402946415195927 10.611256307972681 2 2 1
1285 0 1 0 5.626507273887548 2.438896059014493 9.672348535569817 1 0 0
574 0 1 0 3.802179932038598 5.328474836072443 -0.27352719027694383 -1 -4 0
775 0 1 0 0.2795020144456743 6.725665234214509 12.445919604393321 1 2 0
1030 0 1 0 4.4912608801439475 19.580709388913636 -0.410128865550286 0 -1 0
517 0 1 0 -3.814468497579244 14.013204511696074 4.964166780664858 0 -4 0
605 0 2 0 2.917012353816555 13.578268822592541 1.4071976027939734 -1 0 0
1136 0 2 0 1.865940582011926 2.6115411516941354 9.044764364166216 2 3 0
526 0 1 0 2.09920421398061 11.099519520088867 1.027600128571902 0 5 0
91 0 1 0 4.987967457152451 1.4559139191081325 6.875457938061992 2 2 0
1191 0 2 0 -2.6231145946846035 10.591953538548452 3.941929591097165 1 1 0
1115 0 2 0 3.605716955341415 9.157084634128879 6.407548726745054 0 -2 0
824 0 2 0 5.278832719214049 12.815810342783859 12.034154063554572 2 1 0
785 0 2 0 6.662104491363417 9.161597729014332 2.6769109582653714 0 0 0
528 0 2 0 1.4375605998967267 10.5886322018759 1.5114839878247626 0 5 0
539 0 2 0 -4.870713558177221 9.047120199834904 9.939665967288855 0 0 0
525 0 2 0 12.22312649367507 2.1367683449210917 5.288742820195072 0 0 0
803 0 2 0 0.3249297633664076 3.4560444760816367 7.162678711800832 -2 -2 0
1242 0 2 0 -6.958130333075692 13.514887996158354 14.628309503905154 0 -2 0
58 0 1 0 3.64918178672701 2.2526241901275244 14.080937361700183 0 2 0
155 0 2 0 -0.4182027210794993 9.726893196138537 7.606189003089344 0 2 0
355 0 1 0 8.960525882342209 6.84259538849903 15.405866826124553 -1 0 0
581 0 2 0 2.3944706607745156 18.799554890265227 5.323275248841971 0 0 0
298 0 1 0 2.5420604737316026 17.069960380110338 7.215782374395703 0 0 0
921 0 2 0 -1.8473194103406203 4.375922751147393 2.338890446410432 -2 0 0
244 0 1 0 6.176373112512674 11.919400677353362 0.6154252772487427 -1 0 0
2235 0 2 0 12.322032244177807 2.483235203242844 1.4525246168552708 0 0 0
105 0 2 0 2.464121454250541 11.426576230859043 12.342759302893363 2 -1 0
770 0 2 0 -4.495494181122649 16.278183886934045 4.624397448360851 -1 -2 0
843 0 2 0 2.41550608389709 0.9432584698258633 -0.4008042922608403 0 2 0
2444 0 2 0 0.5685332402660159 5.957198504969974 15.056695909824818 1 0 0
1177 0 1 0 -1.8370085733130732 7.471442544518096 5.259032992324191 4 0 0
224 0 2 0 11.726637951594558 5.913225600276995 8.095670114025804 0 0 0
944 0 2 0 -1.1227333321563533 15.865911255741604 12.223218137486421 -1 1 0
890 0 2 0 2.2385313577868193 8.19397134203262 9.938800119607206 0 1 0
188 0 2 0 4.910622646835719 6.994827735961683 3.3753638600714186 -1 0 0
600 0 2 0 7.551046307788979 7.014198111444882 11.96541827089057 -3 -2 0
6 0 2 0 3.1792338115865366 2.0714775826137997 12.421999373349529 0 1 0
835 0 1 0 7.482410602728043 0.5008696799712459 -0.7722954188347823 1 1 0
394 0 1 0 5.562552896910093 11.900713035838365 5.404351654364685 1 0 0
1521 0 2 0 11.344711311569862 1.421376680045015 -0.6959720100311828 -1 3 0
798 0 2 0 -4.387156460674076 12.234753845774756 11.705700639307484 0 0 0
629 0 2 0 -0.9432049078878314 2.3033618043754567 0.8836427142659105 1 -1 0
1052 0 2 0 2.1587678363733946 5.032853183429718 0.5224782713030138 2 0 0
223 0 1 0 11.498535935225778 5.174150103879824 7.491511346380792 0 0 0
89 0 2 0 2.061035348066349 15.023079044902222 4.657806312357617 1 0 0
818 0 2 0 6.747980210728603 11.846356633175038 3.883641956484552 1 1 0
2243 0 2 0 7.3149259870963625 1.5116639917185168 2.337541912807628 2 -3 0
1278 0 2 0 11.399150002376103 4.937355019085799 11.511946874056532 0 1 0
154 0 1 0 -0.35599301543305134 9.43897455071342 6.695682278065606 0 2 0