LAMMPS data file via write_data, version 23 Jun 2022, timestep = 10246000

2592 atoms
2 atom types

0 31.157 xlo xhi
0 21.485012 ylo yhi
-0.8487648960893921 32.60493288818414 zlo zhi
-9.195174 0.7702769031322203 -11.270862609751292 xy xz yz

Masses

1 1.008
2 15.999

Atoms # full

963 0 2 0 7.253739781515033 3.2989103727711484 15.578391442447302 0 0 0
298 0 1 0 4.236549870396305 10.331233619194895 14.194980705735784 0 0 0
505 0 1 0 3.474147990767762 12.72753017747958 0.8069259543775862 0 -1 0
1263 0 2 0 -6.5874096576577905 15.347612202884228 9.56748212644045 1 0 0
1045 0 1 0 0.2839942460131807 4.8986342761903625 12.494739396282624 0 0 0
870 0 2 0 -0.04747540956770286 6.682419046019622 0.6683498275046766 1 0 0
908 0 2 0 -2.4980224775592004 15.60734410876995 12.021703580090316 0 0 0
2460 0 2 0 8.222467192662071 0.38257465531075685 -0.7539901077880711 0 1 1
308 0 2 0 13.33971813114343 0.9173886910902671 7.677232601939 1 0 0
517 0 1 0 4.28927699546869 -2.042086612310952 13.114860310510814 1 0 0
560 0 2 0 -3.032376601851856 12.146089794115118 10.695332143104476 0 -1 0
1593 0 2 0 1.8587703002819935 14.652386698950846 15.812580780866806 0 -1 0
397 0 1 0 1.2485757616280797 7.548855723920909 10.486368044003772 1 1 0
986 0 2 0 1.2067801751903084 11.04875697705868 14.525325343155142 -1 -1 0
1214 0 2 0 9.73160453384076 -0.7184422429727384 14.874327205799567 0 1 0
483 0 2 0 6.619398455814825 15.42932799464178 8.00884716496126 -1 0 0
1162 0 1 0 -0.5854345041130062 3.509425790665834 5.374870418535937 0 0 0
32 0 2 0 -0.9688058238376953 6.823339954823004 15.419993916801072 0 0 0
718 0 1 0 7.322321238962231 8.799707097154123 7.880777582637494 0 0 0
221 0 2 0 1.5168109858569125 11.524327304893223 9.460751433425749 1 0 0
479 0 2 0 -1.6534298185575649 18.620386453719004 4.7982530751018695 -1 -1 0
990 0 2 0 5.433598283965899 19.956940732252516 1.1727411240686276 0 -1 0
506 0 2 0 4.078484492874672 13.504882751063253 0.9694284329884337 0 -1 0
1065 0 2 0 -1.3934867625274787 1.7894554327997447 5.380188373362738 0 1 0
507 0 2 0 3.6744823667298614 12.066314017797373 1.5082916789413456 0 -1 0
239 0 2 0 12.857601392093041 0.5433703331068429 12.652741955115637 -1 0 0
388 0 1 0 -5.501600060208791 9.871290160676656 9.773112225629337 1 0 0
436 0 1 0 5.520297989858641 -4.275338765045936 15.306293050381385 1 1 0
531 0 2 0 6.315598690817286 15.025517339389681 14.233884814734377 0 0 0
418 0 1 0 13.374438446799278 -4.417397879180843 15.38262834597963 1 -1 0
43 0 1 0 4.615606193216528 0.4392436026127564 5.784579023597383 0 0 0
2186 0 2 0 2.7954728221663094 10.052647605167472 2.74572479690439 0 0 1
898 0 1 0 7.703856682903777 7.4765120974941865 3.865310927104696 0 0 0
349 0 1 0 -2.821121389307956 11.213691005143488 3.797211623809278 1 0 0
319 0 1 0 2.633869124718287 10.059891586840159 6.83559349086671 0 -1 0
747 0 2 0 12.8424318480744 2.489135628187663 2.6840912994312793 1 0 0
833 0 2 0 -1.3762004782746307 10.713518847629675 7.251351621026977 0 1 0
869 0 2 0 0.9856888771669191 7.771213872727271 0.28424726135348655 1 0 0
1124 0 2 0 4.731286485881607 5.665649136577732 3.9128184252943106 0 0 0
993 0 2 0 10.819665661949106 5.160846524621184 10.614343484031012 0 -1 0
2259 0 2 0 -3.464569017134167 10.692671829482183 14.917917363399123 1 0 0
90 0 2 0 -2.2261251815273293 13.317786241092755 15.229193453613124 1 -1 0
691 0 1 0 6.272390379174684 7.700175379800851 15.40426201032465 0 -1 0
2439 0 2 0 0.30957992135991147 1.2464866764164158 -0.0465269419013703 1 0 0
787 0 1 0 -7.514270249065781 15.08803587890592 12.648495631878388 0 0 0
1240 0 1 0 8.248984462188336 3.337028913012074 7.725472137602148 0 -1 0
1047 0 2 0 -0.12837501065724566 4.804353470652356 13.32819429741809 0 0 0
375 0 2 0 7.960839675546255 9.651559589286995 9.711525267527854 -1 -1 0
988 0 1 0 4.572708735282727 20.157388294361304 1.6002094559967337 0 -1 0
1699 0 1 0 -4.830271421959588 18.890804785764075 -0.23022312502060216 0 0 0
769 0 1 0 4.874757061719457 13.34049680190232 15.514941871665648 0 0 0
52 0 1 0 -1.8584290425275616 11.880267253855703 0.16590885749935524 0 0 0
829 0 1 0 -5.129234604259661 14.85054604968587 14.939958734411752 0 -1 0
546 0 2 0 -2.513612867683288 4.799540212097607 10.312158626770838 1 0 0
926 0 2 0 0.28880795850144414 3.0604077381817363 8.8543201046694 1 1 0
819 0 2 0 9.670286583411734 1.8017426777457244 12.012940529188395 -1 0 0
1094 0 2 0 4.9902448214238735 15.769759924878041 4.080916066794937 0 -1 0
778 0 1 0 2.807423570896405 7.76903077786292 14.167491492774447 0 -1 0
702 0 2 0 0.5988529145296062 14.731828011197372 2.3438695152745446 0 0 0
450 0 2 0 10.212361106486924 7.864326528382187 5.5956712259208645 0 0 0
951 0 2 0 15.3837843232071 -2.901445868646267 8.155716818081757 -1 0 0
352 0 1 0 7.364518472919551 4.066021671057845 13.400813561234024 1 -1 0
525 0 2 0 -1.7881233093280882 6.91361173875867 3.846082562363965 0 0 0
887 0 2 0 3.763388367765055 -1.0001962555120887 14.853174477658973 0 -1 0
1093 0 1 0 5.682934099655122 15.959415052170357 3.3818419369402957 0 -1 1
2 0 2 0 6.9678101729271065 9.325681905194083 15.197726347110962 0 -1 0
843 0 2 0 1.6352683761956366 -1.1787163138560626 15.173018489447188 0 0 0
473 0 2 0 6.906325790194465 11.599361115072849 9.319499320040865 0 -1 0
1095 0 2 0 5.982839087600606 16.8786618217984 3.4829361702747486 0 -1 1
98 0 2 0 -0.831035011773025 -0.2726954362129139 11.519093355701532 0 0 0
16 0 1 0 5.765857473950396 9.655190129654303 4.1483628006771704 0 -1 0
329 0 2 0 10.55383588536334 5.083619423835361 8.235424479255686 0 0 0
194 0 2 0 6.971644462533225 8.438450240263728 0.6353293214020022 1 0 0
925 0 1 0 0.6859243587060189 3.9464469051923343 8.788860504070124 1 1 0
1164 0 2 0 0.37214689286430924 3.3677159326053996 5.406098772319986 0 0 0
396 0 2 0 9.416954609609839 -1.6436942154382397 5.755338069202352 0 0 0
1116 0 2 0 2.76798376577169 5.82500285832754 0.4844418926103746 0 -1 0
2162 0 2 0 6.33695884069002 4.219551712287361 -0.7212198482685287 0 0 0
663 0 2 0 1.1060766036625824 8.371616266865338 3.8116391704885206 1 0 0
2257 0 1 0 -3.584264912086803 10.365543425695723 14.012728669192432 1 0 0
788 0 2 0 -7.269554018944652 14.180659928190444 12.873245518391885 0 0 0
341 0 2 0 -0.17393837827490063 18.785163999833472 -0.3274328389402339 1 1 0
47 0 2 0 2.4485516265224843 -2.220245169605776 7.904709605351275 0 0 0
1172 0 2 0 7.911798295709775 2.230090312909688 13.381491071445627 0 1 0
841 0 1 0 0.6883777688887628 -1.4254243382388916 15.21710239593952 0 0 0
489 0 2 0 3.406147361387938 16.628827560147982 11.731149408772993 0 -1 0
330 0 2 0 9.483226257886955 6.14912436293805 7.928104359528614 0 0 0
633 0 2 0 -1.4163171023297114 8.98068203564219 8.770604383403462 1 0 0
374 0 2 0 8.47362519917218 10.476846339226597 10.845884530515733 -1 -1 0
300 0 2 0 3.416761110400973 10.89112507990264 14.41518999326152 0 0 0
3 0 2 0 7.042224818247915 10.864011140085934 14.916548547905252 0 -1 0
51 0 2 0 11.334316095332847 2.6582379161278906 8.98590507483081 1 1 0
873 0 2 0 8.201480888825818 9.087545212549548 2.3877865812942587 0 0 0
9 0 2 0 -5.621007692286546 12.657198427593547 6.443070615968918 0 -1 0
125 0 2 0 0.771098041614261 16.96183370151087 10.37108553368514 0 -1 0
1070 0 2 0 12.018738197301566 -0.38963180261893715 15.291548707989158 0 0 0
1140 0 2 0 9.261843379305597 9.599039648117028 14.935119584172634 0 -1 0
536 0 2 0 -3.3244792993111094 10.240126694982742 12.296250659881338 0 0 0
312 0 2 0 10.36407291479488 -1.1114879294948565 11.646065712448546 0 0 0
1483 0 1 0 7.303431077086333 -1.1101767354086252 7.993910294198892 0 0 0
698 0 2 0 12.154357208505054 0.6280301115134719 -0.39409275279482536 0 1 0
448 0 1 0 10.408556861488279 7.254715447443974 4.884445193559814 0 0 0
394 0 1 0 8.5201950326964 -1.55782214333183 5.455015853344241 0 0 0
886 0 1 0 3.272559503525048 -0.8165986006332844 15.683216170042428 0 -1 0
1114 0 1 0 3.423639615218584 6.474923624618821 0.7278934690573895 0 -1 0
509 0 2 0 1.3992577975575506 8.440458879720882 13.425062298848681 0 0 0
398 0 2 0 0.9048269407036018 7.77746438565978 11.355811645302646 1 1 0
1221 0 2 0 3.453153917515182 15.317693711128047 5.9041753815539435 0 -1 0
581 0 2 0 5.42759040304466 1.9412816210206643 14.410063456259682 0 -1 0
1178 0 2 0 0.5094163980869515 -1.9769980680911572 11.971439802287751 0 0 0
1141 0 1 0 -1.666121727439373 9.27036166834508 0.33812321363880216 1 0 0
510 0 2 0 -0.08992929383696974 8.547231861371554 13.870223672229013 0 0 0
281 0 2 0 9.237407776462039 13.498092580821448 1.1406263707271318 0 0 0
920 0 2 0 4.983100985172304 10.252845715537525 12.360501365695882 1 0 0
1207 0 1 0 9.971876323815327 -0.8306426501791662 9.92919877066345 1 0 0
1254 0 2 0 9.889757260478842 5.601951531716053 12.718343365136905 -1 -2 0
307 0 1 0 13.48540819038664 1.6288350528996105 7.016861517127214 1 0 0
464 0 2 0 11.440168420417448 -0.6784907004484014 4.044104770287016 1 0 0
232 0 1 0 5.651587386730772 9.457941392959405 0.26166257864440956 0 0 0
911 0 2 0 1.2293980847407817 16.734590748821137 2.3813020539944914 0 -2 0
535 0 1 0 -3.2204503195168828 9.801388418532934 11.387094721132009 0 0 0
285 0 2 0 -0.7141836689774228 13.760732407057656 7.606020072264727 0 -1 0
124 0 1 0 -0.16407980415489087 17.20018042958029 10.504480183068111 0 -1 0
632 0 2 0 -0.11857669709241775 8.256606531832205 9.345564821958089 1 0 0
372 0 2 0 5.19132458601182 2.3140585399400555 12.11615257514051 0 0 0
273 0 2 0 -0.06019105967870586 6.401096649654978 5.351678827690429 0 0 0
1029 0 2 0 3.9392768239231133 5.1795071044230285 13.142062356498858 1 1 0
867 0 2 0 10.796571380182124 1.3287503397823248 5.133591385428988 0 0 0
701 0 2 0 -0.4517349869253019 15.418221436363808 3.383297984345594 0 0 0
917 0 2 0 1.7244833508709723 -0.15882939853285105 6.344985904041192 0 1 0
508 0 1 0 0.4971511724415325 8.712826177271292 13.087749064772638 0 0 0
2307 0 2 0 3.4880106478508495 11.599013038294816 -0.6887010878661292 0 0 1
280 0 1 0 8.464547635956793 14.027645237683235 1.3267358493318113 0 0 0
2414 0 2 0 3.3362839628451577 5.673277239713132 9.808179750770467 1 0 0
1160 0 2 0 -4.875169156822657 19.430936868918533 2.7235213879768865 0 0 0
982 0 1 0 -2.4109426793237385 15.392839676839982 3.675175825710248 0 -1 0
821 0 2 0 13.384833306654071 4.305661239059442 1.3050406555136198 -1 0 0
815 0 2 0 5.43397661228092 3.5044171985891044 10.138221775920803 0 0 0
1253 0 2 0 9.23814163352855 6.935873213166354 13.25219697334708 -1 -2 0
1701 0 2 0 -5.248116008308086 17.98811826897214 -0.15081557412982183 0 0 0
1152 0 2 0 5.253244695230139 5.617889591755209 0.6718854663704334 0 0 0
910 0 1 0 1.5540204204461678 17.52203772903107 1.8958919206024007 0 -2 0
709 0 1 0 0.3809637047376656 2.2687418311523766 11.60314217445718 1 1 0
316 0 1 0 4.689737655287355 3.3172289727813205 5.779145596602179 0 1 0
487 0 1 0 4.135556623952889 17.218870206307546 11.68992965041523 0 -1 0
238 0 1 0 13.296327883755339 0.7100646747636237 11.808902444834 0 0 0
534 0 2 0 6.5999129209689755 11.350524874529958 2.258061528254572 0 0 0
973 0 1 0 2.2132234206870947 4.397979760727951 6.6339637840474595 0 0 0
18 0 2 0 6.417502423738114 8.983767851423549 3.9964957539051236 0 -1 0
420 0 2 0 12.723727372501301 -5.158486350696716 15.421312591338076 1 -1 0
201 0 2 0 9.590721250789194 11.898650295301207 4.691742171567041 0 -1 0
1177 0 1 0 0.7857476564151556 -1.2798530478947892 11.391351460043332 0 0 0
1196 0 2 0 -1.3092275062316396 15.370333790673055 9.389853113336041 0 -1 0
468 0 2 0 6.850021660737595 -3.1321010119046626 14.22280120652751 1 1 0
868 0 1 0 0.1927768422907258 7.568491497082746 0.818667319840757 1 0 0
1265 0 2 0 10.644367008985853 -3.757905739472543 15.311919614010463 0 0 0
164 0 2 0 -2.9088130174297677 20.29910205437644 1.665520998024399 0 -1 0
1186 0 1 0 1.5006598231110844 11.9522865636484 5.160297620519812 1 1 0
1133 0 2 0 -0.00851232627927967 2.6850149130921475 15.397292291198667 0 0 0
559 0 1 0 -2.5903829865620733 12.66607369889618 11.354975638061346 0 -1 0
357 0 2 0 4.672479141701042 -2.5633477000106546 6.97828271924852 0 1 0
494 0 2 0 -4.622681846579134 16.464657790858126 8.431014657387001 0 -2 0
443 0 2 0 8.992094134314597 -4.439445985371275 14.139002290632448 0 1 0
1192 0 1 0 3.265373430347834 7.371090456293484 5.89199533104572 0 -1 0
493 0 1 0 -3.973988355893086 16.377060954371554 7.762980138092949 0 -2 0
834 0 2 0 -0.7422221833523915 11.539386716454004 8.415920446980085 0 1 0
33 0 2 0 -2.1202223156503 7.55616560249599 14.519087720495452 0 0 0
863 0 2 0 5.956712315533091 11.01392941076346 -0.7780989212797348 0 -1 0
50 0 2 0 12.490662002259077 3.5888869496390314 8.470373079241485 1 1 0
224 0 2 0 9.608953132849736 1.3231144754285749 0.7449917025073522 0 1 0
1220 0 2 0 2.654216534528857 16.541649288617585 5.668954609396817 0 -1 0
686 0 2 0 -6.350527270182301 16.580066038351244 13.391646522208214 0 -1 0
354 0 2 0 6.491439392750635 4.499104006092718 13.341438547743119 1 -1 0
987 0 2 0 1.8434623941167216 12.018843776013586 13.511733949046652 -1 -1 0
34 0 1 0 -6.658363916200357 12.47551978727056 13.750460352881783 0 0 0
311 0 2 0 11.4258739682119 -1.3936142924622468 12.839044157251767 0 0 0
38 0 2 0 8.822530751489303 8.189866433844635 11.806140985423442 0 0 0
1151 0 2 0 6.302199721505764 4.52663937023147 1.2529826871120555 0 0 0
524 0 2 0 -2.0728009439747415 8.174274870897763 4.589252016312486 0 0 0
1292 0 2 0 2.8418867844868494 15.32389008756297 8.676019315507364 0 1 0
704 0 2 0 4.354775657376416 1.559346258438161 2.7309206289106274 -1 1 0
1555 0 1 0 3.487648030660011 12.904744495936763 11.194603983284493 0 0 0
1129 0 1 0 -0.2094503857365443 -0.9826421959989706 8.963241300201094 1 0 0
1213 0 1 0 8.744985614944806 -0.7976492848951953 14.801580517243508 0 1 0
1293 0 2 0 1.8712976863471102 15.85970990708212 7.664602629167687 0 1 0
1700 0 2 0 -4.478102889040477 19.048552388269314 0.6663064359905388 0 0 0
764 0 2 0 3.744119278464329 2.5077558467301104 15.11957276370529 0 0 0
368 0 2 0 2.0933226028278282 9.150016462364446 10.128098030839976 -1 0 0
1076 0 2 0 9.370679635736186 4.898781772663675 2.2649380286011973 0 0 0
260 0 2 0 -1.0272146502561608 10.99327287174648 14.486227297310972 1 0 0
903 0 2 0 6.044407597220206 17.06748261189327 6.546114145114515 0 0 0
647 0 2 0 7.062362463766321 -5.297674411056005 15.234197322925546 1 1 0
348 0 2 0 8.665613206420375 12.115532489910716 6.398142042810335 0 0 0
1002 0 2 0 4.9456089095149 15.398477192360996 12.286684080313462 0 0 0
409 0 1 0 -2.1268419646608767 4.338971861801216 13.815946828238195 1 0 0
249 0 2 0 2.8716434061859 19.107427210882978 5.239656961144291 0 -1 0
974 0 2 0 1.6204137750571692 4.413344969173816 7.383586079999869 0 0 0
27 0 2 0 -4.2124789981048085 8.411092735091092 7.036327471730285 1 0 0
145 0 1 0 0.8198677911579804 6.003980916776913 15.599430404778811 0 0 0
1126 0 1 0 9.630228665556567 9.192746694707653 6.477862049267893 0 1 0
1041 0 2 0 7.459238519433678 7.150634665245349 7.220908288951284 1 0 0
165 0 2 0 -1.399733931047362 20.429610542337155 1.0536802638551697 0 -1 0
156 0 2 0 1.6917645773433103 12.529520846086903 11.461610454863047 -1 -2 0
526 0 1 0 1.6717011092019318 4.623067761750793 -0.27076338808390965 0 0 0
220 0 1 0 1.1159750670953403 12.333418092301482 9.102292132745044 1 0 0
48 0 2 0 -7.181821172544259 17.983268427574586 8.681562880682202 0 -1 0
599 0 2 0 10.788761436069073 6.347692271846682 1.58530082970332 -1 0 0
126 0 2 0 -0.4882347401287559 16.773502793834407 11.352483496805153 0 -1 0
37 0 1 0 8.364910571142973 8.434392109210034 12.66527869255785 0 0 0
1171 0 1 0 8.372459092215026 1.3911794023497963 13.157886229292151 0 1 0
284 0 2 0 0.05221818384203575 14.305892297598897 6.41096954022637 0 -1 0
6 0 2 0 2.700245078064019 2.2815271561787323 7.059926835903995 0 0 0
1007 0 2 0 6.600321929961336 1.28553659492081 6.0835527632490285 1 1 0
765 0 2 0 2.1664212290786473 2.3183835083395277 14.81961338593257 0 0 0
831 0 2 0 -5.891667466073227 14.689239423237202 15.561639502875217 0 -1 0
54 0 2 0 -2.165807144156317 12.124310470756594 1.036800577161483 0 0 0
527 0 2 0 1.4330002977674479 3.706725887719078 -0.0907546687843146 0 0 0
46 0 1 0 2.7952171948360434 -2.9651765723984704 8.471690955783556 0 0 0
322 0 1 0 -1.3622043140645592 9.913700356717854 5.499327996464292 1 1 0
370 0 1 0 5.034421332613188 1.6814609425271287 12.880466846110943 0 0 0
248 0 2 0 11.647149683200723 -2.3241758510671775 6.750331990147486 0 0 0
1448 0 2 0 4.042945652835998 6.8636780303611715 7.5820135768534005 1 0 0
160 0 1 0 9.589816817481744 3.448719487009142 3.0769193986774845 0 1 0
463 0 1 0 11.057563741047202 0.023324216498844086 3.5461254429304647 1 0 0
1027 0 1 0 2.988049152510733 5.002218012385039 13.33321730918069 1 1 0
356 0 2 0 -3.52075205621762 18.942358004343486 5.805272248685129 0 0 0
828 0 2 0 11.711876198761257 2.2979541191357145 14.732457028613835 0 -1 0
431 0 2 0 0.10326129510342752 1.4599430123863772 13.226965299592079 0 1 0
1127 0 2 0 10.200591468689124 9.460320936243866 7.224868260733109 0 1 0
1281 0 2 0 10.552953355931018 5.406711676891424 5.362400134867676 0 1 0
467 0 2 0 7.792675037861942 -1.9394122469658464 14.109171113690934 1 1 0
1261 0 1 0 -5.9650275525971335 15.952994180857983 9.972372412144624 1 0 1
395 0 2 0 8.402975171376692 -1.0296587697607351 4.7069927742850295 0 0 0
1201 0 1 0 3.100183863727391 16.501152730635223 -0.18810526498130586 0 0 0
723 0 2 0 2.562042536767156 -4.041993818682978 15.492103085168214 0 1 0
61 0 1 0 -1.5115555759200126 5.999815816697678 10.911693607115744 0 0 0
67 0 1 0 11.698735095634548 -2.72212089025163 8.453831988720982 0 0 0
1199 0 2 0 7.818943781404883 1.0132818411528788 4.079964880518574 0 1 0
1591 0 1 0 2.573943785771081 14.691587295717538 15.17424837899694 0 -1 0
912 0 2 0 2.348438717504278 17.792203265321213 2.3813210846830195 0 -2 0
36 0 2 0 -6.877510986017723 11.767442050445174 14.394667192218847 0 0 0
1159 0 1 0 -4.120072666111831 18.855521126746783 2.3951133726430713 0 0 0
496 0 1 0 3.551563252153943 13.58425821972244 6.106366757823161 1 0 0
187 0 1 0 10.020572846359293 1.3475280575792636 8.300288437967586 0 0 0
580 0 1 0 5.399199173299598 2.1983795165818094 15.362987788556541 0 -1 0
196 0 1 0 13.064955682652 1.1919894455237605 14.858787177755481 0 0 0
480 0 2 0 -2.320649529778152 17.27336991447043 4.268166106333324 -1 -1 0
1077 0 2 0 8.566346870194849 6.205614457311823 1.974007162800962 0 0 0
466 0 1 0 7.15201575292955 -2.5476952113737954 13.581017685127335 1 1 0
481 0 1 0 5.98428855505332 15.614408016398865 8.675819072999266 -1 0 0
1209 0 2 0 10.393840309973914 -1.625338565965912 9.576954220684467 1 0 0
550 0 1 0 0.5977024213347846 16.15623513980302 6.162281321928372 0 0 0
696 0 2 0 6.058767810046502 11.921585378829493 12.767019848780118 0 0 0
552 0 2 0 -0.07067844299830167 16.686854397479454 6.698838195412755 0 0 0
422 0 2 0 3.857800523609333 13.441896038877694 7.821195470795232 0 0 0
474 0 2 0 7.341194720247042 12.419369171076667 8.07962786311734 0 -1 0
139 0 1 0 3.141057597732382 19.19972835927297 -0.831055888087193 0 -1 1
1198 0 1 0 8.307169264917418 0.5171155957353546 3.395998158120749 0 1 0
703 0 1 0 5.061175241575526 1.5584704056949596 3.4062910879211428 -1 1 0
465 0 2 0 10.07962624050426 -0.060590813517753306 3.54444954285355 1 0 0
1001 0 2 0 4.995794340794253 13.893187152232601 12.320684020650754 0 0 0
424 0 1 0 7.356916895049085 15.131156508984054 -0.6596589926646654 0 0 0
1135 0 1 0 -4.300900401646796 14.881236054181386 11.919666656060045 1 0 0
269 0 2 0 6.241269025213997 13.423614545227398 3.982110146795561 -1 -1 0
1280 0 2 0 10.768092016210865 3.8815027959873034 5.826518540508682 0 1 0
2258 0 2 0 -4.135485232114026 9.534378400033795 14.182663630791032 1 0 1
1039 0 1 0 7.559738939744977 6.180544519170894 7.28869513213481 1 0 0
865 0 1 0 11.076732321382293 1.9529413974476473 5.880020647606192 0 0 0
1165 0 1 0 0.8380401436052449 13.547442414410748 1.21631424334096 0 0 0
24 0 2 0 -3.0783328833600963 11.485767972835795 8.677435809434485 0 0 0
1167 0 2 0 0.4230265488662703 12.730875086231801 1.61948207416153 0 0 0
991 0 1 0 10.232407438413718 4.850193761290711 11.297719113108705 0 -1 0
705 0 2 0 4.708671324738209 0.999404616821431 4.115175476167509 -1 1 0
992 0 2 0 10.262019993349714 3.8916517623466795 11.2452436542486 0 0 0
648 0 2 0 -0.8347843441408915 15.437465830487124 15.652963463771119 1 0 0
1143 0 2 0 -2.4009316931474696 8.869922488298222 -0.22322041217754718 1 0 0
733 0 1 0 6.781027645565264 4.766768910427952 4.906238340272577 0 1 0
662 0 2 0 0.7463407461793188 8.309336361334667 2.3152191642670727 1 0 1
1081 0 1 0 7.558189324570314 -0.591874114315222 11.481686515760872 1 1 0
2222 0 2 0 9.310655249952529 8.289896552308882 -0.35777781278076415 0 0 1
700 0 1 0 0.4956085721896915 15.396888001328154 3.062038697588453 0 0 0
147 0 2 0 1.4735520915677907 6.479057576928341 15.057987594938105 0 0 0
113 0 2 0 5.4690168593813056 1.9219562991418724 8.761118799030589 0 0 0
1234 0 1 0 14.051291815332666 1.2338936395303175 2.5721441377179097 0 1 0
1235 0 2 0 13.645771603788507 0.35125924091519756 2.376198200984516 0 1 0
1061 0 2 0 -0.5022609393323012 12.664943390785202 13.137142413742787 0 1 0
79 0 1 0 2.6472449558581648 1.486734553964526 10.268677938221247 -1 0 0
195 0 2 0 7.466650436879939 6.95056765337198 0.4307751338985373 1 0 0
694 0 1 0 6.5598738203129985 12.272756829127466 13.471790851047652 0 0 0
864 0 2 0 5.98339735564047 12.32753063502728 0.03630109427663808 0 -1 0
1110 0 2 0 -1.4235966392549613 10.416785656946933 11.312540214913062 0 0 0
351 0 2 0 -2.9085821026168697 12.091581501077776 4.273023376541031 1 0 0
417 0 2 0 8.957947382597549 6.179538637394257 15.353389770583998 0 0 0
592 0 1 0 3.464182153031644 18.558535998835577 3.635196533961592 0 0 0
927 0 2 0 1.342555270876708 4.119179242458053 9.451807440695314 1 1 0
2413 0 1 0 2.677563983192227 5.248341733273261 10.34538919556323 1 0 0
362 0 2 0 -0.8484535052663074 11.754130037159129 3.1750061805598735 0 0 0
62 0 2 0 -1.1770784875618023 6.443535290323613 10.11322416774171 0 0 0
918 0 2 0 0.7742525801620516 -1.2887613453629891 6.055598280638942 0 1 0
20 0 2 0 -0.7752366408268141 6.573583000415036 7.712155753890999 0 -1 0
159 0 2 0 -6.259216209260378 15.650234359906989 -0.4175048644296445 1 0 0
161 0 2 0 8.835918318682936 2.892439542993591 2.8999835938874625 0 1 0
390 0 2 0 -4.911783438733513 10.43678798874939 9.271149417008106 1 0 0
1075 0 1 0 9.323328305433243 5.664798475715492 1.6384911211997562 0 0 0
1060 0 1 0 -1.2841364880821433 12.574359932789667 13.746033705534906 1 1 0
379 0 1 0 -6.397241980768236 20.34925528572564 2.4838765472293325 1 0 0
814 0 1 0 5.374880459056797 3.7050654290259173 11.106451135397943 0 0 0
1269 0 2 0 -6.79687563887136 16.97581084141754 5.89878351063919 1 0 0
1082 0 2 0 7.470557706140346 -1.3147445248314211 12.102894722415515 1 1 0
1484 0 2 0 7.741398276160737 -0.7442095038245187 7.225826500082052 0 0 0
1179 0 2 0 1.786359328310032 -1.2911929942523526 11.386650870587275 0 0 0
283 0 1 0 -0.497073368485608 13.571944911270561 6.699405746043867 0 -1 0
134 0 2 0 6.111789347990738 -0.38269770409518555 8.905004374029353 0 0 0
1 0 1 0 7.508930613561476 10.125555743619183 15.38837080905703 0 -1 0
162 0 2 0 9.70545367943846 3.5957216198523416 4.04176479123908 0 1 0
112 0 1 0 5.639050837724132 2.7845185803923513 8.383675144967176 0 0 0
1223 0 2 0 11.104211195786853 0.10093307831479648 1.7512218474121153 0 1 0
719 0 2 0 6.523770840381463 9.27256913248689 7.6865239781978545 0 0 0
845 0 2 0 9.280740319722055 4.841506958941991 -0.038777101050781804 0 0 0
231 0 2 0 -2.748207887006311 6.004797970513348 7.446979011871104 0 0 0
332 0 2 0 -5.414091558335704 13.065629045551308 3.331862245946791 0 -1 0
2187 0 2 0 4.303019395824408 10.302658319757873 3.02829842230051 0 0 0
495 0 2 0 -4.541855308919022 16.125083607736073 6.9920552814353245 0 -1 0
381 0 2 0 3.145971616724957 -0.3052592221999345 2.1044670888866874 1 1 0
1150 0 1 0 6.195554875222298 5.422108880418255 0.8321829522808166 0 0 0
423 0 2 0 4.7860355293466945 14.264545414206822 8.83471843586054 0 0 0
1188 0 2 0 0.7813436306038223 12.3639998651422 5.64516578165901 1 1 0
233 0 2 0 5.290565799028841 8.86966323116592 -0.4098375179754974 0 0 0
600 0 2 0 11.326144734972003 7.166168224610331 0.43713303377890567 -1 0 0
1108 0 1 0 -0.4793442445955282 10.430468496797104 11.085622154064048 0 0 0
1252 0 1 0 9.612296245123321 6.094724049895869 13.534604266006578 -1 -2 0
5 0 2 0 2.678692182277344 1.3928114640988754 8.325736141032891 0 0 0
1169 0 2 0 5.594567927844367 6.87089026430785 12.50543498122076 0 0 0
223 0 1 0 8.79365642238958 1.7607368683382376 0.5082966429655356 0 1 0
411 0 2 0 -2.6829255947926045 4.208796796917596 14.641442190054482 1 0 0
687 0 2 0 1.756868453269501 -3.923472883703533 13.469349691117191 0 0 0
405 0 2 0 1.6219329284402693 -0.31613099253263144 3.5591173851704694 0 -1 0
755 0 2 0 -0.6256341320056303 0.7372316606666072 9.097412216359784 0 0 0
836 0 2 0 0.0987121868136735 -2.6986875568491855 13.921013693005571 1 1 0
294 0 2 0 5.531821370380303 11.211396104603578 7.123977313426461 0 1 0
421 0 1 0 3.8920406585693685 13.886031166783022 8.695924946448672 0 0 0
430 0 1 0 0.4838170689941073 1.3243286106247352 14.10947067565303 0 1 0
646 0 1 0 -1.2544851744770567 15.919408140003501 14.919531316565065 1 0 0
342 0 2 0 0.6139271868072373 18.774661334380667 0.976481317892727 1 1 0
44 0 2 0 4.833665437708519 -0.5105429517987998 5.92172149084946 0 0 0
716 0 2 0 13.279804343922349 -0.15802542341860804 10.02091752760539 0 0 1
261 0 2 0 -1.2997381500048242 9.930579266630179 15.593288136533722 0 0 0
331 0 1 0 -5.99807262177431 13.81731767517619 3.164315385494053 0 -1 0
114 0 2 0 4.888119620586966 2.963269793160969 7.823798787347135 0 0 0
324 0 2 0 -0.41978666869178893 9.98089910891132 5.349274432663926 1 1 0
438 0 2 0 4.955170900690439 -5.032950737224315 15.422159291268962 1 1 0
7 0 1 0 -5.161255580478102 13.319345176646383 6.991436985117204 0 -1 0
68 0 2 0 12.312897727833795 -2.11856504524304 8.836379983611828 0 0 0
745 0 1 0 12.396416614684947 3.3559008140881597 2.6478707210408507 1 0 0
735 0 2 0 7.160959211058766 4.230477093675273 4.217165720397559 0 1 0
39 0 2 0 7.421683462933541 8.39310345288595 12.404307010526962 0 0 0
410 0 2 0 -2.2612145490587223 3.513257077764954 13.313294591685596 1 0 0
133 0 1 0 5.598637425183386 0.1474395142365026 9.532568292136403 0 0 0
425 0 2 0 6.491363787336834 14.955876502331636 -0.2782298963561488 0 0 0
469 0 1 0 6.934850186587918 2.931980017794586 2.0887584111454998 1 1 0
350 0 2 0 -3.699909664583793 11.001211139086525 3.3991060538492697 1 0 0
1242 0 2 0 7.29066213623739 3.229106336179898 7.965039747611867 0 -1 0
1115 0 2 0 3.1630694324815445 7.262911125761183 0.19126387723598204 0 -1 0
488 0 2 0 13.247975038044522 -3.550130796627113 12.310981444419896 0 0 0
403 0 1 0 0.8158266947710671 0.16556228518403082 3.7955427007360445 0 -1 0
779 0 2 0 2.8873943583470894 7.67510374712085 15.16237936112126 0 -1 0
1083 0 2 0 6.804061752139294 -0.5352344917672007 10.874235972869963 1 1 0
166 0 1 0 -7.388221492790785 18.25900845394379 4.838838452810871 0 -1 0
320 0 2 0 2.380511727255146 10.259107516142059 7.785236236244382 0 -1 0
689 0 2 0 -1.8476679318230924 5.67985710769423 1.0033178038402266 1 1 0
1290 0 2 0 -0.9972690104291602 17.527641885653345 8.836608340907892 1 -1 0
2221 0 1 0 10.177467338502732 8.359760166746957 -0.7598436766822025 0 0 0
1215 0 2 0 8.52010208747558 -0.14461249729269188 14.112094975518925 0 1 0
561 0 2 0 -2.112852113356659 13.37251331948886 10.857291315199479 0 -1 0
1163 0 2 0 -0.7443088785841833 4.2833902195903715 5.841348548520578 0 0 0
200 0 2 0 8.506720621027284 10.969593095668719 4.257054113938331 0 -1 0
1117 0 1 0 -4.830993892602998 11.079844999856558 1.8250938058780384 0 -2 0
734 0 2 0 6.0058749133709775 4.268370971129928 5.308028175255369 0 0 0
222 0 2 0 1.823128223942783 13.018217722327089 9.178045875436212 1 0 0
309 0 2 0 12.641269341211252 1.6695165816285376 6.513730235866275 1 0 0
1556 0 2 0 3.6446668594827027 13.357550020047695 10.388193378696219 0 0 0
1109 0 2 0 -0.1344042596517958 9.697401688584264 11.667535043114201 0 0 0
442 0 1 0 9.744647233507832 -3.9696181549832956 13.723432622855821 0 1 0
168 0 2 0 -7.08878444409782 17.654744759051912 4.15917369058599 0 -1 0
234 0 2 0 4.82698676939811 9.727166585310803 0.757096531378479 0 0 0
498 0 2 0 2.701376343430199 13.272663446566925 5.701401017100991 1 0 0
1279 0 1 0 10.090971212634514 4.587082195324738 5.754939102247267 0 1 0
1111 0 1 0 -6.136947725247747 16.874130881615677 2.8262013365391545 0 0 0
432 0 2 0 0.46286451301995196 0.3655243694388073 14.25111305511623 0 1 0
523 0 1 0 -2.4417652554570237 7.633637850507959 3.9122196742099353 0 0 0
817 0 1 0 10.115148591424443 2.1026191137140167 11.226540326004242 -1 0 0
532 0 1 0 6.341735844064268 12.261381598131194 2.0035854903499506 0 0 0
717 0 2 0 14.163997471315962 -1.1132526931060673 9.327612781160994 0 0 1
537 0 2 0 -4.113129050473249 9.923094146761315 10.989454772587218 0 0 0
1268 0 2 0 -6.910117905939775 16.549908242328446 7.345630560820531 1 0 0
830 0 2 0 -4.432867287116111 14.20704990174162 15.24858551444736 0 -1 0
120 0 2 0 13.284654702903449 -2.391949178500695 14.390581643177935 1 2 0
404 0 2 0 0.28907173059675295 -0.09594815998908857 2.985584886557722 0 -1 0
676 0 1 0 3.622913664464286 1.1567231572445111 1.2279431191625831 0 1 0
1062 0 2 0 -2.028048597188227 12.483461605952552 13.112799168675133 0 1 0
1222 0 1 0 10.860571574588251 0.13198592109354879 0.8476624786320444 0 1 0
313 0 1 0 7.6770877010582295 5.286549802766287 10.125715230232965 0 0 0
835 0 1 0 0.13657407102700042 -3.412226801138689 13.232224871700918 1 1 0
321 0 2 0 2.4310523752112534 10.821864611036334 6.325742415304097 0 -1 0
989 0 2 0 3.869458536735535 20.092015355226664 0.8865144810583918 0 -1 0
23 0 2 0 -4.345729353381924 12.328093189329895 8.335435402499082 0 0 0
975 0 2 0 2.509300079636463 5.289888836241349 6.462617526226864 0 0 0
1485 0 2 0 7.311566966639639 -2.062326461041129 7.861339124541912 0 0 0
154 0 1 0 0.9256288304537277 12.443317653880845 12.027229012203017 -1 -2 0
1090 0 1 0 -3.375222388968628 15.159735741703766 0.9976625271832187 0 0 0