LAMMPS data file via write_data, version 23 Jun 2022, timestep = 196163000

2592 atoms
2 atom types

0 31.157 xlo xhi
0 21.485012 ylo yhi
-0.7622787268916689 32.51844676681658 zlo zhi
-9.195174 0.7662941865504316 -11.2125866167575 xy xz yz

Masses

1 1.008
2 15.999

Atoms # full

766 0 1 0 -3.607650187464344 15.111817941608436 13.704365917741084 1 0 0
1082 0 2 0 6.596143968580607 -0.858140098956983 6.510590252203893 1 -2 0
396 0 2 0 7.415419312277484 5.256568222645889 14.137055346598586 2 1 0
684 0 2 0 10.137261586392562 6.0017349381157965 12.763956986607006 -1 0 0
278 0 2 0 6.740318304149763 12.345250434727678 15.378164073288172 0 1 0
999 0 2 0 8.437902664474645 12.124109382116956 0.15611838298228675 0 3 0
896 0 2 0 0.3061416789100114 4.245359235792072 8.661034117802492 0 -3 0
216 0 2 0 0.42350258645480254 0.611793996776496 6.958094009658198 -2 1 0
608 0 2 0 10.909603635658552 6.670840465602758 6.6663121139157795 -3 -2 0
417 0 2 0 -3.546705404220591 20.558200247560528 0.7208166859048819 4 5 0
1555 0 1 0 4.762152141116883 7.265555107614432 5.331704262763052 1 1 0
2532 0 2 0 8.925254157415084 5.459695714406534 5.9436101717793335 -1 2 1
1084 0 1 0 3.6833710585242363 4.117444673148372 1.7051643948697093 -2 -1 0
136 0 1 0 0.7084934129619143 15.803638293593739 10.057957191165004 -2 -2 0
1186 0 1 0 4.079359353887774 -0.15892715965243576 0.38968338912894596 3 2 0
673 0 1 0 -0.021727379402696645 4.284115883789174 12.653857536277265 3 4 0
373 0 1 0 5.267483423939948 6.594434727251276 14.996342638909864 -3 -3 0
2580 0 2 0 0.4945138764071734 0.6804591216299527 -0.5504274269940073 -1 1 1
739 0 1 0 8.929053628849093 7.223123166838 12.4603031869066 -1 0 0
431 0 2 0 6.0797603734690595 3.4794158746073958 13.886181109430366 1 0 0
466 0 1 0 -2.3610259567613774 3.229912393684244 13.959235448257317 1 -3 0
492 0 2 0 -0.7312756528592373 16.953480888895513 -0.35657963661068753 2 -1 0
392 0 2 0 3.134501814609779 14.27805324061541 1.8599592055347012 2 0 0
878 0 2 0 0.7254026915209932 6.407536437524164 -0.42303578729759606 -1 -2 0
1074 0 2 0 3.5756313557036408 0.22260993775163662 13.552624072139999 0 0 0
416 0 2 0 -2.0347092523222554 20.41664564289734 0.3300010079156035 4 5 0
1167 0 2 0 -1.4405651777586983 2.5117525754867596 7.156494986139743 2 2 0
230 0 2 0 -0.6756219814402812 13.985814952581807 0.6182332247240747 -2 -2 0
185 0 2 0 0.5946987549312484 10.30197263408813 7.7686334637687064 2 1 0
1665 0 2 0 12.07053169591393 0.9528381071389169 0.6920763053413617 0 3 0
882 0 2 0 1.1374248586432723 8.868508917712798 -0.30579092402395147 1 4 0
504 0 2 0 -2.471347792902967 7.826530504602648 8.675515256263752 -1 1 0
2547 0 2 0 -0.03501977392374778 -3.813309582663641 14.191363894550435 4 2 0
656 0 2 0 -5.600473624459507 17.91256076599259 1.280313043454587 1 2 0
335 0 2 0 0.4175808102905386 14.059756233834925 15.172812604183811 2 1 0
502 0 1 0 -2.5826732533700865 7.92829722877854 7.740439324200819 -1 1 0
1223 0 2 0 8.417066280024503 6.120598564428795 0.0023862968301319176 2 3 0
290 0 2 0 14.035420197762075 -1.9177375488221575 10.339524676040693 -3 -3 0
555 0 2 0 10.24843636335002 1.6939079112438693 2.679802193905932 -2 -1 0
46 0 1 0 -6.731946577949642 17.264836868445865 4.992837274431277 0 2 0
2409 0 2 0 12.814395570137686 -2.4368007179847044 15.600637440648569 1 3 1
2379 0 2 0 7.549503215466693 8.803295470108278 5.192469461003811 2 2 0
324 0 2 0 -5.184186635684547 12.532620098346408 0.04731478516356369 3 -1 0
167 0 2 0 -3.648792846254837 5.104685823809008 12.886162321285077 0 0 0
532 0 1 0 13.058251091610229 0.2734177518156169 4.439692180506369 -1 -2 0
775 0 1 0 12.60732014467666 2.551305257598458 -0.16634114449394755 1 2 0
1024 0 1 0 5.63467283133331 2.4725029191860735 11.09861657206543 -1 -1 0
1118 0 2 0 -0.9159646439238706 16.423020707881463 4.413327377027237 -1 -1 0
325 0 1 0 3.0876826119849246 -0.8025245391365934 5.787558082858084 -2 -1 0
642 0 2 0 6.015531111073185 15.786521384646578 0.1282409992814444 3 1 0
938 0 2 0 4.010154485464162 9.981438020997153 6.811210680295384 1 -2 0
528 0 2 0 11.602689655942784 -2.3714270004159417 9.93998967592222 0 4 0
713 0 2 0 3.8746050573150788 12.338574349871774 12.651839644810009 1 2 0
2356 0 1 0 -7.0691197743871825 18.68772346891186 1.9120089316442428 3 2 1
776 0 2 0 13.474729475493795 2.5541413479769943 -0.5630447429161178 1 2 0
843 0 2 0 -4.195543243897981 14.88982395381052 3.368734407625861 0 0 0
698 0 2 0 11.035958956950822 -4.589881695196259 12.882673650975134 0 0 0
229 0 1 0 0.18429487379859247 13.659206941717496 1.0644509169592116 -2 -2 0
554 0 2 0 10.002331583997826 0.7782285284255905 3.8884859400340863 -2 -1 0
249 0 2 0 3.792936999151146 -2.009056612140985 14.483239641290016 -1 2 0
556 0 1 0 3.9529401117208716 3.3468208688175496 4.145544501839716 1 0 0
2403 0 2 0 15.605474254053469 -4.413388393634976 13.180750901140373 -1 -5 0
140 0 2 0 6.437023286342056 10.619965549906558 3.8991010494687863 1 -1 1
365 0 2 0 2.92004470351756 8.320310390530832 6.1769162232513075 2 0 0
54 0 2 0 8.176305738602675 12.404874216339262 2.3736511173624795 -1 -1 0
799 0 1 0 0.9801394171052358 16.217914086317403 4.642596247090354 0 -1 0
364 0 1 0 2.430105849265216 8.882830216268317 6.781048065480019 2 0 0
1352 0 2 0 -0.7841887149170281 15.992030456646647 14.268280341034705 1 -1 0
1216 0 1 0 -3.390827066987749 11.19652748420395 7.209440812583583 -2 -1 0
3 0 2 0 2.179632437155103 13.089653747642625 11.624442236446152 0 5 0
310 0 1 0 3.7795172873298366 5.348076609433526 12.911111326811872 0 0 0
947 0 2 0 -1.3629830533283727 4.038120976766569 1.91769914670529 3 3 0
630 0 2 0 0.7675345829116007 1.552121617819601 3.0128538305957444 1 -1 0
937 0 1 0 4.791932650403065 10.438248700947057 6.493097481923125 1 -2 0
948 0 2 0 -1.1911443586874328 5.268472551103223 1.0806565951173275 3 3 0
1218 0 2 0 -3.078656416891947 11.982072987975553 6.7371476815289855 -2 -1 0
567 0 2 0 9.554132079550413 -3.382433652685684 13.475585311740481 1 3 0
825 0 2 0 -2.4384761611373147 18.91659948270453 2.3874622091387883 3 1 0
4 0 1 0 7.237550227669058 8.26486926322178 14.11908700738065 0 1 0
712 0 1 0 4.059410743024866 11.845029816984525 13.456743123959155 1 2 0
139 0 1 0 6.930192326821284 9.822354390201944 3.658983736831554 1 -2 1
59 0 2 0 5.510514234893538 0.9414202378060867 14.686748491657626 0 1 0
286 0 1 0 12.231290669118158 0.3891743489270443 8.55991292704609 0 -1 0
388 0 1 0 3.0664026448216952 -0.48280912628296346 2.8007010738921885 1 3 0
1413 0 2 0 2.1015968412815447 3.1526564216976123 1.5849683091987465 2 -1 0
2198 0 2 0 8.074250976760293 -1.5957096318144361 11.049711514341716 0 -2 0
800 0 2 0 1.4103127353755838 17.05024213202816 4.7744930160832455 0 -1 0
447 0 2 0 1.0437340141885818 14.747942923458877 1.908422631491026 0 -1 0
788 0 2 0 3.127016165392114 8.90953272052066 3.5175359144484863 -1 -1 0
986 0 2 0 -2.3571684771031673 9.890372710821843 12.444553590634515 -1 -2 0
1042 0 1 0 8.903086480852068 9.392499530722748 -0.6697672487121993 2 -1 0
1072 0 1 0 2.6600758782781706 0.5436961062464158 13.794988805542289 0 0 0
681 0 2 0 7.528431877788399 1.8237796362756957 2.3685793243620252 2 4 0
231 0 2 0 0.7362100968173211 13.333782383628538 0.3457838932436288 -2 -2 0
1098 0 2 0 -4.055998650378497 16.16547511393473 11.493865133519039 0 -2 0
640 0 1 0 6.0297105177475245 16.743728692040754 0.18571328212550997 3 1 0
1099 0 1 0 6.771419905876184 17.42789993061221 2.736267486401731 0 3 0
2243 0 2 0 -1.6617138936793099 8.88903132681972 -0.5346808081122738 2 -3 0
369 0 2 0 1.661324763796588 7.137916054795038 9.639773032163003 0 1 0
207 0 2 0 7.437394932054617 -0.4232108161216086 15.205629704416115 1 1 0
1257 0 2 0 -5.107171269422433 13.889347783862629 14.024724710815224 1 0 0
93 0 2 0 3.1513472155281894 6.163392076735342 7.421198989358899 2 5 0
907 0 1 0 7.201272169810918 7.512184181061782 8.432063289115172 2 2 0
1101 0 2 0 5.94707219082324 17.781001949627548 3.177445203707429 0 3 0
36 0 2 0 1.3533200062731958 12.742621108695678 5.737757076930559 -3 -1 0
2316 0 2 0 -4.7777072187271985 11.129442733346057 1.9630852698044774 1 -1 1
228 0 2 0 -2.9126175876538887 17.0047509945621 8.602748360511516 -2 -3 0
1126 0 1 0 -1.9262241539568041 12.644837556883632 5.336015555623885 -1 1 0
760 0 1 0 7.106732916308703 -0.5075779879828857 8.111844632003322 -1 0 0
211 0 1 0 -2.0065036304107435 10.067638574565228 1.1859562378444721 -2 -2 0
368 0 2 0 1.1287464039554895 6.335822608854994 8.3525331985088 0 1 0
97 0 1 0 6.043333284108407 16.355920634361638 8.184436481812252 -1 -3 0
508 0 1 0 -0.3718151294231612 17.908976127722298 7.2545865498747535 2 0 0
786 0 2 0 2.2721734735167147 -3.159735528636447 13.571989913524694 1 1 0
2299 0 1 0 6.179744819365687 19.086783548011717 5.3614319661779914 -1 -1 1
215 0 2 0 1.5716239885971635 0.14282981626288827 6.092689118625086 -2 1 0
1640 0 2 0 -7.971509266899558 19.597126242457566 0.6558912100274281 1 1 0
1036 0 1 0 8.651256253228105 5.673396609138567 15.64851455234692 2 0 0
787 0 1 0 2.9426985977344353 7.964146465293542 3.482562473485494 -1 -1 0
1169 0 2 0 1.1583531232224653 7.295251324451909 11.640529618311898 2 3 0
186 0 2 0 1.8840352346366909 10.597252395791752 8.692060403166934 2 1 0
118 0 1 0 6.103189151399773 10.095461610528387 0.2999369211586145 3 2 0
298 0 1 0 4.125464948421621 8.799917422081885 11.614141060173564 0 -2 0
824 0 2 0 -2.1732455979390197 17.470220103306055 3.055903905736877 3 1 0
510 0 2 0 -0.5660450735850359 18.305027098328935 6.413401407975643 2 0 0
205 0 1 0 8.155943733255931 -0.974302872495997 14.858852440804755 1 1 0
890 0 2 0 -1.7433171069887439 16.14962157739253 11.354375507788442 -1 2 0
23 0 2 0 -5.894616949595745 12.652159588356753 11.608669816158477 -1 1 0
2337 0 2 0 -1.1960301667904156 19.540352310416132 4.787986628937916 1 -2 1
598 0 1 0 11.230270812491778 4.962059475509097 1.477387353111593 -3 -2 0
1664 0 2 0 11.366762199774657 0.2583547084075192 1.8884885355892682 0 3 0
696 0 2 0 12.164353667867687 3.0381012765484785 10.644300680644093 0 4 0
184 0 1 0 1.0401752161235827 10.927338358055392 8.377676388059259 2 1 0
2280 0 2 0 -8.181354362566534 16.631025616792783 10.628892842383474 1 2 1
70 0 1 0 3.916237541852793 -2.7916068624621855 8.79482291539961 2 0 0
726 0 2 0 -1.6496351019528195 13.776478112868157 11.552447800860413 0 0 0
16 0 1 0 12.629591411241385 2.53343225791122 3.114471195961432 -2 -4 0
1061 0 2 0 1.1743357486269461 -0.5165404975205963 13.989187172378413 1 4 0
637 0 1 0 0.8689072824442635 7.359339646434049 4.777700957155514 -2 -2 0
946 0 1 0 -0.7062133002112905 4.706591005090614 1.6831723624400357 3 3 0
34 0 1 0 2.1441451266001383 12.154839657631126 5.793512104614676 -3 -1 0
755 0 2 0 -1.7115482572334912 5.63558300051852 5.06152755883937 0 0 0
2221 0 1 0 0.1436927158192838 2.9028962173047206 9.903320968366122 -1 1 0
1229 0 2 0 -0.7082437682225677 13.48482685767813 5.9506040876258535 2 1 0
1011 0 2 0 14.964678522823863 -3.967554800058541 11.193830699556079 1 3 0
1230 0 2 0 0.3584259601046385 14.668233489284223 5.587456887604019 2 1 0
503 0 2 0 -3.533819560155634 7.84312425991596 7.5378850003615465 -1 1 0
124 0 1 0 -5.157462978441828 14.212732829252785 6.7574831675709035 0 -2 0
1015 0 1 0 5.222611378473992 0.5492445501126206 4.2057805956684655 0 -3 0
2378 0 2 0 7.8513827406270975 8.438412045426361 6.732556793372026 2 2 0
953 0 2 0 -8.139328049788412 18.636764537885902 7.376131012901022 1 0 0
2197 0 1 0 8.583549658976755 -1.2373924826944167 10.32279399888453 0 -2 0
356 0 2 0 7.449195557023349 8.544463080402203 15.785326081243646 -1 0 0
1107 0 2 0 0.039168394991796224 4.71041648006426 3.2688491422024883 -3 -5 0
1100 0 2 0 7.077231267225022 16.683810145501926 3.2857407262224445 0 3 0
1190 0 2 0 2.7400367915724293 12.43308020080742 -0.04781603288752578 1 1 0
880 0 1 0 1.364058430641159 9.827873300211962 -0.353680777265516 1 4 0
1104 0 2 0 9.023088875057278 0.8846600208784912 5.852880161858829 0 2 0
27 0 2 0 -1.4911283024581712 12.928154251484688 9.79607651125161 -1 0 0
997 0 1 0 7.700607461148872 12.120700888174861 0.8451981902126273 0 3 0
214 0 1 0 0.9650997724108074 0.8492402655264497 6.1627703806272605 -2 1 0
82 0 1 0 3.9733295630340733 4.672373262625246 9.839489534078522 1 -1 0
2208 0 2 0 5.578068820899583 12.611510307872743 8.676854898023628 0 -1 1
1351 0 1 0 8.21109438231001 -4.624754504916665 13.905675532783597 1 0 0
1614 0 2 0 -4.754728938563091 12.876715606771043 3.6120585453065566 2 -3 0
304 0 1 0 3.2145169105039963 17.906172721138432 1.380521757896747 -5 -4 0
53 0 2 0 7.615996500673724 12.498817874478416 3.8095072820011104 -1 -1 0
754 0 1 0 -2.397024733830365 6.31402496958664 5.174301365064167 0 0 0
308 0 2 0 3.438499669260967 7.035680726823632 1.7344883728143694 0 0 0
679 0 1 0 6.630138415584563 1.581344332080409 2.201087323205256 2 4 0
861 0 2 0 -2.44404445347545 13.596632411851866 -0.21305809793162422 -1 -1 0
430 0 1 0 5.403285300580326 2.7829112592232814 13.830840303901573 1 0 0
390 0 2 0 3.814345730545962 -0.27351005946591367 3.362926857854787 1 3 0
617 0 2 0 2.144794464554944 15.727276477417288 7.113467037325644 0 1 0
99 0 2 0 5.334104108902669 16.937720446466663 7.84906791162166 -1 -3 0
680 0 2 0 6.711873808707785 0.6625719795844532 1.8271944629967583 2 4 0
217 0 1 0 9.339351105192732 9.686182286700815 2.211704081244022 -2 -1 0
1290 0 2 0 2.4588780337249956 15.23447876208693 -0.5675410564863174 1 1 0
784 0 1 0 3.0125960713060485 -2.6233786920108004 13.285440150515038 1 1 0
1001 0 2 0 11.935456913796441 4.016450166234465 7.130929132924143 -3 -3 0
2367 0 2 0 -2.406812484679073 3.170945886371916 12.025626070340316 0 1 0
5 0 2 0 6.765093376614387 9.02037276549088 13.752571516688878 0 1 0
137 0 2 0 0.3302281042050243 14.876445871848006 9.97990529257425 -2 -2 0
247 0 1 0 4.118440689307253 -1.842379663656212 15.382013149875522 -1 2 0
486 0 2 0 8.345614104362301 6.119441865850215 11.002625087254177 -1 2 0
874 0 1 0 5.632601188934921 14.161081840125142 11.979445615308002 2 0 0
1188 0 2 0 3.657617057794032 -0.2711423823269919 1.237730103804926 3 2 0
1198 0 1 0 11.757922721201766 -0.5637677890900838 12.38266081611539 -1 0 0
291 0 2 0 13.201886218416707 -0.8054210175352075 9.68996105326844 -3 -3 0
279 0 2 0 5.296358765065996 12.650314747155488 14.967489825923343 0 0 0
493 0 1 0 5.952657658353616 12.452398404041535 4.689907639809379 1 -1 0
265 0 1 0 4.842227344090211 14.279948723312177 9.351218538479834 -1 2 0
339 0 2 0 6.006989375515764 -2.978804765701659 12.29826762305989 -2 2 0
1026 0 2 0 6.298945621365567 2.0261387357964384 10.579055978398168 -1 -1 0
1242 0 2 0 -8.207803547475931 15.32981205030351 15.825969492239192 0 -2 0
1592 0 2 0 4.26286884308347 20.783013907008947 0.9868754087568028 0 -1 0
1105 0 1 0 -0.04200092983521056 4.840744164631776 4.2749946068635944 -3 -5 0
1412 0 2 0 0.6121261158410173 3.483906742385793 1.387753684113648 2 -1 0
2199 0 2 0 9.330326781570607 -1.8992130753487426 10.306980144561942 0 -2 0
17 0 2 0 13.536114438701887 2.6851729993021243 2.887261797925012 -2 -5 0
523 0 1 0 7.055553633127836 3.7382580974887625 8.778651122274368 -1 -2 0
24 0 2 0 -4.839183475990009 12.53956102660541 10.575185368926762 -1 1 0
1220 0 2 0 -5.957382767117624 16.044713080100298 10.334087484235411 -1 -4 0
629 0 2 0 0.7576009796416115 0.7863332473019464 4.391834538493261 1 -1 0
51 0 2 0 6.4046436097065635 13.564553021427646 0.5936105688729776 5 5 0
1249 0 1 0 14.341076109780953 0.7412181426205451 6.804419794718335 2 3 0
1047 0 2 0 3.058804568759407 11.173711947609528 4.404920127610717 -3 -3 0
419 0 2 0 -8.30929330825726 18.373433496920086 5.0557365083176355 3 -1 0
292 0 1 0 8.253242888275471 15.307034376197931 3.6241966615731043 0 3 0
1058 0 2 0 9.982268874180907 3.69507292119668 1.3372572794648274 2 4 0
1009 0 1 0 14.332562633792186 -3.8210149605144625 11.912413043736292 1 3 0
314 0 2 0 1.939034899236542 -1.3562165704390359 10.406826476552913 2 0 0
1038 0 2 0 9.317310910107151 4.997772578010622 15.685779064823706 2 0 0
1 0 1 0 2.8655556182996222 12.726883509489653 11.013819880885753 0 5 0
461 0 2 0 7.0426648796638105 -3.687058143415771 15.003546936640355 0 0 0
526 0 1 0 10.781977749587394 -2.8678997583723294 10.26677984238986 0 4 0
222 0 2 0 10.644065882042938 3.241930347566602 8.908033489634178 0 1 0
1031 0 2 0 6.349793928174452 20.09168221591693 -0.18882078947904957 0 -1 0
1083 0 2 0 5.776314746965808 -1.9292522159196566 5.819548306707405 1 -2 0
1165 0 1 0 -1.585029173175199 3.3183857117217195 6.605021186452762 2 2 0
1059 0 2 0 8.45638966982602 3.5482760456215776 1.141790224068494 1 4 0
91 0 1 0 3.333499241073278 5.363209671411548 7.018485946611321 2 5 0
294 0 2 0 8.276883946450564 14.350182842123127 3.4739135344357477 0 3 0
352 0 1 0 3.9987975576652017 15.02397955650723 13.943474253072402 2 1 0
2186 0 2 0 3.8419714064084634 17.65525219177656 2.9799695652634246 -2 -1 1
818 0 2 0 5.46416420427884 10.737906730719317 13.04849485658417 2 2 0
48 0 2 0 -6.423465646421675 16.8173188550167 4.191070710064022 0 2 0
309 0 2 0 2.3721317591314675 6.764614115586931 0.6907758960786918 0 0 0
206 0 2 0 8.65747331497666 -1.4198069079779936 15.58110950075065 1 1 0
1106 0 2 0 0.6574917420518703 4.286674855256978 4.646032446871733 -3 -5 0
345 0 2 0 -2.2261589854692296 5.685798218928664 14.886737054914978 1 1 0
842 0 2 0 -3.2265269501069658 14.164627094243645 2.4055810247835354 0 0 0
395 0 2 0 6.815513035226743 5.492338506942519 12.76772350049203 2 1 0
293 0 2 0 8.106938386386235 15.258738508160897 4.617130504945663 0 3 0
704 0 2 0 10.319167374502353 -2.1615580929593783 8.018384077270845 0 5 0
1046 0 2 0 2.0751795414938514 11.131503569224193 3.3127717598367354 -3 -3 0
170 0 2 0 -5.289015868717395 9.064883540250126 13.85690283371132 0 -1 0
366 0 2 0 2.2379704999887 8.301547967079934 7.528503516946579 2 0 0
39 0 2 0 3.7383740309596276 9.812738999106298 9.845506753436434 0 -1 0
1591 0 1 0 5.015683835510466 20.142358417240388 0.9569327803058025 0 -1 0
751 0 1 0 5.86561235698085 6.691337947030508 11.377729987740372 2 1 1
2546 0 2 0 -8.412088881228067 16.356711455882294 13.863072401961153 4 2 1
1269 0 2 0 11.717228414332947 -1.7784943669703557 5.993265849657763 3 7 0
935 0 2 0 4.236008709253663 14.97967445235631 5.406978520567803 0 -4 0
2443 0 1 0 2.5543730288185817 7.559961201590495 15.262766725512435 1 0 1
1134 0 2 0 -3.7547702721928125 15.399969572332392 15.805735569508084 0 -1 0
2377 0 1 0 7.194518042413953 8.762120775350787 6.103110672264024 2 2 0
860 0 2 0 -2.59728578729363 15.047811279897664 0.12520253778402302 -1 -1 0
72 0 2 0 4.90321687155407 -2.902508501989525 8.863919001830524 2 0 0
1712 0 2 0 10.687090691733706 2.30071378203921 5.730560665295858 -1 -1 0
631 0 1 0 -0.17865640588098441 7.341938910947599 13.541122954990557 -3 0 0
138 0 2 0 1.194712354867284 15.989060171018377 9.241764550098825 -2 -2 0
194 0 2 0 6.2573949185195765 3.602477396770851 1.3828112550825153 2 3 0
2305 0 1 0 9.46457262268751 9.71239045053904 10.940982888861356 0 0 1
444 0 2 0 -5.37626259463056 18.160625408421424 5.689922728642963 1 -1 0
1199 0 2 0 11.39093034001384 0.033865238083834015 13.054627506454068 -1 0 0
612 0 2 0 3.318981006086679 17.554695343477515 7.57515118317308 -1 1 1
148 0 1 0 1.9849683582036217 13.432087547415424 14.932696898789162 3 0 0
886 0 1 0 0.7073888888719253 18.395923525132197 1.9202057356554372 -2 0 0
391 0 1 0 3.9827577114294836 13.904546486517091 2.1670591308487603 2 0 0
985 0 1 0 -1.8367675834955244 9.023326279340484 12.296882020796172 -1 -2 0
393 0 2 0 4.683824951955473 14.109058491899281 1.5212429552462572 2 0 0
801 0 2 0 1.2296005590722086 15.85607944180858 3.7973249559552293 0 -1 0
1081 0 1 0 6.500159477921274 -1.3276602052140212 5.611816737987597 1 -2 0
762 0 2 0 7.655500152704433 -1.0185882437359437 8.773709567139703 -1 0 0
329 0 2 0 -1.239796254814316 9.043786103901914 7.282825280586502 1 -2 0
212 0 2 0 -1.1507633924691651 10.496856088705755 1.0548291567342887 -2 -3 0
1172 0 2 0 -1.5791906707630403 11.779487155897655 15.428683461128308 0 2 0
1520 0 2 0 -5.622643541068883 16.12707225960542 2.2344806828892647 -1 2 0
1263 0 2 0 0.6872817794360269 10.23529878504601 10.137592713919895 -2 0 0
1593 0 2 0 4.6496391988651755 19.208994039491095 1.0257760807836176 0 -1 0
645 0 2 0 -0.5262588733732076 -1.3578987929901931 12.790375416818392 -2 -1 0
213 0 2 0 -1.7327904788362614 9.245780602918344 1.650568916241784 -2 -2 0
2315 0 2 0 -3.4558507536592136 11.375669528628967 1.3095756986685347 1 -1 1
2307 0 2 0 8.73715011840165 9.998467172149807 10.341653402480073 0 0 1
50 0 2 0 5.273187350602943 13.615292672245147 -0.47700842752988865 5 5 0
8 0 2 0 0.15032985400676432 -2.151921186130652 9.24523681823411 -3 -2 0
714 0 2 0 3.3117339755108794 11.27641494668661 13.61894289244374 1 2 0
914 0 2 0 6.147647486475489 9.963201218010791 10.679831341182942 0 -1 0
2407 0 1 0 12.015351721774936 -1.8322382725005948 15.420888642007856 1 3 1
37 0 1 0 3.469281651914054 10.491257593616309 9.279128032600438 0 -1 0
149 0 2 0 2.8533554951530946 13.73753651736345 14.625556597194311 3 0 0
60 0 2 0 5.155035893596796 -0.34328417594148597 15.461024990999384 0 1 0
1556 0 2 0 5.672439455879564 7.568245918924143 5.327251776152393 1 1 0
413 0 2 0 5.172938308252747 0.09946785223069687 8.694884238928193 0 -3 0
1225 0 1 0 7.064201328315207 5.565573721012115 6.51447218864113 0 1 0
2558 0 2 0 7.03107376809113 15.507201906443175 11.392766437649962 1 -1 0
652 0 1 0 5.663177868643314 5.9315128530849845 -0.4052547158536424 2 1 0
150 0 2 0 2.241109393366788 12.899376553546954 15.693359896619125 3 0 0
724 0 1 0 -1.3350544910635003 14.410829891373579 12.192290297558356 0 0 0
823 0 1 0 -2.506819116217443 17.95640713226984 2.2349614341898683 3 1 0
725 0 2 0 -0.574190140210603 14.059245790071845 12.702885759821518 0 0 0
353 0 2 0 3.4888241916361915 15.538707503903861 13.31148915365491 2 1 0
448 0 1 0 -5.007630046870705 7.504547686335973 15.091303444133363 1 1 0
126 0 2 0 -6.098308713880977 14.28182725905782 6.965564644364638 0 -2 0
653 0 2 0 4.758873485707181 6.15408926005366 -0.042674695437806 3 1 0
2422 0 1 0 -3.8362685789901403 9.910787516604564 4.370770005332642 0 2 1
722 0 2 0 1.916102233150891 4.428613271818997 15.087480868420533 0 1 0
1215 0 2 0 4.431309810489758 1.51704423704295 0.15189608159623824 0 -1 0
527 0 2 0 10.988968168651766 -3.205005587216348 11.119877087558354 0 4 0
266 0 2 0 5.2502617949657004 15.093931231323506 9.02612961457873 -1 2 0
1127 0 2 0 -2.3225216607493846 13.248018924895185 4.696137574611986 -1 1 0
777 0 2 0 12.592203401236981 3.0318336513795217 0.6720715780814457 1 2 0
1103 0 2 0 9.99476699962171 -0.23112670634326893 6.434989327593831 0 2 0
157 0 1 0 8.340813078503333 1.585273201278151 10.586752633354674 -2 -5 0
1262 0 2 0 -0.0906880854756606 9.475237420648266 11.238988006714516 -2 0 0
599 0 2 0 11.992466541359871 5.085080106448841 0.8384383266479116 -3 -2 0
2372 0 2 0 -7.165987781205129 12.791111889106956 13.379999175533824 0 -1 1
897 0 2 0 -0.5128987461840074 4.856620310317842 7.536626042109493 0 -3 0
1119 0 2 0 -2.28960445667107 15.684360762979527 3.907521003031495 -1 -2 0
2424 0 2 0 -3.9344325707340886 10.192466654393266 5.2899041987258695 0 2 1
221 0 2 0 9.644400520619408 2.4422739014534733 9.746615263446136 0 1 0
49 0 1 0 5.675640585049355 14.144085377164943 0.226623627054089 5 5 0
1252 0 1 0 -1.0539006473639978 10.350431816159903 4.096912119517036 -3 -5 0
834 0 2 0 13.32466467762438 -1.0083545545565569 12.897493959052237 -3 2 0
1195 0 1 0 10.103710576815669 0.6843444098551306 14.083021540206282 0 -1 0
836 0 2 0 9.303599383195328 2.1036019153928427 -0.17447799519169016 1 1 0
1224 0 2 0 9.214159417673798 6.683760411792801 1.2078432496176477 2 3 0
220 0 1 0 10.615100759325776 2.558213268741418 9.569200268450418 0 1 0
2531 0 2 0 10.090309330458796 4.743479403465354 5.6458900270142935 -1 2 1
35 0 2 0 1.9459931715370418 11.51730870963512 6.495037246107068 -3 -1 0
277 0 1 0 5.9645712765778605 12.916225889736687 15.623281101730615 0 1 0
536 0 2 0 12.760664727820439 -0.17345189044294873 15.445958290658517 0 1 0
893 0 2 0 1.5449768427959947 9.642381183927718 12.77297517935667 1 0 0
2187 0 2 0 4.246735783578767 16.746784615102086 4.195048232308425 -2 -1 0
841 0 1 0 -3.381779300353765 14.38878175941934 3.2985599465487407 0 0 0
691 0 1 0 9.886555657359244 7.1769183198095945 3.1335479220561466 0 1 0
2229 0 2 0 10.325565428653414 0.972532118527476 15.803661881451518 2 2 1
1519 0 1 0 -5.9741919297819 15.651366543915643 2.9902892175631806 -1 2 0
901 0 1 0 4.7508581484186045 2.607907404909354 6.987912298766355 1 2 0
338 0 2 0 4.539072043310071 -3.356967385971264 12.563146854180463 -2 2 0
692 0 2 0 9.36209941430793 7.963039817982111 3.0917413012994484 0 1 0
6 0 2 0 6.532323515739205 7.704551870992808 14.494493266033228 0 1 0
1219 0 1 0 -6.749402285239339 16.519096622889553 9.857014051665924 -1 -4 0
1149 0 2 0 -0.49656290300850037 5.787894097342312 9.883001611251665 -1 -2 0
312 0 2 0 3.365235699359665 4.467664971666344 12.794890849160769 0 0 0
655 0 1 0 -4.958554373019327 17.255950166235323 0.9399467643614088 1 2 0
327 0 2 0 3.375701120051871 -1.4791742195779973 5.235590422110234 -2 -1 0
389 0 2 0 2.310388805238696 -0.030350833522243104 3.1717832399570893 1 3 0
915 0 2 0 6.4896332426343495 10.647661914354329 9.391509893043239 0 -1 0
306 0 2 0 2.291350090483586 18.17097340895438 1.5622527960041328 -5 -4 0
1213 0 1 0 4.433378084825617 2.4076279967191163 -0.16341343627962868 0 -1 0
998 0 2 0 7.12362894348996 11.370967915704565 0.6494308921981544 0 3 0
193 0 1 0 6.757582787283092 4.394696306081529 1.484831717791565 2 3 0
2335 0 1 0 -0.35265143152012635 19.07239765164656 4.599892943444312 1 -2 1
432 0 2 0 4.997978482812127 2.8696319635908694 12.973308443711849 1 0 0
913 0 1 0 6.797146070503675 9.954213428839024 9.986437067468845 0 -1 0
888 0 2 0 0.18609449265893052 18.47868902683053 2.7744490747207053 -2 0 0
9 0 2 0 -0.48913410140464886 -0.7590724695365054 9.014240286207976 -3 -2 0
425 0 2 0 0.5083175781503804 12.745049111638878 8.768254497571489 0 0 0
2222 0 2 0 0.9047420930768311 2.5211038264879977 10.321584479575186 -1 1 1
1377 0 2 0 4.045148034205125 3.2532989650573576 14.963104687530722 -1 1 0
819 0 2 0 6.925446876877948 11.001476939787453 12.610477950075795 1 2 0
218 0 2 0 9.076128577735222 9.494917254080171 1.3002877932194035 -2 -1 0
267 0 2 0 5.224096197000693 14.179277484876247 10.248752278722398 -1 2 0
1096 0 1 0 -4.461676645089954 15.578040659108602 10.811138617864135 0 -1 0
71 0 2 0 3.834700463511906 -2.625970714796925 7.857956008682683 2 0 0
313 0 1 0 2.8192899013364316 -1.418821548401605 10.786140794909372 3 0 0
565 0 1 0 10.412167497636593 -2.9185746840257014 13.27868328423197 1 3 0
723 0 2 0 0.9696011559733106 5.076108626013583 14.116422242908955 0 1 0
491 0 2 0 -1.8768430347555285 17.17197432771681 0.6652721753473787 2 -1 0
894 0 2 0 1.9494340111564996 9.024769612144063 14.082159700313136 1 0 0
2516 0 2 0 -3.8195464070016203 12.120350628196755 12.311199099247846 -1 0 0
674 0 2 0 -0.6321063845206862 3.7347053859916635 13.210716456713529 3 4 0
544 0 1 0 0.03999043450137296 10.993878950001765 15.603111146654783 1 1 0
761 0 2 0 7.4820061798185655 0.3748280410289899 8.168470361962957 -1 0 0
337 0 1 0 5.418744342186946 -3.7368328843599863 12.315270533534049 -2 2 0
721 0 1 0 1.3027796542427377 5.140619262278032 15.04946421526416 0 1 0
1056 0 2 0 -2.655851943717509 16.39467036599637 6.093721975521963 4 2 0
422 0 2 0 0.5375733390470111 11.972582407062195 1.8091503899190933 0 0 0
468 0 2 0 -2.9964921444669734 3.653412484596653 14.540525160141044 1 -3 0
1170 0 2 0 2.3766905278476353 6.446734600828698 12.059114984775238 2 3 0
2314 0 1 0 -4.292728075406321 11.844036364980226 1.5244344572893795 1 -1 1
334 0 1 0 -0.5672848383936009 14.33661338144043 15.142380629706464 2 1 0
1041 0 2 0 -2.59626802536378 6.436019728593417 10.706127671571599 -1 -2 0
936 0 2 0 4.435350286499949 14.703340976916149 3.934353642101379 0 -4 0
633 0 2 0 0.0640900432432705 7.5295701030238815 14.44054253412168 -3 0 0
902 0 2 0 4.374190409718409 1.9123888258546753 7.538144085841063 1 2 0
693 0 2 0 9.627994139429104 6.72191909402897 3.9547219893843577 0 1 0
476 0 2 0 7.466750654753891 -1.6109519036704425 13.343533153546279 0 0 0
58 0 1 0 5.840334368145657 0.3616069501243615 15.384848630066372 0 1 0
326 0 2 0 3.8238455664946436 -0.1610499172959221 5.714191338762836 -2 -1 0
2301 0 2 0 5.442735627278915 18.762610803892443 5.899258520052962 -1 -1 1
1339 0 1 0 2.017402418862256 3.409530697163207 5.8333800147081485 1 -6 0
2358 0 2 0 -6.753861763971042 19.46216418125345 2.4257482319807804 3 2 1
289 0 1 0 13.366368266272831 -1.7508041709793902 9.689213612464346 -3 -3 0
525 0 2 0 7.411890553076866 4.158262135008583 7.980506988647566 -1 -2 0
789 0 2 0 2.0444449244608207 7.882719786344284 3.877636967214772 -1 -1 0
484 0 1 0 8.445302163019 5.660225919255742 10.153374138736044 -1 2 0
1341 0 2 0 1.6107736088365 2.5182704778019693 6.086019553994025 1 -6 0
657 0 2 0 -4.075367297877781 17.516445753820435 1.2592993616366681 1 2 0
1226 0 2 0 6.691962520079675 6.269656756269169 7.068180660326547 0 1 0
315 0 2 0 3.3995525148291152 -1.697384584936435 10.063122255978083 3 0 0
2530 0 1 0 9.825906353303369 5.650252936027428 5.748331636903574 -1 2 1
1217 0 2 0 -2.638669350126355 10.57705985500981 7.126858259790516 -2 -1 0
1613 0 2 0 -5.328957040221793 11.52710178964354 4.240326902455333 2 -3 0
1227 0 2 0 6.5350929892022265 5.418535179142486 5.701366243938696 0 1 0
1117 0 1 0 -1.8367747456957562 16.426807482161877 4.3325666923787125 -1 -2 0
876 0 2 0 6.349435231358882 13.645643909071657 12.374764006266968 2 0 0
2445 0 2 0 2.0979059478479707 6.723235185740823 15.196803246053223 1 0 1
1248 0 2 0 -2.022986049427886 7.232128495766505 2.4885374451577307 4 5 0
423 0 2 0 1.146382624614105 10.632606150003793 1.0869268619211543 0 0 0
669 0 2 0 7.264653413806008 7.355985612586218 1.2671663219570295 0 -1 0
300 0 2 0 4.0364467900708965 9.111446096157703 12.510120514485617 0 -2 0
697 0 1 0 2.2567754997018072 16.412693781806606 12.172150395372782 0 -2 0
1057 0 1 0 9.274038348977365 3.0498029705334164 1.2806554150816711 2 4 0
1039 0 1 0 -3.2983958717888857 7.00263003349328 10.325198202178187 -1 -2 0