LAMMPS data file via write_data, version 23 Jun 2022, timestep = 95998000

2592 atoms
2 atom types

0 31.157 xlo xhi
0 21.485012 ylo yhi
-0.7265205834762476 32.482688585205565 zlo zhi
-9.195174 0.7646475122577 -11.188492113041958 xy xz yz

Masses

1 1.008
2 15.999

Atoms # full

2331 0 2 0 -0.5847430874682417 19.290352803603604 4.172196676414335 1 2 0
1243 0 1 0 -0.1810408924604674 -2.3438544881951597 15.519243162523857 1 1 0
2445 0 2 0 2.9431303824048993 12.260193753806758 4.901062542812523 0 0 1
266 0 2 0 -3.794825080263602 6.825478982359172 7.612623174958204 0 2 0
706 0 1 0 -3.3632914913430056 9.875412466495625 8.91255522123472 -1 1 0
538 0 1 0 8.151743895016073 -4.140243202245562 12.449314363901621 0 2 0
186 0 2 0 4.872029691134577 4.303925392222998 15.01251917113742 2 1 0
450 0 2 0 8.408056333069116 5.375325552168788 15.164084146769206 0 0 0
1085 0 2 0 4.655967629544558 0.3639163133687813 9.434824229908791 -1 0 0
1567 0 1 0 2.901755838866052 14.434440899243835 15.151126294243547 0 1 0
302 0 2 0 -5.8260740159563325 16.665380486758025 13.05317605378431 2 -2 0
545 0 2 0 12.430819326753399 0.4341864131370339 10.85667284045086 1 2 0
204 0 2 0 6.8326356205543854 2.207021495353245 7.909148841151989 2 2 0
755 0 2 0 4.722107403628787 14.9280855178818 4.426288253094313 -1 -2 0
691 0 1 0 -2.5349685368719936 13.117339470513505 14.689800349999768 1 -1 0
1116 0 2 0 5.085202465473799 6.527628752187307 14.83773530411456 0 -1 0
548 0 2 0 2.074170206022042 1.3523241896728502 10.608980803165364 0 -1 0
1035 0 2 0 6.796707699625216 9.218330542395176 8.318821995884758 1 0 0
1232 0 2 0 5.978801753274721 15.400103498204585 -0.36133876481620336 1 1 0
966 0 2 0 1.3190467514859832 6.821628118718486 10.645342374103167 1 -1 0
1030 0 1 0 -1.3507750545442785 9.107684963089664 10.807989010253346 0 -1 0
899 0 2 0 0.7160000217742704 -1.6998836971696045 8.913458026253586 0 1 0
496 0 1 0 3.522896599966533 15.432869776374922 9.476318248575884 1 -1 0
35 0 2 0 5.142142063164001 12.406679482134367 9.368285822646556 -1 0 0
532 0 1 0 3.6499383330114292 16.946945165587028 1.4803842206251474 0 -1 0
1382 0 2 0 6.3305078660674985 13.61429597710989 10.740427748901988 1 1 0
175 0 1 0 -4.632549815292352 7.952085951011103 10.416671674444862 -1 -1 0
1135 0 1 0 10.513676966232204 4.535888528908244 13.271330356097709 2 2 0
379 0 1 0 3.404981150517212 10.399459478911641 15.432337026376025 1 1 0
525 0 2 0 -5.7890401767158925 13.685961615310966 14.9268973749671 0 -1 0
233 0 2 0 -6.032197028783387 17.074346607153238 5.740498252020704 0 -2 0
1047 0 2 0 7.831424711100213 9.195639168133958 6.057448838826168 -1 -1 0
20 0 2 0 5.425839249618088 8.802505568972393 13.823163403323356 -1 0 0
1084 0 1 0 5.383805015764985 -0.13253509368172578 8.983382456719214 -1 0 0
855 0 2 0 7.964282593038751 13.276377150026608 3.2510194504042573 -1 2 0
1568 0 2 0 2.7155497745235553 15.001767585050535 14.37412366207418 0 1 0
1034 0 2 0 6.17509866386765 9.431631678161539 9.78167771507033 1 0 0
325 0 1 0 7.466265717176107 -2.008887437603923 15.002645319780068 -1 0 0
191 0 2 0 9.178152054380782 3.273164018512583 13.816030821651733 2 1 0
36 0 2 0 5.234000026218769 12.769167339374464 7.898390619206673 -1 0 0
168 0 2 0 -1.0474868481799986 8.882176967155242 0.9952261367560156 1 1 0
194 0 2 0 -2.929576555229464 10.470693767384248 14.460205582183233 2 0 0
337 0 1 0 4.414309873722584 19.501761846946536 3.0920657835766834 -2 0 0
824 0 2 0 7.7726843076076415 0.15542348917785276 11.65497130585122 1 2 0
524 0 2 0 -4.21609755684065 13.923662773303557 15.148383562846055 0 -1 0
383 0 2 0 -2.2564996691967942 9.57716680851572 5.265410815342688 0 2 0
748 0 1 0 4.758900538835472 10.080651362395175 6.5939631888954295 -1 -2 0
440 0 2 0 -0.9815738909427355 3.9652962926208426 12.201595293333089 -1 -1 0
915 0 2 0 -4.391224491857659 18.263551473230738 6.800006986634322 -1 -3 0
871 0 1 0 11.362714957174246 -0.8532366266739904 4.809915893668379 -1 0 0
922 0 1 0 7.350454676798338 5.747932875522418 6.144433472356015 -2 -3 0
2187 0 2 0 0.09882566419535252 5.281147602456318 0.0067259957723230235 1 1 0
1179 0 2 0 6.837818071742716 15.436909920442403 1.9538059242259709 2 -1 0
45 0 2 0 5.09144670331925 -3.7334580947545772 13.503372301161056 -2 -1 0
621 0 2 0 8.725402056442537 -3.088574354088961 15.371048528246718 0 0 0
529 0 1 0 3.541033833318779 2.734787259185509 6.310067991031802 0 2 0
844 0 1 0 3.881918338933283 6.045437255002324 9.118058236665423 0 1 0
202 0 1 0 7.0683816545302625 1.749001341147868 7.092991376447179 2 2 0
962 0 2 0 5.809530428301563 1.434675046661913 13.617259666029021 1 1 0
174 0 2 0 -7.6150278561383296 16.495521335016477 9.816539819905156 1 -1 0
193 0 1 0 -2.5193667846064294 9.892768729381421 13.837788670817783 2 0 0
1159 0 1 0 8.524367463421608 8.18234938350555 1.126674780118362 1 1 0
1048 0 1 0 -2.070286804965684 14.118973618206303 2.1797045771760724 1 3 0
707 0 2 0 -3.093865340263781 9.660917905794062 8.013513551774379 -1 1 0
2271 0 2 0 -0.9602076241325054 8.33202199991419 3.754817615136923 1 0 1
1614 0 2 0 6.475095881828653 16.664178511138157 11.418255344918645 1 -3 0
1152 0 2 0 6.505604889170328 14.336681436495828 6.913418633298639 -1 0 0
1455 0 2 0 -3.321690687073885 9.866672706762929 0.5430048872367903 1 1 0
184 0 1 0 4.16645237741132 4.917722138235416 14.818249241791069 2 1 0
457 0 1 0 8.364995864649389 13.461366605238844 0.3429408318438969 -3 -2 0
84 0 2 0 4.350689252324542 13.931946093341073 2.372389033002882 -1 -2 0
693 0 2 0 -2.0929627771462136 12.82941562601443 15.535563555868787 1 -1 0
26 0 2 0 4.436862344222987 4.326409832080632 5.782408070382372 -1 0 0
1700 0 2 0 13.31602184276792 2.5771326612273118 1.3365496765454314 0 1 0
1049 0 2 0 -2.3575758694878286 13.146092350216309 2.2317196553831344 1 3 0
937 0 1 0 3.9769005904387797 -1.861415292928902 11.2065081959923 2 -1 0
925 0 1 0 6.592524870225654 5.196997390554611 12.02765215093943 -1 1 0
531 0 2 0 3.5587017565458856 1.7694004375024632 6.258143990926728 0 2 0
808 0 1 0 11.867856770450299 6.232551035135479 0.29641590532644213 1 0 0
2278 0 1 0 10.598227775208278 9.440229433618008 2.8643480002093695 0 1 1
2519 0 2 0 12.401981135879616 1.1667102239638993 0.046175154374147875 0 0 1
25 0 1 0 4.839897949674109 4.928280145385095 5.168284562893311 -1 0 0
1199 0 2 0 10.448887380929364 4.673245793472141 2.531759709994835 -1 1 0
253 0 1 0 7.347442708839445 1.7322678598307597 0.03987845006792834 -1 0 0
380 0 2 0 3.920432047647526 10.23191364544005 14.623354706576883 1 1 0
835 0 1 0 5.988422094656132 2.2084607073023363 4.751845968562017 1 1 0
856 0 1 0 2.0700977497179838 17.34993478908806 3.900291353326878 -2 -1 0
449 0 2 0 8.921565912664782 6.485561862579521 14.163748276886444 0 0 0
2437 0 1 0 -5.666267412071441 19.843849932292937 -0.6854466874180829 1 -1 0
1113 0 2 0 2.2094356341760606 1.2141472778133986 4.122056453937918 0 2 0
1153 0 1 0 1.3506384091165522 12.134883936887588 15.330504285243869 0 0 0
1294 0 1 0 -1.188412311722399 15.164082950341006 10.754033397596363 0 0 0
573 0 2 0 -5.739962722835586 9.740070981818604 12.805771554671272 1 1 0
28 0 1 0 10.287246601555802 7.63907817648818 13.912038710579589 0 0 0
631 0 1 0 11.697976556268072 -1.8355154579848196 8.309204538522104 -2 2 0
156 0 2 0 0.03962693943908903 12.946788786119555 -0.5417348418162742 0 0 0
902 0 2 0 -2.6964180567065954 16.162652314254327 10.569561367296007 2 1 0
1198 0 1 0 10.490643452015277 5.65368977126413 2.612172536776282 -1 1 0
1340 0 2 0 0.7549879329171818 2.2966517946880947 2.984714095806361 2 -1 0
484 0 1 0 8.045660305613328 1.9364483538091295 11.05333359615445 -1 0 0
1628 0 2 0 0.6260604236590532 -0.8080544605676243 15.0344046571603 2 0 0
2330 0 2 0 -0.4159299486948935 18.44682644649978 5.527502941594238 1 2 1
430 0 1 0 -1.1208265234186916 3.6805692511998327 15.802592635417415 1 0 0
359 0 2 0 -1.5612715376798487 13.745761330005577 7.539586366138153 0 0 0
908 0 2 0 -4.541596302495473 14.363901235490221 0.12045368847277294 3 -1 0
343 0 1 0 12.873915078547313 -0.015834954597940598 6.959721246153878 1 1 0
420 0 2 0 -1.677708952955772 1.5499063414751406 11.312477704613475 3 1 0
34 0 1 0 4.656845633859373 12.329818260453155 8.530000175336713 -1 0 0
1167 0 2 0 -1.6071894159917708 6.622983405213386 6.738477746654791 1 2 0
533 0 2 0 3.313841094545558 16.10354414177083 1.1170511522782594 0 -1 0
2451 0 2 0 -5.106969715102809 12.063758462393555 6.010945629700617 1 1 1
116 0 2 0 12.936905645930207 4.73146102949528 0.7114864197420043 1 0 0
51 0 2 0 0.7255862104939762 10.476543143961166 12.638350588808168 3 3 0
1112 0 2 0 1.051536497964745 1.3289556423911373 5.211935800351074 0 2 0
1028 0 2 0 5.447293393453246 3.4032335020118403 9.288319771785309 2 3 0
264 0 2 0 8.795194560846474 7.982697757236518 -0.48877495152024775 2 -1 0
1118 0 2 0 0.5174279186285282 5.708315819666452 15.259538206507024 0 0 0
796 0 1 0 -4.940973759825869 17.648506411989963 1.229579340560632 0 0 0
1150 0 1 0 6.216752621333438 13.482571765411976 6.57910747685425 -1 0 0
1250 0 2 0 -0.5820796612669088 10.617329434740034 3.319496951951085 3 0 0
2185 0 1 0 0.7794699314715451 5.284079327010301 -0.7245257453946868 1 1 0
861 0 2 0 8.535626158037115 -1.2176733411255818 7.520789840764506 0 2 0
315 0 2 0 11.250736903266857 0.39180083188818404 3.5093495075579693 1 0 0
448 0 1 0 8.172786950582617 6.09071487098426 14.551629674363058 0 0 0
371 0 2 0 9.18958310102245 10.61358364835592 6.268471690254567 1 -1 0
66 0 2 0 4.567500878756795 -0.3096368194792025 6.5426049500996495 -1 0 0
2517 0 2 0 3.3238832361008113 -2.505535459594453 9.577009598816508 0 1 1
419 0 2 0 -0.677742057016915 2.08595870346939 12.379591561026045 3 1 0
245 0 2 0 8.845141061465016 5.655577782485777 -0.38058181611324254 0 1 0
170 0 2 0 6.784407255676971 4.679038018511279 0.20147641550584283 2 2 0
983 0 2 0 -7.225692633165337 19.56080990328031 4.623380556605481 -1 -1 0
254 0 2 0 6.910400176924328 2.373001971242616 -0.5791560419728276 -1 1 0
609 0 2 0 7.387620663148353 11.022674541035563 2.0545196869016626 0 1 0
1264 0 1 0 0.7960801339601873 14.296696246522242 3.166882674326576 0 -2 0
963 0 2 0 6.6378693642727535 0.06079909647976134 13.386137564075453 1 1 0
797 0 2 0 -4.9574391846430865 17.13565738584795 2.0655568748260182 0 -1 0
1114 0 1 0 5.631448694245421 7.328278426499982 14.709166474857561 0 -1 0
283 0 1 0 -1.2383745561521609 5.686067908801913 1.317402308133064 0 -1 0
694 0 1 0 2.3785744779537907 4.85397371290186 1.6287571106386505 1 2 0
698 0 2 0 1.1819390306656992 -1.872700688939513 12.361500747975999 0 0 0
2444 0 2 0 1.4858891171247561 12.237272495089336 5.57212900120963 0 0 0
2582 0 2 0 8.497396900721915 11.535648409724313 8.353616658484372 1 0 0
528 0 2 0 -0.46715825224023305 11.674154529676958 6.995185169622176 -1 1 0
2449 0 1 0 -4.328479488237737 12.0612476463453 5.369476645693134 1 1 0
1227 0 2 0 8.395674697596972 -0.40645157234238916 15.355063558088585 0 2 0
555 0 2 0 -4.52427153564397 7.090294184394519 13.686478270568463 0 -1 0
338 0 2 0 4.873461601014415 18.64832130925004 3.3306702660080587 -2 0 0
43 0 1 0 5.828168854103337 -3.188595189814587 13.202835305614046 -2 -1 0
64 0 1 0 3.701541667954344 -0.12451008293044286 6.146383570282246 -1 0 0
809 0 2 0 11.519890832171404 5.639444707399088 -0.38810192979690245 1 0 0
203 0 2 0 6.566775553380713 2.1211572246602124 6.319325612241514 2 2 0
1627 0 1 0 1.2442233849228679 -0.08183858806149757 14.697492894930432 2 0 0
473 0 2 0 -4.182908046162498 14.183995083902033 8.703957895414556 -1 -1 0
572 0 2 0 -4.964677860347093 8.978005798903315 11.639515143589897 1 1 0
582 0 2 0 3.4745947896429943 9.988899946173493 1.3030185695382608 -2 -3 0
2293 0 1 0 13.321783872358251 0.5692662663555828 13.771460824946177 0 0 0
382 0 1 0 -2.8861323702114103 9.616676424090324 6.028509848834078 0 2 0
413 0 2 0 1.825909234879209 3.698176539932801 13.055373192252869 0 -1 0
936 0 2 0 10.353527788994136 2.355901571353356 1.8369982129213676 1 -3 0
2530 0 1 0 4.572533009155827 7.136676656524165 11.460284677501225 0 1 1
220 0 1 0 11.55952203410482 -4.651926490308518 13.742153444196132 1 0 0
1005 0 2 0 2.1474103452600124 14.23487411655562 1.5344811366955464 0 -1 0
212 0 2 0 7.776729350165708 1.7016810522355748 1.9632698030505717 -1 -2 0
2342 0 2 0 5.3460983951969245 6.350278923933048 0.8051955078043349 0 0 0
697 0 1 0 1.9352258121486576 -2.3587023276520074 12.78480027519973 0 -1 0
372 0 2 0 9.99599643291602 9.315069919908678 6.103587766798515 1 -1 0
486 0 2 0 7.334504550941926 2.500214078804997 10.576305965458593 -1 0 0
321 0 2 0 -1.295697756900151 7.204015432710731 15.268666894015526 0 -1 0
756 0 2 0 3.831177712534356 15.950037483817574 5.275741869824471 -1 -2 0
585 0 2 0 3.9744548300474545 2.3040481259386745 0.3452182261467238 1 0 0
1381 0 1 0 5.9658403753519655 12.80327193369082 11.10153177552002 1 1 0
497 0 2 0 3.529487603991539 16.06335974075772 8.710571272911908 1 -1 0
579 0 2 0 7.384645605399135 16.537584867276482 7.020495359252077 0 0 0
2413 0 1 0 -1.3248637437997042 15.896537261703417 4.675137465353924 1 -1 0
800 0 2 0 3.840157854546888 10.170396830178763 10.610826981293851 1 -1 0
2583 0 2 0 7.6990180262475265 12.115434314946231 7.141409800757529 1 0 0
2221 0 1 0 3.7213217738290965 17.57055280289688 7.475387274031469 -1 -1 0
926 0 2 0 7.119295631646633 5.410953025313671 12.792413585481164 -1 1 0
1129 0 1 0 3.2069487113877204 7.956450473313373 6.92560112544889 3 3 0
1151 0 2 0 5.810865854774673 13.56244124062313 5.72888671202312 -1 0 0
446 0 2 0 8.549351550313702 1.6049922346231842 5.957253077500809 0 1 0
1166 0 2 0 -0.5515383445896238 5.641431131186637 6.088470285167244 1 2 0
1262 0 2 0 1.5873094187016115 0.7076394827327062 8.747229020755116 -2 1 0
578 0 2 0 5.911116087031933 16.498362934690597 6.519284488816004 0 -1 0
904 0 1 0 0.45081734710659616 20.050157288673738 1.7377301211119653 1 -1 0
1252 0 1 0 5.600261185210744 20.48805929926208 0.4191494085568974 -2 -2 0
663 0 2 0 6.951388453095722 -1.0149329923791193 4.777816381631611 0 1 0
78 0 2 0 8.768649151513966 5.564226386138618 2.967662670651917 -3 1 0
599 0 2 0 12.73141603567992 2.569878679354999 11.81107795389229 -2 0 0
799 0 1 0 4.751377263790225 9.882573464419833 10.971023406524061 1 -1 0
1146 0 2 0 5.047304721608836 13.373334049060926 -0.522427741272701 -1 -2 0
89 0 2 0 -3.118501656655657 7.354675611800041 3.4461776467264826 1 0 0
1289 0 2 0 13.207390900304647 -2.2991312618884616 12.29961011251941 1 2 0
284 0 2 0 -2.0552796899975383 5.963127397458044 0.8535802410164031 0 -1 0
1569 0 2 0 3.8444774917724303 14.198766450617178 15.237243360980901 0 1 0
913 0 1 0 5.416262505133222 -2.686385495634491 7.316047779541275 -1 -2 0
469 0 1 0 -3.8702156046339073 12.23809903418644 12.369802587020537 1 1 0
655 0 1 0 3.947944794828254 0.8415451153890017 3.268815846333342 1 3 0
320 0 2 0 -2.1644949389582204 8.480851429066018 14.839021227408526 0 -1 0
2329 0 1 0 0.07724436211315633 18.89089512938707 4.819087684483466 1 2 0
546 0 2 0 11.474541461204014 1.2306242519812325 9.978936977280375 1 2 0
439 0 1 0 -1.0136122863835526 4.953398094228574 12.198036817930726 -1 -1 0
649 0 1 0 0.06289620857643924 1.8955811056196674 -0.26765350681884736 0 5 0
213 0 2 0 7.249184407864057 1.9551349148512391 3.3893235991706234 -1 -1 0
2222 0 2 0 3.314823442399378 18.42572768883454 7.721807384807628 -1 -1 1
831 0 2 0 1.5729634139554172 7.0648342632143635 13.31511671759933 1 -2 0
313 0 1 0 10.779620568736755 0.8921130868515641 2.841788690748741 1 0 0
656 0 2 0 4.017793921091745 1.2001232553370316 2.338362360419299 1 3 0
964 0 1 0 1.3375777590128628 5.917261232890256 11.08932169399914 1 -1 0
859 0 1 0 9.074083888706442 -1.403284140300108 8.328688248240566 0 2 0
2341 0 1 0 5.340126096565865 7.352828283427683 0.6210051748137739 0 0 0
169 0 1 0 6.1191476020194076 4.641112075604314 0.9464328126534662 2 2 0
1214 0 2 0 9.943374224428345 12.336941143075032 1.0750192046907205 -2 -2 0
1004 0 2 0 3.1706669234269103 13.477356548004122 0.5842179159397829 0 -1 0
381 0 2 0 2.603249302233718 10.91287171827889 15.186213176350797 1 1 0
901 0 1 0 -3.4208726729164587 16.725386171816627 10.252202583114562 2 1 0
1254 0 2 0 6.175267070560865 19.837370433472323 0.8668487210750253 -2 -2 0
752 0 2 0 9.89532788719607 5.22604618392925 11.760027582073958 1 1 1
575 0 2 0 9.9909681258784 9.501606116349826 11.660507201679335 -1 -4 0
787 0 1 0 1.3489173052912569 8.349642954239778 10.014314922953035 0 0 0
1351 0 1 0 -6.802407438055668 11.918733400491003 14.836829521381295 1 0 0
297 0 2 0 7.06301426704607 10.70871938380516 13.322886203003236 0 2 0
639 0 2 0 1.9373425067758818 6.731447408177157 4.409794464280506 0 -2 0
83 0 2 0 4.655857353556463 12.784681442120853 3.3596411079840527 -1 -2 0
699 0 2 0 2.2276296885663034 -1.6427108292874522 13.408307608426181 0 -1 0
825 0 2 0 8.559583586464429 -0.8305236579573152 12.519721429133194 1 2 0
774 0 2 0 3.796039036104068 -0.027087984068957738 11.37561700607678 0 2 0
661 0 1 0 7.144899808365111 -1.2427970353290294 3.8322222941417676 0 1 1
483 0 2 0 9.470819286084875 3.4034371654386604 5.720423281995988 0 1 0
339 0 2 0 3.4797586149039574 19.317429609465083 3.3881842061058203 -2 0 0
269 0 2 0 4.5668640046813955 12.621487661674422 13.45766232993271 -1 -2 0
1245 0 2 0 0.583007359596215 -2.937788574434912 15.651184738264458 1 1 0
692 0 2 0 -1.8596051667173596 13.740697745570163 14.395118198031275 1 -1 0
271 0 1 0 2.438214139117882 19.545169013283736 -0.15682863177138862 2 3 0
1086 0 2 0 5.593303558082692 -0.7375596867975971 9.677819881328775 -1 0 0
136 0 1 0 6.611781312809388 6.060964719353173 8.821391427048429 0 -2 0
1003 0 1 0 3.048370013761337 14.223840455429206 1.2601394320039931 0 -1 0
1136 0 2 0 11.237251151465305 3.9195553328789714 12.973678260003814 2 2 0
44 0 2 0 6.491299511141368 -3.782896068341016 12.761884434311902 -2 -1 0
602 0 2 0 -6.566562666526559 12.859320713010561 11.199231917639926 1 -1 0
291 0 2 0 4.164478743278976 10.660061302140925 3.5167852700173405 -3 -2 0
2439 0 2 0 -5.316732637109985 19.240047949610496 0.07588892288431248 1 -1 0
1017 0 2 0 0.1675605010455227 7.794697399404646 7.080708860953824 -1 -1 0
2371 0 1 0 2.4410713154893418 10.903829132197941 9.806749849028463 0 0 1
881 0 2 0 0.599746719235044 12.335921806441888 1.485617515650468 2 1 0
460 0 1 0 2.0785565734744584 -3.7276516835131392 15.825771007864123 0 0 0
2401 0 1 0 1.4394635129956213 13.485130684973583 9.514689585978505 0 -1 0
544 0 1 0 12.304587352284184 1.3173762235786386 10.53181736196806 1 2 0
1130 0 2 0 3.6365119787119493 7.313677041653477 7.530373165015124 3 3 0
650 0 2 0 0.2478912319943296 0.9451737533653968 -0.3292235086543839 0 5 0
296 0 2 0 8.484636745461078 10.841976513932579 12.683203017716693 0 2 0
895 0 1 0 0.7387385904670498 7.960329953334533 1.4413119870826727 1 -1 0
701 0 2 0 -0.3237175227642109 15.155565828737359 14.943682728619462 -1 -1 0
346 0 1 0 -1.8406591243857306 4.565833262905048 3.676636179810078 3 4 0
2372 0 2 0 1.914855366393214 10.104971001571315 9.833313325540496 0 0 1
830 0 2 0 2.5841893505281672 7.251004458789377 14.438456214894304 1 -2 0
1190 0 2 0 13.596430119598994 2.6432664466549927 5.112696935104991 1 3 0
18 0 2 0 0.9216329294651564 16.304572186031564 9.575999722707511 -1 -2 0
733 0 1 0 -4.266785455605165 10.850087828036388 15.77982104689831 -1 0 0
1225 0 1 0 9.044298654588534 0.3235231507833527 15.306822606030394 0 2 0
16 0 1 0 0.47663579116070853 16.45577988010568 8.763861243027275 -1 -2 0
720 0 2 0 0.21451829349179968 -0.824330485026162 2.147168062511451 2 1 0
999 0 2 0 -3.178960729869139 12.630862388515903 -0.5807998307461426 1 2 0
164 0 2 0 -7.452079702665443 20.54804851007176 -0.08438675218184799 0 -1 0
351 0 2 0 7.24947341629533 17.883756658836184 1.418825919736447 2 -1 0
798 0 2 0 -4.667909572359397 17.054912561618252 0.5410898750486874 0 0 0
967 0 1 0 -3.914704622245321 12.677442467945305 9.356562315526775 -1 -1 0
506 0 2 0 6.242222005432501 13.781572081753584 14.269074178211223 0 -1 0
167 0 2 0 -0.5895582152279651 10.231169954251133 0.7324930321123035 1 1 0
1046 0 2 0 7.287411138411033 7.80611583126002 6.007215761665996 -1 -1 0
2373 0 2 0 2.8498844704518924 10.911663253787102 8.96229995645698 0 0 1
1219 0 1 0 2.064106847093204 8.38110714259981 3.7976257058240366 0 -2 0
412 0 1 0 2.6219232578355225 4.11066064921551 12.777412804082788 0 -1 0
327 0 2 0 6.9460016723585625 -2.5792024761015773 14.444246316633423 -1 0 0
411 0 2 0 -7.339000648904742 18.582730887329625 2.590016662622254 2 0 0
211 0 1 0 7.81937623977325 1.3699559367978402 2.8844399059617656 -1 -1 0
734 0 2 0 -4.998740211632303 11.329331285104736 15.373126301972462 -1 -1 0
851 0 2 0 11.72357279063824 5.3644675129348975 9.10422061165089 1 2 0
1154 0 2 0 1.7004564319840867 13.048477481939052 15.343229080754941 0 0 0
236 0 2 0 -2.4109958822594257 14.565925302172595 5.452237099898899 0 -1 0
708 0 2 0 -4.036184711145344 9.23380741505757 9.094619565496364 -1 1 0
1161 0 2 0 8.397631037220957 7.424454114332631 1.73007166953431 1 1 0
972 0 2 0 -4.239188420512027 19.047512378298297 1.8125545593731687 0 1 0
345 0 2 0 13.568037245227101 -0.17675831410616016 6.273945942132712 1 1 0
938 0 2 0 3.202664861055465 -2.049703843840068 11.798247776859547 2 -1 0
1111 0 1 0 1.6443394233282747 1.817432345792603 4.547147458880702 0 2 0
285 0 2 0 -1.3736957369373048 5.6163223022292765 2.2594378561762336 0 -1 0
2259 0 2 0 -2.3662024488821554 12.219390940709111 11.293569115870676 1 1 0
137 0 2 0 7.029748851330915 6.1591896486656115 7.923872234008822 0 -2 0
764 0 2 0 2.30792195888122 13.29293747689454 12.755275204692722 0 -2 0
601 0 1 0 -6.489667451792886 13.32577543976577 12.06615333147733 1 -1 0
21 0 2 0 5.080713930273493 9.919097219559475 12.737009049921397 -1 0 0
498 0 2 0 3.302941704924102 14.525833171516606 9.142737049852737 1 -1 0
2403 0 2 0 1.627605517681361 12.514561995551013 9.553269623446639 0 -1 0
432 0 2 0 -2.0006236968726263 4.030876999254365 15.578066034463863 1 0 0
77 0 2 0 7.803165989146397 5.619307142890211 4.193741130039108 -3 1 0
1078 0 1 0 2.323767226020506 10.129844332216017 12.549188883818534 0 -1 0
747 0 2 0 10.671366389114013 -1.7688764989390888 13.360411045100577 1 1 0
2581 0 1 0 8.070942381965395 11.310672242895738 7.4835680327639675 1 0 0
746 0 2 0 9.546347453493654 -2.7073147545691265 12.659658324927058 1 1 0
581 0 2 0 4.102817172976845 11.266782229617396 0.6999631875746783 -2 -3 0
618 0 2 0 0.8764325527669568 1.9243724111653604 14.11024792436472 0 0 0
1211 0 2 0 -6.985715613843648 15.541577457737954 6.548685782490722 0 -3 0
384 0 2 0 -3.5358002321346884 8.927046318995284 5.841517723721238 0 2 0
696 0 2 0 1.9914244025963797 5.02958295261071 0.7640356398558619 1 2 0
1288 0 1 0 13.582912698476937 -2.848518407407712 13.013494562633305 1 2 0
971 0 2 0 -3.3782751590043096 19.871284021309883 2.7352571356973105 0 1 0
1144 0 1 0 4.570654623374323 12.53475834801229 -0.41788408080314215 -1 -2 0
1015 0 1 0 0.7222392552832041 8.530731781417494 7.291470699248524 -1 -1 0
853 0 1 0 7.393969334866561 12.777471751259998 2.6153639534885156 -1 2 0
1383 0 2 0 6.676309050400333 12.373733654293094 11.594922326852624 1 1 0
221 0 2 0 1.9429366153426828 16.77990615305216 12.844676887510023 1 -1 0
471 0 2 0 -4.060824691999783 11.282546455699336 12.30378065610668 1 1 0
150 0 2 0 7.204456258579969 -2.11188957644229 10.972243080831747 2 0 0
1226 0 2 0 9.919316818572302 -0.1474386976045885 15.270619246126062 0 2 0
969 0 2 0 -3.663863021739739 11.860864268627324 9.000353763557428 -1 -1 0
1253 0 2 0 4.893421009216831 20.751970443107435 1.134447965663038 -2 -2 0
2415 0 2 0 -1.1440127680330763 16.36518221668519 3.8426968560202805 1 -1 1
187 0 1 0 7.447971294500517 14.65903810328449 13.59555568712194 -1 -1 0
1031 0 2 0 -1.061323735939932 9.805961698931476 11.448377665699786 0 -1 0
1200 0 2 0 10.982258159247122 5.8254027801754065 3.429446251908013 -1 1 0
623 0 2 0 11.203020278273835 2.1832103444199413 5.920875274472225 0 0 0
1117 0 1 0 0.0795124842829239 6.2927049078168205 14.579191533964835 0 -1 0
2402 0 2 0 0.8088441139642149 13.560115733744954 8.825330073439014 0 -1 1
837 0 2 0 5.349207716260532 1.5534350550944962 4.546052378877637 1 1 0
757 0 1 0 5.172252438938817 2.7601151795456884 12.383193303642303 0 1 0
561 0 2 0 3.8724746958331884 8.330533174602772 0.10606659079881786 0 0 0
1137 0 2 0 10.990922366166584 5.0035242254910965 13.941781898524821 2 2 0
148 0 1 0 7.104466693029839 -2.4986933069871755 10.094145483508283 2 0 0
1266 0 2 0 0.45590853894597305 15.014436743767922 3.744127206798872 0 -2 0
126 0 2 0 4.367784885869693 -1.4611690027959172 15.035220093642103 0 0 0
2515 0 1 0 2.948328406941459 -2.731733705661416 8.685047230861398 0 1 1
1290 0 2 0 12.90233028468293 -3.4614823359990514 13.30331519004358 1 2 0
560 0 2 0 2.330692569133783 8.194849438823624 0.37863513252686354 0 0 0
485 0 2 0 8.196526985657487 2.318525380912223 11.935792265443187 -1 0 0
1212 0 2 0 -5.943125409756289 15.541404310589263 7.60755613050287 0 -3 0
125 0 2 0 4.669047529269611 -0.30703560686236653 14.112583941693387 0 0 0
1016 0 2 0 1.6456056531984153 8.332892761107988 7.007237917443069 -1 -1 0
1578 0 2 0 10.058962643672947 3.3340570510355603 9.163991004968908 0 1 0
935 0 2 0 9.653450200443379 3.3227177269499903 0.8876149241281903 1 -3 0
982 0 1 0 -6.3725575147526365 19.76822926897756 4.1732173501534895 -1 -1 0
1119 0 2 0 -0.3134013525912088 5.688007332167684 13.970235959119208 0 -1 0
773 0 2 0 4.34781283075662 1.4167999681361074 11.578824420975318 0 2 0
474 0 2 0 -3.5834190085541295 14.735780317206377 7.3713746785081025 -1 -1 0
1165 0 1 0 -0.9059499406608735 6.57070077242536 6.109243265546701 1 2 0
1296 0 2 0 -1.301671648440122 14.17957180290287 10.878002163766432 0 0 0
1269 0 2 0 -2.4159733260283867 6.058213825302132 12.081911750496994 1 4 0
2351 0 2 0 12.076865264488815 8.067244600920482 -0.46195076832772825 0 0 1
897 0 2 0 1.1316671034771657 8.072099808483987 2.334641983956197 1 -1 0
934 0 1 0 10.468413551839912 3.187898774698596 1.4044496499108976 1 -3 0
1699 0 1 0 13.321761394296056 1.6155159505519054 1.5420198296487069 0 1 0
441 0 2 0 -0.1486555447933144 5.239286372804123 11.7887463832946 -1 -1 0
198 0 2 0 -3.494935770906265 15.602744359308902 3.2887594797674558 0 -2 0
788 0 2 0 0.46760330890096885 8.654155936585662 10.37035875589672 0 0 0
958 0 1 0 4.837142908560613 8.273752610109796 3.451154379689079 0 0 0
2227 0 1 0 12.137884300245698 -1.4935348833827145 10.910346735161797 1 1 1
1160 0 2 0 7.815744848118146 8.883333208943403 1.2630868476784594 1 1 0
2414 0 2 0 -1.5404389783795458 16.56135418045085 5.310261782232949 1 -1 0
1204 0 1 0 15.32957053174433 -2.7949987213536414 8.86761489945903 -1 1 0
386 0 2 0 8.579548465159 8.497727972118653 9.735887371306825 1 1 0
2257 0 1 0 -1.5294820899656831 12.381275188645734 10.8661225957971 1 1 0
1267 0 1 0 -2.878851777728291 6.919809466881603 12.14123969879197 1 4 0
1413 0 2 0 9.551111297303567 0.4382820883085228 9.06872961188907 -1 1 0
833 0 2 0 11.998364547351608 -1.567114910462653 15.23976427740236 -2 2 0
259 0 1 0 -2.781011251755236 11.59061137686429 2.3274801530169418 -1 0 0
1292 0 2 0 -5.512435703239535 12.585020646601262 3.6507224732246453 0 1 0
512 0 2 0 7.017136234705009 3.1307167627952737 15.150763020534027 1 1 0
740 0 2 0 -2.862683634042514 20.53116535088343 0.7085232971064261 0 -1 0
970 0 1 0 -3.8973861168412705 19.9763906818995 1.8684078967855502 0 1 0
255 0 2 0 7.037322164833092 0.8521425826793027 -0.2208490210267413 -1 1 0
268 0 1 0 3.8803924967598644 12.385348970047735 12.801674704216556 -1 -2 0
1236 0 2 0 1.3052049212877774 15.178273729784344 11.696758640226939 -1 -2 0
633 0 2 0 10.742001905357244 -1.905881771014281 8.277260804641116 -2 2 0
776 0 2 0 -2.306544180205656 4.303830529819196 5.629461553830291 1 2 0
2531 0 2 0 4.180704382380848 6.616151971886761 10.750563199958696 0 1 1
968 0 2 0 -4.641641605680255 12.4560535703859 9.937700282946889 -1 -1 0
2269 0 1 0 -1.4395969525955945 7.424762947348753 3.66346528694225 1 0 1
222 0 2 0 10.779272845842836 -4.6066995567260705 14.307524494056631 1 0 0
1027 0 1 0 6.449205406461524 3.275924193005911 9.277665962475302 2 3 0
846 0 2 0 4.7713382522533125 6.023931526464585 8.831622613637183 0 1 0
1206 0 2 0 5.534303157480078 18.02801212632683 8.685321058513452 -1 1 0
807 0 2 0 -6.24918453789799 15.181110056329583 11.215841090908725 1 0 0
750 0 2 0 4.779528265020884 10.862375236123627 7.28771592598755 -1 -2 0
873 0 2 0 10.50165421990292 -1.2698437734809573 4.980321306831247 -1 0 0
607 0 1 0 7.0134838748684825 10.218227087014075 1.5505815872037996 0 1 0
360 0 2 0 -1.5867474495266898 12.95011418221782 8.920475381081625 0 0 0
260 0 2 0 -2.2909254838025874 10.992558689141816 1.791557989591476 -1 0 0
872 0 2 0 11.706129776847751 -0.7757472090730335 5.7020081338706525 0 0 0
723 0 2 0 -2.0873394480187093 18.057493145445665 7.120727619067666 -1 -1 0
2532 0 2 0 3.8935308459640616 7.042828086722226 12.189442329540736 0 1 1
885 0 2 0 5.973059739130026 0.6827469516105982 15.777872696355072 0 1 0
1261 0 1 0 1.5780542850801176 0.0255778928296162 8.070360291717984 -2 1 1
1033 0 1 0 6.893827208187157 8.98836558781073 9.278537458724339 1 0 0
27 0 2 0 4.039322639118886 5.4577646890427145 4.885819313577631 -1 0 0
49 0 1 0 -0.17085841950462038 10.858527712010503 12.79978214412837 3 3 0
860 0 2 0 8.485989513991528 -1.7513432812616554 8.97201373574085 0 2 0
1178 0 2 0 5.6989402376467355 16.530683518296215 1.6065327538078096 2 -1 0
527 0 2 0 0.23825814622856456 10.223816823448873 7.060941411909796 -1 1 0
197 0 2 0 -4.632862012528086 14.541586819888066 3.113417954957597 0 -2 0
1663 0 1 0 -3.223482564324734 5.1511818294957035 15.266833176106141 0 0 0
819 0 2 0 0.5054858430039947 0.6584840655161743 7.05077675100634 0 0 0
580 0 1 0 3.719508921834751 10.87723245528315 1.55264615405004 -2 -3 0
124 0 1 0 3.9099085553293533 -0.913484190706404 14.38947323878893 0 0 0
481 0 1 0 9.4024968348849 4.234256598720158 6.1549037945720455 0 1 0
1453 0 1 0 -4.017422407577676 9.649354812672891 -0.07534331562273533 1 1 0
1131 0 2 0 3.7476128227913015 8.783028296152057 6.956277930207953 3 3 0
1080 0 2 0 2.7137780928381035 9.398750821612712 13.035854167516502 0 -1 0
939 0 2 0 4.745916410038016 -2.226836584477896 11.661074375064326 2 -1 0