LAMMPS data file via write_data, version 23 Jun 2022, timestep = 17787000

2592 atoms
2 atom types

0 31.157 xlo xhi
0 21.485012 ylo yhi
-0.7926308320979096 32.54879882417655 zlo zhi
-9.195174 0.7676919109883867 -11.233038430963827 xy xz yz

Masses

1 1.008
2 15.999

Atoms # full

1295 0 2 0 9.175494055246572 5.769183953001601 8.058131714186086 0 1 0
1131 0 2 0 8.412126246057129 1.5030624624475228 10.289246459497457 1 1 0
644 0 2 0 0.7721908590181794 12.711612362927347 13.301541726158202 0 -1 0
555 0 2 0 6.610324249380436 11.42820005023251 13.621062986858961 1 0 0
27 0 2 0 -2.8294783501254797 8.198798838682368 -0.31888701511016637 1 0 0
870 0 2 0 -4.2174213678141825 12.704050891532116 0.5692296400781698 1 0 0
1568 0 2 0 -4.936508523413987 19.91376729770235 3.407080233168961 0 0 0
657 0 2 0 -4.823135690400787 10.69700816851866 1.743284168445256 0 2 0
734 0 2 0 1.6425089790957 14.718356832413841 12.169910442801225 0 0 0
553 0 1 0 6.728794557860495 12.359208167567335 13.41978445581666 1 0 0
541 0 1 0 1.2124445885170692 4.098118547497744 -0.55374646157287 1 0 0
1273 0 1 0 -0.33669747302300895 10.183836213158472 11.830170908391255 0 -1 0
960 0 2 0 -1.7303120429702945 1.7948868456293106 11.791463545162115 -1 -1 0
61 0 1 0 5.236340081123899 15.516649179321462 12.301152321035914 0 0 0
608 0 2 0 8.005813699645417 7.64472497519743 1.9579083351824664 0 0 0
1172 0 2 0 2.992308911021715 17.438810055200623 8.255217447034585 0 1 0
1699 0 1 0 -4.745344535648334 18.67739809877 -0.30860554111250205 0 0 0
364 0 1 0 5.006409124852905 5.342707774140189 7.098492001799606 1 1 0
73 0 1 0 9.858830012804725 6.7337107158964775 10.873465545012982 0 0 0
540 0 2 0 12.027114031395785 1.3281300236523306 6.849328973397505 0 2 0
1208 0 2 0 8.714557652950633 8.504835464468822 11.559391087990031 1 -1 0
249 0 2 0 5.884891697173909 14.183892317882988 8.007736112057172 0 -1 0
924 0 2 0 5.154333883889904 1.0401999038042966 13.9606722190797 -1 0 0
1170 0 2 0 6.79695558107132 -1.3447117232376127 6.62578491141823 0 0 0
1289 0 2 0 11.03129899435398 2.2391166462724046 11.302458992905766 1 0 0
1159 0 1 0 6.618750306129629 9.69538208853032 4.272898642297877 0 1 0
935 0 2 0 7.75200466577642 9.63048214338199 8.899864385051943 0 0 0
566 0 2 0 1.3221416374934727 -2.355150206257067 8.045134847785887 1 1 0
996 0 2 0 2.4419969628122127 9.7494652710351 5.049190802863828 -1 -1 0
2185 0 1 0 -3.3491600332180984 11.14308302656707 10.280931162092463 1 0 0
1202 0 2 0 1.6999842165086523 16.37810003861115 1.6151541628560073 0 0 0
579 0 2 0 -1.6958653712199294 13.078691383790172 11.15889556656716 1 0 0
375 0 2 0 8.180350625336432 12.18458752856678 8.376215887332224 -2 -2 0
1239 0 2 0 6.1470528685008565 4.071524810584909 7.76301203373677 1 2 0
939 0 2 0 -3.268081033473541 14.79262593173982 5.800418638498411 0 -1 0
536 0 2 0 -1.4432609853620104 7.28474932567317 9.264522122116785 0 0 0
120 0 2 0 2.84100119970474 -0.6314627001522797 5.589613607292868 2 2 0
113 0 2 0 6.481259462505563 3.526811794435737 2.1639532439493836 0 0 0
149 0 2 0 0.08127891845578021 9.037581960923891 3.3532270309140477 1 -1 0
696 0 2 0 7.145539085978157 3.0787734257112547 15.6371554429535 0 1 0
905 0 2 0 -2.5431850686332593 9.009717270834564 15.271339319929709 1 0 0
1258 0 1 0 3.116942981655612 4.959678453842061 13.53360669007279 0 -1 0
422 0 2 0 5.17909818736067 14.50868140361203 1.5267624741121684 0 0 0
577 0 1 0 -0.8730087090708201 12.856123973005012 10.84868806926169 1 0 0
1201 0 1 0 2.4103388237407963 16.153516362344476 0.9844351924403947 0 0 0
451 0 1 0 4.418580209089955 -2.4071430040087645 14.22832801977942 0 1 0
561 0 2 0 7.888016972687194 0.11703009290612121 2.7218063664291012 0 0 0
136 0 1 0 4.073083669069071 12.861328168935806 4.656557601518815 0 -2 0
1259 0 2 0 3.4306325605797894 5.872296578888083 13.595681421593486 0 -1 0
324 0 2 0 1.7826938191874067 12.084804270859454 7.872456170147068 1 1 0
331 0 1 0 -0.24553718889207277 2.4246269724826988 13.443987822490973 0 0 0
1062 0 2 0 6.440405061219738 5.703703394641611 3.536100601220342 0 2 0
808 0 1 0 7.53329315864901 15.385989325842784 10.341315758353714 0 -1 0
862 0 1 0 6.028497133587133 11.754883320763144 0.07485386139527062 0 -1 0
727 0 1 0 3.9546292975725947 16.77921896555615 4.032503350529687 -1 -1 0
130 0 1 0 2.7528558500659233 11.397824590663278 11.334529314566067 0 0 0
1019 0 2 0 11.14758176929664 1.9662955237659276 9.102450202397131 0 1 0
35 0 2 0 -4.925991935609629 16.277158146953383 4.0017207533653645 0 0 0
702 0 2 0 -0.8955511107031928 6.3744756001631515 0.9216358873710153 0 0 0
399 0 2 0 7.248833125820321 14.531597534031675 6.239811555934453 1 0 0
270 0 2 0 6.925928381321162 12.760998200363453 2.723685573693579 -1 -1 0
311 0 2 0 11.404858566571534 0.1519315624516473 12.359609219671723 0 1 0
866 0 2 0 0.8697119554424785 8.180673571702243 6.161937597034059 0 0 0
1250 0 2 0 6.767805398108458 0.0448177543121806 4.663849672740069 1 1 0
51 0 2 0 12.363968574483595 -1.6192716483996445 14.808861401662506 1 1 0
300 0 2 0 -1.5766566920665739 17.2901675180106 8.499071218571656 0 0 0
897 0 2 0 -2.27996347333606 4.850387771493844 8.536306832414663 0 0 0
942 0 2 0 7.5709534522793955 6.764799378564437 15.817859795857306 0 0 0
436 0 1 0 5.417523302539088 -4.905990896974694 15.157449439807934 1 1 0
884 0 2 0 0.7324033131068469 -0.8833199667825986 12.245117264112197 0 1 0
343 0 1 0 9.948879382378173 -3.970004805395076 13.218589233636713 0 0 0
106 0 1 0 2.0571410515406963 7.936503502015338 -0.41605029018921497 1 0 0
194 0 2 0 2.982167390032197 6.259815958864538 2.0171569964498643 1 0 0
323 0 2 0 3.268738118988858 12.487441131418802 7.488096783851292 1 1 0
1567 0 1 0 -4.5096863118519135 19.40849778638031 2.709298701031732 0 0 0
80 0 2 0 -1.1751917752985475 7.544561883391022 13.090189276327122 -1 0 0
1116 0 2 0 1.8903127304438616 3.8799146121323402 2.616744524908695 0 -1 0
280 0 1 0 -2.0393253418594948 6.5137487982281925 7.908721783583683 0 0 0
1628 0 2 0 2.649106641958361 3.0704568656804323 5.073790554896593 2 1 0
198 0 2 0 6.4034638115757945 2.7742409737161355 5.735465843778828 0 0 0
784 0 1 0 -3.2080292945938096 12.585678153705336 12.468692104034782 0 0 0
931 0 1 0 -1.0468540319564597 2.711668157620151 5.507168212590695 0 0 0
449 0 2 0 11.178642097399951 -2.106493106305172 11.441772689439244 0 0 0
662 0 2 0 0.10444302378426226 13.627139454179419 6.902110429041694 1 -1 1
524 0 2 0 0.038635801910719164 1.6616117239456825 1.042632668282142 0 0 0
2475 0 2 0 4.149794993936079 0.12027085382127461 -0.3774331201151892 0 0 0
189 0 2 0 2.58266384870119 13.656600443376998 14.520191938886843 0 -1 0
201 0 2 0 6.974015071895194 5.551457428397822 10.877522354465686 0 0 0
1288 0 1 0 10.820188659020964 2.9764337915855026 10.718023152555295 1 0 0
1169 0 2 0 8.155017517178543 -2.125094772874528 6.538353595192119 0 0 0
70 0 1 0 -0.9216280877592286 15.834770890038588 14.9272011512917 0 0 0
395 0 2 0 5.381698292689707 2.0959557074494173 7.572080733468189 0 0 0
994 0 1 0 3.3175886159040235 10.157607687879741 4.812016130733058 -1 -1 0
2221 0 1 0 10.30105476504826 7.797755782545239 -0.23065314625260713 0 0 0
735 0 2 0 2.573088939278984 15.129340753358521 11.062859094955078 0 1 0
539 0 2 0 12.810582376782644 0.2021464805806943 5.997276118690894 0 2 0
978 0 2 0 4.6492944518084895 4.3450112462023665 10.889311356868664 1 0 0
1152 0 2 0 7.4411165919554865 5.0416987460055385 13.889514854470077 0 0 0
948 0 2 0 0.8311760281171319 2.1586157787304945 9.839882402674366 1 -1 0
79 0 1 0 -1.2978885261930462 6.7274512512461 12.587390657808166 -1 0 0
999 0 2 0 3.97677487598625 10.613273645211258 13.002793996978003 0 -1 0
885 0 2 0 1.0741893903475668 0.37835253951031067 11.369615518721218 0 1 0
1205 0 2 0 10.479962887443943 6.0609194034815115 4.916524726732839 -1 0 0
1110 0 2 0 14.488785379746767 -0.7860291832844917 7.247791797149098 0 1 0
1114 0 1 0 1.5959591992846764 4.629812701598639 2.094125980933327 0 -1 0
424 0 1 0 6.887335859446221 15.123173894319056 -0.36621054181387563 0 0 0
762 0 2 0 -6.6498406038223035 20.558119321127812 1.1494501520914198 0 1 0
1193 0 2 0 -5.65166225210248 15.285736917484419 -0.3042098759757194 0 -1 0
1173 0 2 0 3.512082600403393 16.24442411055366 9.165578798832883 0 1 0
173 0 2 0 4.919742775963549 9.243630484097855 7.516971689347027 0 -1 0
295 0 1 0 2.369008217208104 18.471652209592897 6.847579955469215 1 1 0
352 0 1 0 6.066805467113582 -1.7407195338644863 12.020046203095715 1 -1 0
247 0 1 0 6.511671141012541 14.946403955727583 7.87396221151924 0 -1 0
796 0 1 0 8.906002002965092 2.07226962162809 13.799428467904923 0 1 0
962 0 2 0 9.686146585901366 3.496033229221524 14.787752119995963 0 0 0
154 0 1 0 4.120429128308874 1.6934041875252581 9.6796105429726 0 -1 0
992 0 2 0 2.990915367799349 1.216012459803638 12.611702891454481 0 0 0
2413 0 1 0 8.204271253373706 13.296736005843588 1.4739697720748097 1 0 0
232 0 1 0 5.4835803566969865 9.101671067198492 0.38778635763564795 0 0 0
77 0 2 0 7.121251852065811 -2.2490214163603177 9.97817453707379 -1 1 0
262 0 1 0 3.9516791281929557 5.764842772428581 9.586763768982133 0 -1 0
285 0 2 0 0.030511798051266997 13.20658006787294 2.294143213642497 0 -1 0
196 0 1 0 7.134645118231713 3.0140762154567953 5.175960094663054 0 0 0
673 0 1 0 -3.824366299262762 18.811576348934743 6.016307406930191 1 -1 0
405 0 2 0 1.3406957238964972 4.21897766441265 8.6253699074976 0 -1 0
354 0 2 0 6.987882276081743 -1.4849515050360131 12.271916424150989 1 -1 0
240 0 2 0 11.179526807803247 0.6153831371513403 1.9266878152745406 0 0 0
56 0 2 0 -2.6531797996551867 4.9813556553137746 15.052590596303297 0 1 0
400 0 1 0 -5.355701654301539 13.125171704084664 6.112826721978668 1 1 0
439 0 1 0 4.15109157249838 0.9737318226310514 2.898784122020304 0 0 0
133 0 1 0 0.26920621195747896 6.46892172669456 6.3616305221296505 0 0 0
1229 0 2 0 -1.6846967078151405 12.077198224945391 1.4275706525679719 1 0 0
296 0 2 0 1.7022846285988558 17.93753563156751 6.381652266443022 1 1 0
655 0 1 0 -4.493666883777083 9.877898446888059 2.132534413075176 0 2 0
1194 0 2 0 -4.447643388972855 15.382533047316103 0.6846749908178293 0 -1 0
565 0 1 0 -7.9957595232380925 18.266020925551878 7.6576675858298255 1 0 0
91 0 1 0 5.9633492178831755 -0.39115353777551887 9.452781444632755 0 0 0
961 0 1 0 10.50797094498402 3.8196345423431532 15.2092032212635 0 0 0
953 0 2 0 6.111078451050263 -0.11762032737943129 0.7377181444411947 1 2 0
656 0 2 0 -3.9242460482271215 9.376584097066491 1.5065121954377307 0 2 0
1094 0 2 0 4.1345459674381395 19.154306945650383 5.945461218357697 0 -1 0
910 0 1 0 8.42405163765963 1.966658023714036 0.3247838119915383 0 -1 0
316 0 1 0 -0.012527180915659492 18.102011202485265 5.480372458042517 -1 0 0
118 0 1 0 2.805491000690886 -1.0549287996783263 4.685211070823566 2 2 0
976 0 1 0 4.696339550107208 3.652378792228049 11.553851622646437 1 0 0
883 0 1 0 1.0885608053201121 0.004025311014668631 12.297363877548579 0 1 0
852 0 2 0 1.1873757465356158 -0.1510085414971689 14.264335053360606 1 0 0
2329 0 1 0 -0.8979857257056068 15.01031192510026 -0.4347877512222523 0 0 0
226 0 1 0 1.0824548983479128 15.194822228825041 6.975642318510357 -1 -2 0
299 0 2 0 -2.0594494561396446 16.22280496537692 7.388528173279878 0 0 0
2306 0 2 0 2.484503604078791 11.369483529054143 -0.27973396140316553 0 0 0
1293 0 2 0 -1.6290074820126663 12.982815970658795 13.411308448062448 0 1 0
310 0 1 0 11.08502095186239 1.0325769158524034 12.621436942578255 0 1 0
438 0 2 0 6.31102113246567 -5.180934757897896 14.8442406495933 1 1 0
689 0 2 0 3.8276491425158947 8.570737998975833 12.926949137294105 1 1 0
139 0 1 0 2.9366742899834204 18.829417079308538 0.30433879793215146 0 -1 1
2480 0 2 0 4.405217973398575 19.215030142160714 -0.7158439056835878 0 0 0
1186 0 1 0 9.562858353159518 5.170440202209694 2.198020329986097 1 1 0
826 0 1 0 14.608539937979632 -0.7739852361501066 1.8947323457369625 0 -1 0
2437 0 1 0 -3.2599796170081814 14.23077431583374 0.9729424059918563 1 -1 0
1143 0 2 0 -1.1834536098748165 11.477912053022434 -0.6270115168777097 1 0 0
415 0 1 0 5.895054573985182 7.426484965369611 15.077280774797565 0 0 0
998 0 2 0 4.048567369914976 10.033973150637426 14.458493197939477 0 -1 0
34 0 1 0 -4.108430176780538 16.757391814511536 3.995018462873997 0 0 0
475 0 1 0 2.6305719096386886 -0.1259071941381782 7.216470247167674 1 -1 0
542 0 2 0 1.0171748425252602 3.1516679402724845 -0.5211536518533741 1 0 0
516 0 2 0 -1.5258595902010814 15.149825577674775 3.5174289643998993 1 0 0
297 0 2 0 11.125392041596307 -2.3139042209300706 7.406971730871161 1 2 0
266 0 2 0 3.05220517173396 19.312809832073608 2.215794883724417 0 0 0
1290 0 2 0 11.510847799433071 3.634237345766683 10.974314552205701 1 0 0
1134 0 2 0 0.1546123393906551 -3.2301957106712242 11.654292992820778 0 0 0
1274 0 2 0 -0.3474823502383552 10.293179641283626 12.747582709948714 0 -1 0
1079 0 2 0 10.74622922369848 -3.6474607995069013 14.916371346760888 0 1 0
404 0 2 0 2.1717377457019795 4.303779572229599 7.273880974943234 0 -1 0
427 0 1 0 -2.3937160200742538 2.0081129628663197 15.10885680915767 1 0 0
1237 0 1 0 6.691563552645596 3.541021745065418 8.41806210149702 1 2 0
1218 0 2 0 0.2848919320346289 15.873630405703452 10.7010505103219 -1 0 0
1000 0 1 0 -4.123922172478824 13.735053325747007 8.83464454551497 0 0 0
1627 0 1 0 2.9589311178357125 3.6511892393878314 5.801917795534944 2 1 0
135 0 2 0 0.7158649172436036 5.840793594207517 6.990216724790042 0 0 0
959 0 2 0 -2.559675825069336 3.09068836770087 12.115525392698883 0 -1 0
567 0 2 0 -7.129395079854341 17.87803876072833 7.4080547014248435 1 0 0
951 0 2 0 1.8486466103079737 7.635769220782509 3.483077619900869 -1 -1 0
1217 0 2 0 -0.84971441511547 15.645937503997061 9.656044903842885 -1 0 0
1073 0 2 0 1.7283452852769534 -4.5919949850939545 13.963172801910968 0 -1 0
1700 0 2 0 -4.90871464532992 19.056922130473836 0.5651417404610244 0 0 0
320 0 2 0 -2.602391101848168 5.407593407654511 12.68232740518841 0 -1 0
473 0 2 0 1.3124780007732766 1.5336422226542148 4.102874104403195 0 0 0
76 0 1 0 7.810572533452027 -2.618270214286997 9.361654020072079 -1 0 0
1150 0 1 0 6.566909380451885 4.577660067055328 13.97974150909493 0 0 0
805 0 1 0 -5.087964860289455 14.187243090898146 15.256289785899675 1 1 0
851 0 2 0 1.9666027523627785 0.17962423487799484 15.625586601302555 1 0 0
785 0 2 0 -3.7440232960631548 13.396259738219007 12.396562818941412 0 0 0
766 0 1 0 6.71307125815366 7.273460890574245 6.232162061521983 1 1 0
2414 0 2 0 7.804405470526556 13.811841730607025 0.7367626989608564 1 0 0
1130 0 2 0 9.36749668699171 0.7111165644611148 9.273445052975756 1 1 0
1090 0 1 0 -3.3650731347305145 9.085840188419404 12.33167343645073 0 1 0
1006 0 1 0 -8.506293087597811 15.866973285678108 14.958702488419597 1 0 0
543 0 2 0 2.1739387705032858 4.160957524619576 -0.6730356988715945 1 0 0
589 0 1 0 6.1684572366076855 15.271509589785843 3.2513710183139892 0 -1 0
440 0 2 0 3.8505025453762816 0.4459996891716286 2.104338958430681 0 0 0
1216 0 1 0 -0.6296895873832138 15.562680882537117 10.62387696013798 -1 0 0
533 0 2 0 -4.84851598981167 16.243205782252964 6.589242873353239 0 -1 0
537 0 2 0 -1.2965391644719622 8.694969675802618 9.773978321883732 0 0 0
674 0 2 0 5.234205768397713 -1.841651592751826 5.575915808171382 1 0 0
975 0 2 0 10.953259573761754 -0.19535409279569982 5.098526210513955 0 0 0
265 0 1 0 3.3481727095075366 19.463156396820512 3.119570114554294 0 0 0
675 0 2 0 4.912434400252901 -2.5588073975473726 6.829477107940475 1 0 0
1260 0 2 0 3.4315580542317723 4.399359290088032 14.335212692196853 0 -1 0
1255 0 1 0 -1.8995798263527353 13.707562397266031 4.558763436797939 -1 -1 0
284 0 2 0 0.16329895933754707 14.15308112996629 1.0232102137794066 0 -1 0
1215 0 2 0 8.097395538717688 -0.49339518868812426 15.727649202694806 0 1 0
1447 0 1 0 12.819354027841024 1.5650442117651515 14.636718507141206 1 0 0
379 0 1 0 -0.46540223675412695 4.991291296312923 4.2326522671102795 1 1 0
568 0 1 0 4.875670342880744 7.518584986551035 3.8619397743453616 0 0 0
69 0 2 0 1.1084129431813614 8.897731755401399 11.300230808280709 0 0 0
425 0 2 0 5.953862090233774 15.068071020840348 -0.2009125860986879 0 0 0
1179 0 2 0 -1.3500014551654786 10.270238063959415 7.8559163316566085 0 0 0
496 0 1 0 -4.706391581697855 14.926238684678278 11.587263748336122 1 -1 0
1163 0 2 0 -5.14648201200549 12.510865504053568 14.628958073740963 0 0 0
733 0 1 0 1.928210413993636 15.439344970264548 11.659766783150623 0 1 0
850 0 1 0 1.1094069506276527 0.30283973627744487 15.13907622654872 1 0 0
725 0 2 0 -6.5647091185507955 14.991849615490569 11.83550712965429 0 0 0
463 0 1 0 2.531451893059694 6.243188490436367 4.455864978625763 1 -1 0
156 0 2 0 4.422428847897524 2.4748520370995113 10.146722164673605 0 -1 0
609 0 2 0 6.968786838133583 8.100068199714562 0.8581085595749007 0 0 0
1230 0 2 0 -1.1671198334487471 11.137147881333672 2.546543439221664 1 0 0
1276 0 1 0 5.011525208582901 12.794375882174934 7.230048385100167 0 0 0
899 0 2 0 10.41128521376213 -0.602951934401136 15.5003373561091 0 1 0
607 0 1 0 7.711163549033453 7.494436589815625 1.0815481004657523 0 0 0
428 0 2 0 -2.0571205988122347 1.3153494179898253 15.726895869186215 1 0 0
1213 0 1 0 8.791518026850227 -0.24502156168620282 15.09349092250482 0 1 0
812 0 2 0 9.406058480805106 7.946222429038727 3.979482531255294 -1 -1 0
973 0 1 0 10.381959428446406 -0.873867714935324 4.770166959202107 0 0 0
38 0 2 0 14.378008609054618 -3.5030890361235905 9.632637049328943 0 1 0
630 0 2 0 11.936040879473797 4.288432237091044 6.063448693174973 0 2 0
2187 0 2 0 -4.133421084918296 10.70460549943897 9.880214315034532 1 0 0
1199 0 2 0 6.772752512884116 5.7556603188535 1.1412197852563317 0 1 0
706 0 1 0 1.6538396158634878 10.172080758219991 8.429442027994352 0 0 0
912 0 2 0 7.7243283504236135 1.9741158188676806 0.9566143194312025 0 -1 0
569 0 2 0 4.643841080674701 7.504634765506848 2.9323831823906246 0 0 0
131 0 2 0 2.188456330029749 10.932179939172132 10.670167404465856 0 0 0
228 0 2 0 0.4688859658434416 15.643467991526304 7.569497506493681 -1 -2 0
227 0 2 0 1.8130614629771031 14.787415842838264 7.465347862090034 -1 -2 0
1252 0 1 0 3.4051537984541698 3.03584040747402 15.494902186151275 -1 -2 0
1001 0 2 0 -3.7153843127259845 12.894459206594313 9.16370018845577 0 0 0
1151 0 2 0 6.481719862919186 4.004027907738764 13.224963920930465 0 0 0
722 0 2 0 2.697201389678839 -3.5835363527012056 15.752655353571793 0 1 0
505 0 1 0 13.01050802144577 0.17709751367440285 9.696435714620637 0 0 0
906 0 2 0 -1.214509834801585 9.217524906581197 14.89676492488271 1 0 0
2198 0 2 0 13.519287147952722 2.4972812588205198 -0.5107885554759652 0 0 0
514 0 1 0 -1.8487364387546243 15.738242091887734 2.8567347496687256 1 0 0
911 0 2 0 8.619450397855562 2.881476903839149 0.14735978323801457 0 -1 0
919 0 1 0 8.63425373398044 -1.1540452682654552 12.342122987746357 0 0 0
643 0 1 0 1.6453564526548403 13.035018295168808 13.100993129284376 -1 -1 0
474 0 2 0 2.726727551796384 1.7366497185268843 3.4003384850538403 0 0 0
846 0 2 0 9.422049388577943 4.895567145721384 0.46721757414771115 0 0 0
1198 0 1 0 6.208816925934632 5.003715920513311 0.9433692770970237 0 1 0
993 0 2 0 4.272229216631393 1.6971587548670328 12.054231362271848 0 -1 0
559 0 1 0 8.181406634403443 0.5351257211090286 3.5720162314154313 0 0 0
68 0 2 0 0.9302665758662878 7.640579684972312 10.560252890120326 0 0 0
786 0 2 0 -3.716482058697298 12.114340926894082 13.122180160225868 0 0 0
264 0 2 0 4.46739450525688 5.727581535637595 8.750127160118062 0 -1 0
1162 0 1 0 -5.116088871691994 11.64890029596745 14.176813125732357 0 0 0
629 0 2 0 10.893212638560273 3.6905133060861592 5.122043890388659 0 2 0
23 0 2 0 -8.05001982896059 19.00979707256755 0.013435858809895729 0 -1 0
221 0 2 0 -3.6156448422712866 5.794337564412356 10.386914769369183 1 0 0
464 0 2 0 3.4661384134463935 6.468355747500246 4.436912597584462 1 -1 0
1165 0 1 0 2.8939203909651576 12.423117456974294 1.3290984163771897 0 0 0
476 0 2 0 3.1748154878412795 0.6009173982456906 7.4545843472995745 1 -1 0
1167 0 2 0 2.0350353968139814 12.854884264293103 1.518635358127017 0 0 0
872 0 2 0 11.407559904777184 6.630096135698084 0.8864076879259029 1 0 0
64 0 1 0 8.667486850952173 1.3387258740821597 6.599812831906748 -1 1 0
478 0 1 0 9.364739112854522 3.9577256687210367 8.119279879932698 -2 -1 0
515 0 2 0 -2.7538906541568857 16.111760628328277 3.101723196695966 1 0 0
222 0 2 0 -3.7011567223569575 6.983553105039766 11.367293202439024 1 0 0
2581 0 1 0 1.5145290872209891 7.838153487782317 14.808607871831256 0 -1 0
218 0 2 0 1.400079995494873 -2.049175179602602 10.143723872912624 0 -1 0
290 0 2 0 3.6884394579052104 9.892027764867693 3.244133961174729 -1 -1 0
1142 0 2 0 -2.233848747920704 10.570431002204957 0.07433183545691646 1 0 0
700 0 1 0 -0.5138640836533235 7.301557528894447 0.9956506670679695 0 0 0
1291 0 1 0 -0.8569326236764345 13.080314933753211 13.993227977778188 0 1 0
1256 0 2 0 -1.4965965649533204 13.500577272875269 5.398281842579283 -1 -1 0
1206 0 2 0 10.053687618246629 6.999059968241276 6.15828741202522 -1 1 0
729 0 2 0 3.245664137536345 16.181525965153305 3.903234451361018 -1 -1 0
25 0 1 0 -2.6527828588281195 8.75508095383435 0.4973481552950314 1 0 0
636 0 2 0 6.460448503857255 2.644134538286538 11.457097312823858 0 -1 0
195 0 2 0 3.1613949529459657 7.094136788065623 0.7621611405288009 1 0 0
2222 0 2 0 9.353723027550313 7.872442598641244 0.038818876922204426 0 0 1
864 0 2 0 6.224193361066835 12.003762258589077 1.0084995423948258 0 -1 0
697 0 1 0 13.151321380623825 0.6796985377237041 -0.034716194058748484 0 0 0
801 0 2 0 1.7121248789824555 17.857345353833033 9.879776737104692 0 -1 0
507 0 2 0 12.609052749795346 -0.5704541286497244 10.153506848348503 0 0 0
1164 0 2 0 -4.831839860331556 10.920825592117453 14.789817609303245 0 0 0
233 0 2 0 5.082906317361526 8.41549239721846 -0.22105247366682146 0 0 0
807 0 2 0 -4.663085695758347 15.00686128647748 15.169688005126275 1 1 0
421 0 1 0 4.530079986635371 14.492785883196355 0.8297298473731272 0 0 0
1091 0 2 0 -2.9738745197815333 9.669896587740906 11.638078846294379 0 1 0
867 0 2 0 0.0011778853290473623 9.360044140489698 5.814451344071538 0 0 0
159 0 2 0 0.5248746163979875 20.05758271001265 0.8949115229393771 1 0 0
498 0 2 0 -4.7625072341004415 14.766992462079653 10.62714944639324 1 -1 0
865 0 1 0 0.9039017034981913 9.115500763983647 5.9597952080924195 0 0 0
1039 0 1 0 4.131416867753731 -2.1960732223180877 8.419128419678692 0 0 0
921 0 2 0 8.910256206910857 -0.5773081847471571 11.615293513115292 0 0 0
1209 0 2 0 7.9397948182003315 9.024291603296891 12.786163686483308 1 -1 0
641 0 2 0 7.142168289205481 16.535946117737826 2.7795556573439018 0 0 0
305 0 2 0 6.540880397603578 7.528587622512678 11.786546989088142 -1 0 0
416 0 2 0 5.205526781294636 7.322616500156606 15.704616549794867 0 0 0
65 0 2 0 8.413394547552894 0.4591683424842601 6.839615849141645 -1 1 0
368 0 2 0 6.5453369043506715 9.520924797604692 10.79221020327386 -1 0 0
513 0 2 0 -3.1215908109232755 6.8060075580176 4.306340554876871 1 0 0
283 0 1 0 0.6194046785735303 13.806900649576306 1.7880785880950487 0 -1 0
230 0 2 0 0.28144008856862984 4.070103549158194 10.58235180317487 0 0 0
535 0 1 0 -0.9574874275634455 7.82362832425134 9.927970865327598 0 0 0
1178 0 2 0 -1.8611058569498247 10.856286300394567 9.225758534828023 0 0 0
1236 0 2 0 3.170188306197199 13.761876651759142 9.156427029343368 0 0 0
71 0 2 0 -0.4500071210745734 16.306064088453013 14.218671848658234 0 0 0
185 0 2 0 3.3696308949164586 -3.4011386735375417 10.239201477205025 0 -1 0
938 0 2 0 -3.5140021043171097 14.60525747202534 7.289060580765854 0 -1 0
142 0 1 0 11.218116021650225 5.873853635651142 13.467158729032155 -1 0 0
144 0 2 0 10.730596015814415 5.042297823723722 13.706493794298028 -1 0 0
397 0 1 0 7.617569663466903 14.127434604636921 5.435523823059554 1 0 0
1234 0 1 0 3.5520202006681814 14.443036894956442 9.700531872169506 0 0 0
1294 0 1 0 9.20449070514258 6.599852410730794 7.571063347082411 0 1 0
1238 0 2 0 7.579157336554516 3.676370872492373 8.04470326720748 1 2 0
957 0 2 0 -6.14522577270789 14.427238359875098 2.8930878707316676 1 -1 0
1188 0 2 0 8.788569372429082 5.439036105131184 2.7151968581937265 1 1 0
2438 0 2 0 -2.785186443579193 14.373657017918397 1.8265168632761184 1 -1 1
199 0 1 0 7.740463720530262 5.086154561999579 10.382834830839515 0 0 0
1061 0 2 0 7.275689600762963 4.775529490536138 4.477834292629138 0 2 0
453 0 2 0 3.6274798045870136 -2.8231715265716195 13.84874694759509 0 1 0
952 0 1 0 6.680874189447944 -0.6305792755536266 1.3328611840615232 1 2 0
263 0 2 0 3.0796871228074485 5.541006872915845 9.293801540125463 0 -1 0
158 0 2 0 -0.9736230397854181 20.00784894697965 1.145655963579017 1 -1 0
707 0 2 0 0.7896032944905003 10.139235102703338 8.866988445296286 0 0 0
480 0 2 0 9.929098820050585 3.7471451722236218 7.320438303500358 -2 -1 0
396 0 2 0 5.133586624061428 1.2938043713749865 6.295888266136236 0 0 0
2582 0 2 0 2.065890145128037 7.634131266356357 14.02291554009788 0 -1 0
613 0 1 0 -5.3369809243749025 8.526702605879706 14.775357086779456 1 0 0
904 0 1 0 -1.922649792031258 8.681840595913094 14.601768490116589 1 0 0
511 0 1 0 -2.5355695607028292 6.750313307896575 3.511527468352247 1 0 0
634 0 1 0 7.407188168377388 2.524601197985085 11.45067619303066 0 -1 0
868 0 1 0 -5.0167331674547295 12.178804849909804 0.6179365392407634 1 0 0
799 0 1 0 10.288520625758034 -2.9132670782751022 10.2757075103379 0 0 0
873 0 2 0 10.975690025370193 6.157174133067237 2.1712322542982467 0 0 0
2439 0 2 0 -2.6173675461797488 14.561003447983458 0.360918035052473 1 -1 0
460 0 1 0 -7.234139634949126 17.617932456861112 4.726242937734629 0 -1 0
648 0 2 0 -5.197740084299635 9.12133923360736 12.004564540836213 0 -2 0
991 0 1 0 3.9280694187126124 1.0090119741243946 12.56368740809536 0 -1 0
787 0 1 0 -1.7954933004122373 9.803339157482675 6.209495213916598 0 0 0
1060 0 1 0 7.291239065001665 5.512716744915485 3.8232038280001435 1 2 0
573 0 2 0 0.7593922129458183 9.432813093079904 14.389790699644456 -1 0 0
446 0 2 0 9.660555882284754 12.452513957791028 0.751577244691211 -1 0 0
590 0 2 0 6.570949394472516 14.777129014253685 3.9561005683189565 0 -1 0
788 0 2 0 -2.197329800851205 10.018161488566248 5.400714961753347 0 0 0
52 0 1 0 7.897416454211162 11.427772159883302 6.24450882142779 -1 0 0
141 0 2 0 2.617659517477746 19.17516503368946 -0.5933368938468594 0 -1 1
267 0 2 0 11.957532283832185 -1.3586326499481967 3.532900882193692 0 1 0
1008 0 2 0 -7.9434637321611685 15.419939849867813 15.615300756733262 1 0 0
469 0 1 0 0.4416736037136342 17.26939165843114 2.7304357114414692 1 0 0
49 0 1 0 13.105948268978855 -1.9576383018432288 14.161415565693632 1 1 0
1147 0 1 0 -3.9278782941828845 8.119378486963544 7.270270461035526 0 0 0
1115 0 2 0 1.3831959672356136 4.261969779176054 1.2178567928958235 0 -1 0
278 0 2 0 12.986000301701873 1.8538056700370968 3.0132697469201473 0 1 0
401 0 2 0 -4.857835398594346 12.283909040350984 5.893077931070413 1 1 0
1168 0 1 0 7.646568403640955 -1.53602236905523 7.081095300552969 0 0 0
344 0 2 0 9.556355336599346 -3.264005742756532 12.687827267115479 0 0 0
1002 0 2 0 -4.894808588733472 13.456443726378334 8.292375548618155 0 0 0
1072 0 1 0 2.2296473740334393 -3.7801999647044306 13.66825422277051 0 -1 0
1081 0 1 0 13.658304298403396 -4.832942416823743 15.174836739707555 0 1 0
184 0 1 0 2.6196824074837766 -3.380751286254546 10.891327356250951 0 -1 0
534 0 2 0 -6.290415130003674 15.927323202215767 7.218963828537239 0 -1 0
1160 0 2 0 7.455896799306546 9.27379389146831 4.057027091880435 0 1 0
373 0 1 0 8.811655806528762 12.61604258574108 8.958872212187293 -2 -2 0
828 0 2 0 14.37647396113858 -0.10451095226223428 1.2965372123441194 0 -1 0
200 0 2 0 7.3644961538390685 4.578368908182653 9.62547064516019 0 0 0
888 0 2 0 3.801473698643419 -1.4956189861431248 15.571267217363484 0 -1 0
1033 0 1 0 5.232971909370149 12.603905241343561 10.831661847221826 0 0 0
709 0 1 0 3.944026103875436 8.759486540936098 9.02564103909454 1 1 0
317 0 2 0 0.04630497670662162 18.04912287813013 4.492522875636798 -1 0 0
1556 0 2 0 4.427631405276762 16.676493288336022 6.04960121310417 0 1 0
1629 0 2 0 3.576076787388781 3.1365558589482494 6.308390425542402 2 1 0
219 0 2 0 -0.06164559300322908 -1.4785427658846841 10.000507202519483 0 -1 0
724 0 1 0 -7.485664206665616 14.884551502873716 11.549402790903256 0 0 0
234 0 2 0 4.89283915341776 9.192931878049755 1.1323662248302988 0 0 0
800 0 2 0 9.462175720267128 -2.8549240754973066 9.784300791229928 0 0 0
67 0 1 0 1.6460091154940444 8.130560186547644 10.992570550389466 0 0 0
84 0 2 0 1.298758382748605 -0.4937547791384187 3.7401030830560016 -1 -1 0
798 0 2 0 8.280908216560809 2.069014809498836 13.114406976221701 0 1 0
441 0 2 0 4.855106657749997 1.5755784390426828 2.5725070615961028 0 0 0
291 0 2 0 3.3860221146093497 10.767970759600958 1.9829714207727136 -1 -1 0
1083 0 2 0 14.512120900815374 -5.278875307271777 15.166111640602145 0 1 0
174 0 2 0 5.948163545417669 9.399115588109959 6.2285236274766165 0 -1 0
333 0 2 0 0.3228078256069319 3.1862159364666365 13.21239659240199 0 0 0
827 0 2 0 4.60394038513541 20.400806382488554 2.347067041299398 0 -2 0
50 0 2 0 13.13542371863736 -2.956240966581721 14.220063428658515 1 1 0
472 0 1 0 1.892605640363949 2.206788042219722 3.672510123566796 0 0 0
248 0 2 0 7.118025497713575 14.944362112593348 8.62964519539445 0 -1 0
506 0 2 0 13.70317262052591 -0.26638414835888335 9.100555726852875 0 0 0
963 0 2 0 11.129698908785105 3.1085469279103943 15.167914340141456 0 0 0
345 0 2 0 10.492472723232712 -4.491745447906889 12.664950912059883 0 0 0
871 0 1 0 11.748892873421218 6.515567022047333 1.7786874207169139 0 0 0
570 0 2 0 5.317407630878979 8.37731526304763 4.013420326429587 0 0 0
394 0 1 0 4.896047691725778 2.085137094136106 6.789196904458305 0 0 0
789 0 2 0 -2.2173582608926004 8.967081115430881 6.5589897772317265 0 0 0
155 0 2 0 3.136658417579979 1.5854623668253325 9.926943324383075 0 -1 0
260 0 2 0 -0.8140394253222344 0.09139715555434025 7.985450188896968 1 0 0
844 0 1 0 9.353613581785513 4.483159540071348 -0.3747792127291984 0 0 0
239 0 2 0 10.073290384714076 0.9291376460097 0.9151915520203193 -1 0 0