LAMMPS (23 Jun 2022)
include procedure.lmp
echo both
include		in.partitions
variable        pid world 0
include		in.temp
variable	temperature equal 255
variable        tempDamp equal 0.100 # this is 0.1 ps
include		in.pressure
variable        pressure equal 3039.75
variable        pressureDamp equal 1.0 #this is 1ps

variable	barostat string	   tri
variable	direction string   z
variable	direction_x_bool equal 0
variable	direction_y_bool equal 0
variable	direction_z_bool equal 1

include		in.seed
variable        seed world 745823

units           metal
atom_style	full
box tilt large
read_restart 	restart.lmp.${pid}
read_restart 	restart.lmp.0
Reading restart file ...
  restart file = 23 Jun 2022, LAMMPS = 23 Jun 2022
  restoring atom style full from restart
  triclinic box = (0 0 -0.71440494) to (31.157 21.485012 32.470573) with tilt (-9.195174 0.76408958 -11.180328)
WARNING: Triclinic box skew is large (../domain.cpp:224)
  2 by 1 by 2 MPI processor grid
Summary of lammps deepmd module ...
  >>> Info of deepmd-kit:
  installed to:       /u/sigbjobo/software/DEEPMD_FROM_SOURCE/deepmd-kit/install
  source:             v2.1.3
  source branch:       master
  source commit:      5a32c49
  source commit at:   2022-07-01 09:52:58 +0800
  surpport model ver.:1.1 
  build float prec:   double
  build with tf inc:  /u/sigbjobo/software/DEEPMD_FROM_SOURCE/tensorflow/install/include;/u/sigbjobo/software/DEEPMD_FROM_SOURCE/tensorflow/install/include
  build with tf lib:  /u/sigbjobo/software/DEEPMD_FROM_SOURCE/tensorflow/install/lib/libtensorflow_cc.so;/u/sigbjobo/software/DEEPMD_FROM_SOURCE/tensorflow/install/lib/libtensorflow_framework.so
  set tf intra_op_parallelism_threads: 0
  set tf inter_op_parallelism_threads: 0
  >>> Info of lammps module:
  use deepmd-kit at:  /u/sigbjobo/software/DEEPMD_FROM_SOURCE/deepmd-kit/install
  source:             v2.1.3
  source branch:      master
  source commit:      5a32c49
  source commit at:   2022-07-01 09:52:58 +0800
  build float prec:   double
  build with tf inc:  /u/sigbjobo/software/DEEPMD_FROM_SOURCE/tensorflow/install/include;/u/sigbjobo/software/DEEPMD_FROM_SOURCE/tensorflow/install/include
  build with tf lib:  /u/sigbjobo/software/DEEPMD_FROM_SOURCE/tensorflow/install/lib/libtensorflow_cc.so;/u/sigbjobo/software/DEEPMD_FROM_SOURCE/tensorflow/install/lib/libtensorflow_framework.so
  restoring pair style deepmd from restart
  2592 atoms
Finding 1-2 1-3 1-4 neighbors ...
  special bond factors lj:    0        0        0       
  special bond factors coul:  0        0        0       
     0 = max # of 1-2 neighbors
     0 = max # of 1-3 neighbors
     0 = max # of 1-4 neighbors
     1 = max # of special neighbors
  special bonds CPU = 0.000 seconds
  read_restart CPU = 0.043 seconds
include 	in.setup
variable	out_freq equal 2000
variable	out_freq2 equal 2000

timestep        0.0005

neigh_modify    delay 7 every 1

include         in.deepmd
# This is deepMD model

# create groups ###
#group ox type 2
#group hy type 1

mass 2 15.999
mass 1 1.008

pair_style      deepmd ../graph.pb
pair_coeff      * *

bond_style      none
angle_style     none
dihedral_style  none
improper_style  none
neigh_modify exclude none


neighbor        2.0 bin
neigh_modify    every 50 delay 0 check no

thermo          ${out_freq}
thermo          2000
thermo_style 	custom step temp pe etotal epair emol press lx ly lz vol pxx pyy pzz pxy pxz pyz

restart 	${out_freq} restart.lmp.${pid} restart2.lmp.${pid}
restart 	2000 restart.lmp.${pid} restart2.lmp.${pid}
restart 	2000 restart.lmp.0 restart2.lmp.${pid}
restart 	2000 restart.lmp.0 restart2.lmp.0


timer           timeout 23:50:00 every 1000
New timer settings: style=normal  mode=nosync  timeout=23:50:00


# Set number of time steps
variable 	nsteps_wall		equal	 6000000
variable 	nsteps_enhanced_coex    equal	300000000

variable     nsteps_enhanced_coex_upto equal (${nsteps_wall}+${nsteps_enhanced_coex})
variable     nsteps_enhanced_coex_upto equal (6000000+${nsteps_enhanced_coex})
variable     nsteps_enhanced_coex_upto equal (6000000+300000000)


# Set temperature for first step
if "$(step) < 1  " then    "velocity 	all create ${temperature} ${seed} dist gaussian"


# Always run thermo and barostat


######################################
# Run simulation with wall potential #
######################################
if " $(step) < ${nsteps_wall} " then    "fix             3 all plumed plumedfile plumed.equil.dat outfile plumed.equil.out"   "fix             1 all nph ${direction} ${pressure} ${pressure} ${pressureDamp}"   "fix             2 all temp/csvr ${temperature} ${temperature} ${tempDamp} ${seed}"   "run             ${nsteps_wall} upto"
if " $(step) == ${nsteps_wall} " then    "unfix 3"   "unfix 1"   "unfix 2"


############################
# Run enhanced coesistence #
############################
if "$(step) == ${nsteps_wall}" then    "fix             3 all plumed plumedfile plumed.start.dat outfile plumed.out" else    "fix             3 all plumed plumedfile plumed.dat outfile plumed.out"
fix             3 all plumed plumedfile plumed.dat outfile plumed.out

if "$(step) < ${nsteps_enhanced_coex_upto} && $(step) >= ${nsteps_wall} " then    "include         in.dump"    "fix             1 all nph ${direction} ${pressure} ${pressure} ${pressureDamp}"   "fix             2 all temp/csvr ${temperature} ${temperature} ${tempDamp} ${seed}"   "run             ${nsteps_enhanced_coex_upto} upto"    "unfix 3"   "unfix 1"   "unfix 2"
include         in.dump
dump            myDump all atom ${out_freq2} dump.water.${pid}
dump            myDump all atom 2000 dump.water.${pid}
dump            myDump all atom 2000 dump.water.0
dump            myDump2 all dcd ${out_freq2} dump.${pid}.dcd
dump            myDump2 all dcd 2000 dump.${pid}.dcd
dump            myDump2 all dcd 2000 dump.0.dcd
dump_modify     myDump append yes
dump_modify     myDump2 append yes

fix             1 all nph ${direction} ${pressure} ${pressure} ${pressureDamp}
fix             1 all nph z ${pressure} ${pressure} ${pressureDamp}
fix             1 all nph z 3039.75 ${pressure} ${pressureDamp}
fix             1 all nph z 3039.75 3039.75 ${pressureDamp}
fix             1 all nph z 3039.75 3039.75 1
fix             2 all temp/csvr ${temperature} ${temperature} ${tempDamp} ${seed}
fix             2 all temp/csvr 255 ${temperature} ${tempDamp} ${seed}
fix             2 all temp/csvr 255 255 ${tempDamp} ${seed}
fix             2 all temp/csvr 255 255 0.1 ${seed}
fix             2 all temp/csvr 255 255 0.1 745823
run             ${nsteps_enhanced_coex_upto} upto
run             306000000 upto

CITE-CITE-CITE-CITE-CITE-CITE-CITE-CITE-CITE-CITE-CITE-CITE-CITE

Your simulation uses code contributions which should be cited:

- USER-DEEPMD package:

@article{Wang_ComputPhysCommun_2018_v228_p178,
  author = {Wang, Han and Zhang, Linfeng and Han, Jiequn and E, Weinan},
  doi = {10.1016/j.cpc.2018.03.016},
  url = {https://doi.org/10.1016/j.cpc.2018.03.016},
  year = 2018,
  month = {jul},
  publisher = {Elsevier {BV}},
  volume = 228,
  journal = {Comput. Phys. Commun.},
  title = {{DeePMD-kit: A deep learning package for many-body potential energy representation and molecular dynamics}},
  pages = {178--184}
}

CITE-CITE-CITE-CITE-CITE-CITE-CITE-CITE-CITE-CITE-CITE-CITE-CITE

Generated 0 of 1 mixed pair_coeff terms from geometric mixing rule
Neighbor list info ...
  update every 50 steps, delay 0 steps, check no
  max neighbors/atom: 2000, page size: 100000
  master list distance cutoff = 8
  ghost atom cutoff = 8
  binsize = 4, bins = 11 9 9
  1 neighbor lists, perpetual/occasional/extra = 1 0 0
  (1) pair deepmd, perpetual
      attributes: full, newton on
      pair build: full/bin
      stencil: full/bin/3d
      bin: standard
Per MPI rank memory allocation (min/avg/max) = 7.305 | 7.306 | 7.307 Mbytes
   Step          Temp          PotEng         TotEng         E_pair         E_mol          Press            Lx             Ly             Lz           Volume          Pxx            Pyy            Pzz            Pxy            Pxz            Pyz      
 188012000   254.56014     -415.09012     -329.83461     -415.09012      0              3169.2049      31.157         21.485012      33.184978      22214.307      994.63891      6083.3595      2429.6165      1608.0592     -945.11393     -80.660831    
 188014000   259.39698     -412.70504     -325.8296      -412.67235      0              963.60116      31.157         21.485012      33.413804      22367.485      4424.6038     -1599.3506      65.550235      1362.269      -447.34769      376.63503    
 188016000   249.31775     -413.47068     -329.97091     -413.43764      0              1317.7026      31.157         21.485012      33.443453      22387.332      2900.548      -843.85719      1896.4169     -960.16932      493.06909      923.49821    
 188018000   261.95897     -417.60324     -329.86977     -417.57688      0              3388.9768      31.157         21.485012      33.551085      22459.382      4460.4884      3825.8326      1880.6094     -126.38046      862.3054      -163.59455    
 188020000   257.75713     -416.18867     -329.86244     -416.16512      0              2519.4135      31.157         21.485012      33.399119      22357.654      1599.3296      4145.1625      1813.7484      563.57907     -675.60161     -277.24969    
 188022000   258.69566     -413.31644     -326.67589     -413.29513      0              2433.1907      31.157         21.485012      33.246452      22255.458      2706.2077      2585.4946      2007.87        216.08559     -313.90821     -352.39748    
 188024000   263.62214     -416.0411      -327.75061     -416.01397      0              2839.1629      31.157         21.485012      33.179653      22210.743      1911.6461      3186.5675      3419.2751     -73.104187      642.19799     -404.00673    
 188026000   252.28991     -416.07208     -331.5769      -416.046        0              4387.1046      31.157         21.485012      33.117702      22169.272      3527.7078      4503.0497      5130.5563      505.97299     -826.02145     -463.52793    
 188028000   253.62978     -414.11475     -329.17083     -414.08128      0              4803.7818      31.157         21.485012      33.110406      22164.388      3170.3352      4782.0164      6458.9937      436.87522     -376.5592       1072.797     
 188030000   254.45315     -416.88393     -331.66425     -416.85846      0              4853.9842      31.157         21.485012      33.090281      22150.916      3873.6404      6182.1632      4506.1491      630.51368     -492.92004      2063.2399    
 188032000   248.32541     -414.08456     -330.91714     -414.05661      0              2510.7602      31.157         21.485012      33.150057      22190.93       3242.9139      2741.2857      1548.081       152.12958      832.63739     -750.04529    
 188034000   254.47404     -414.89697     -329.6703      -414.86245      0              3254.0236      31.157         21.485012      33.305225      22294.801      3534.826       2910.2395      3317.0053     -79.154415      956.96079      890.06765    
 188036000   257.97217     -413.87108     -327.47284     -413.83956      0              3235.6764      31.157         21.485012      33.268084      22269.939      2997.1178      3885.1662      2824.7452      1251.8159      698.74117     -767.15979    
 188038000   264.77783     -413.20225     -324.5247      -413.18091      0              4403.3976      31.157         21.485012      33.415261      22368.46       4034.3847      3872.8325      5302.9756      907.68055      598.41562      2152.5583    
 188040000   254.35037     -414.80676     -329.62151     -414.77579      0              4136.501       31.157         21.485012      33.283087      22279.982      3771.1413      3489.1144      5149.2473     -571.40845     -1268.608      -1031.0085    
 188042000   262.81572     -410.42721     -322.4068      -410.41801      0              2776.9358      31.157         21.485012      33.345647      22321.86       3933.4633      4027.0291      370.31496     -382.13975     -2107.3517     -952.77464    
 188044000   257.42029     -414.95595     -328.74254     -414.93551      0              2696.8394      31.157         21.485012      33.60653       22496.498      1982.7561      1788.3234      4319.4388      243.44938      476.80154      1047.3369    
 188046000   251.89158     -416.66547     -332.3037      -416.6312       0              3611.5575      31.157         21.485012      33.134324      22180.399      3864.5159      5079.6783      1890.4784     -13.773789     -701.1656      -1326.7678    
 188048000   252.96863     -414.31892     -329.59643     -414.29431      0              3310.4267      31.157         21.485012      33.171512      22205.293      2895.1619      3850.5524      3185.5657     -423.72617     -758.7663      -625.57357    
 188050000   256.70984     -413.12525     -327.14978     -413.09803      0              4954.0584      31.157         21.485012      33.062006      22131.989      6818.4961      5731.0267      2312.6524     -172.64316     -574.27256     -1692.6527    
 188052000   252.58542     -414.00558     -329.41143     -413.97711      0              4906.4831      31.157         21.485012      33.01979       22103.729      4128.406       4359.0961      6231.9471     -714.60206     -2.5685668      1.4763584    
 188054000   257.06304     -413.45624     -327.36248     -413.4431       0              3144.5915      31.157         21.485012      33.225546      22241.464      4381.724       3403.7241      1648.3265     -1302.6946     -2348.206      -166.9747     
 188056000   250.74517     -415.7205      -331.74268     -415.69047      0              1980.954       31.157         21.485012      33.242623      22252.895      2927.2002      472.81699      2542.8449     -714.80377     -1232.35        1237.8077    
 188058000   256.75087     -413.98589     -327.99668     -413.96312      0              2526.4682      31.157         21.485012      33.106927      22162.059      1155.8475      3248.4749      3175.0823      595.83497      721.62111      33.158389    
 188060000   255.36286     -415.93989     -330.41554     -415.92047      0              4537.8785      31.157         21.485012      33.334556      22314.436      4397.3044      4947.279       4269.0521      1227.9371     -384.80789      984.27458    
 188062000   261.9787      -414.28798     -326.54789     -414.26369      0              3084.3193      31.157         21.485012      33.456186      22395.856      3937.9278      2839.6017      2475.4285      1129.7068     -944.45175      825.63214    
 188064000   259.31644     -417.17839     -330.32994     -417.15477      0              2417.7144      31.157         21.485012      33.43272       22380.148      3112.0135      2478.6616      1662.4681     -90.157003      145.87095     -1282.9555    
 188066000   258.74155     -413.47797     -326.82205     -413.47093      0              3273.0754      31.157         21.485012      33.546066      22456.023      3404.9209      3699.0444      2715.2608     -283.80546     -1225.4498      1091.1491    
 188068000   254.72885     -410.98391     -325.6719      -410.98189      0              2657.8907      31.157         21.485012      33.433875      22380.921      2330.1547      1181.4561      4462.0613     -948.2182       294.29024      1757.6754    
 188070000   255.85047     -415.44072     -329.75306     -415.4239       0              3227.1996      31.157         21.485012      33.322944      22306.662      2950.5367      4053.0253      2678.037      -587.16175      953.39256     -426.77674    
 188072000   254.33895     -414.93919     -329.75776     -414.91727      0              3240.2677      31.157         21.485012      33.301852      22292.544      3875.8895      4143.8921      1701.0215     -665.50578     -994.63707     -367.35107    
 188074000   256.38331     -413.2378      -327.37169     -413.22792      0              3249.6123      31.157         21.485012      33.523874      22441.167      3834.9634      3811.584       2102.2896     -359.68956     -173.68535      259.49701    
 188076000   256.99997     -411.78157     -325.70894     -411.76174      0              2299.6727      31.157         21.485012      33.356429      22329.078      1735.1561      2871.1238      2292.7382     -223.78887      287.53686     -144.62624    
 188078000   260.78079     -412.21419     -324.87531     -412.1904       0              3225.4979      31.157         21.485012      33.382535      22346.553      2270.3008      4431.5986      2974.5942      295.06964     -996.82304     -159.72092    
 188080000   250.08002     -414.38537     -330.63031     -414.36414      0              3086.8545      31.157         21.485012      33.204632      22227.463      2608.1723      3126.5713      3525.8198     -840.32338      1756.0124     -241.85651    
 188082000   254.18366     -414.11523     -328.98581     -414.09248      0              4008.1223      31.157         21.485012      33.237813      22249.675      4580.1771      4260.6213      3183.5685     -577.91554      346.06383     -1315.7663    
 188084000   260.04237     -410.70738     -323.6158      -410.68884      0              4175.9445      31.157         21.485012      33.22466       22240.87       3875.4222      5754.5937      2897.8175      2052.1602     -603.25391     -1577.6272    
 188086000   255.05089     -412.37011     -326.95025     -412.35411      0              3256.2631      31.157         21.485012      33.238472      22250.117      2624.1696      4128.5012      3016.1185      1113.878      -1147.1982     -100.66333    
 188088000   253.33889     -414.14621     -329.29972     -414.10938      0              3714.1921      31.157         21.485012      33.1226        22172.551      3794.4482      4310.8018      3037.3263      1144.5743     -239.74256      96.691208    
 188090000   258.67367     -412.48179     -325.84861     -412.46173      0              2967.9298      31.157         21.485012      33.481308      22412.673      3323.0151      1113.1468      4467.6276     -21.95798       238.7361       533.25367    
 188092000   255.9255      -414.52743     -328.81465     -414.49067      0              3287.5725      31.157         21.485012      33.372979      22340.157      3964.592       3824.9656      2073.1599     -879.08924      1843.4494     -133.19416    
 188094000   252.0836      -415.05365     -330.62756     -415.04048      0              2859.371       31.157         21.485012      33.433513      22380.678      512.8829       4047.5072      4017.723       1318.1934     -443.37539     -1286.4787    
 188096000   255.3554      -412.3816      -326.85975     -412.3587       0              3823.6197      31.157         21.485012      33.433967      22380.983      3660.7623      4638.4978      3171.5989     -484.0918       1575.319       490.68059    
 188098000   254.27384     -414.44316     -329.28353     -414.40862      0              4143.0137      31.157         21.485012      33.270554      22271.592      4512.5888      4185.0233      3731.4289     -1009.1789     -225.9355      -1165.7844    
 188100000   253.03264     -412.56181     -327.81788     -412.54688      0              4132.4456      31.157         21.485012      33.409366      22364.514      3438.786       5066.6891      3891.8617      1844.0837      399.82816     -538.83264    
 188102000   248.93497     -416.30857     -332.937       -416.28059      0              3296.5356      31.157         21.485012      33.383493      22347.194      2693.7308      3884.0137      3311.8625     -1301.4776     -107.18437     -248.26007    
 188104000   257.53073     -413.44836     -327.19796     -413.42181      0              3825.1687      31.157         21.485012      33.023677      22106.33       5187.4991      3323.1098      2964.8971     -7.4341704      2140.6388     -419.01925    
 188106000   253.46172     -415.57682     -330.68918     -415.55217      0              4187.5401      31.157         21.485012      33.345881      22322.017      3105.9561      4427.8238      5028.8405      934.09441      255.19438     -380.18117    
 188108000   250.50694     -414.42654     -330.5285      -414.40165      0              1209.0303      31.157         21.485012      33.371162      22338.94      -14.275923      1820.5016      1820.865      -233.60278      56.626712     -732.93245    
 188110000   248.9708      -413.43744     -330.05388     -413.41032      0              4120.4819      31.157         21.485012      33.249602      22257.567      2851.0267      4122.5317      5387.8872     -1703.8613      689.87009      555.06952    
 188112000   263.61832     -415.46632     -327.17711     -415.43775      0              1047.0597      31.157         21.485012      33.451091      22392.445      2199.1906     -74.059636      1016.0483     -102.86842      175.56941     -477.8626     
 188114000   254.50553     -413.84732     -328.6101      -413.81893      0              2442.8834      31.157         21.485012      33.352052      22326.148      1705.2064      2867.3807      2756.0631     -523.72554      1525.5419      100.49653    
 188116000   259.71276     -415.67203     -328.69084     -415.64753      0              607.85494      31.157         21.485012      33.391367      22352.466      730.9694      -68.046645      1160.6421      787.63919      2407.155       364.82606    
 188118000   252.93943     -412.52112     -327.80841     -412.5084       0              2808.9223      31.157         21.485012      33.430272      22378.509      3347.6311      2429.1004      2650.0353     -412.67123      1747.8271      1289.6499    
 188120000   257.81987     -413.58979     -327.24256     -413.56044      0              2152.6886      31.157         21.485012      33.330967      22312.033      1369.4077      2661.4636      2427.1944      832.65753     -2156.8833     -9.2084533    
 188122000   253.68229     -412.95485     -327.99335     -412.92879      0              3329.4095      31.157         21.485012      33.184395      22213.916      5932.5453      3465.1626      590.52067     -504.99733     -610.89801     -526.03153    
 188124000   257.71491     -415.34829     -329.0362      -415.32339      0              3200.0552      31.157         21.485012      33.421466      22372.614      2396.044       4919.8244      2284.297       362.09251      624.28344      2277.3376    
 188126000   254.07343     -412.39164     -327.29914     -412.36834      0              2226.8233      31.157         21.485012      33.455456      22395.367      3316.2967      1018.9755      2345.1977      1462.4678     -293.97184      471.48268    
 188128000   256.80093     -416.08541     -330.07943     -416.06578      0              2299.8937      31.157         21.485012      33.52512       22442.001      1874.0127      2176.8672      2848.8013      1692.208       457.36963      131.81473    
 188130000   251.3277      -414.1819      -330.00898     -414.15919      0              3769.3201      31.157         21.485012      33.384891      22348.13       3917.0013      4350.2486      3040.7103      926.45015     -737.97948      863.98265    
 188132000   257.05558     -415.02767     -328.93641     -414.99439      0              2074.9971      31.157         21.485012      33.22429       22240.623      259.44951      3364.343       2601.1988     -1572.2426      510.30382     -2090.0418    
 188134000   256.56232     -414.75042     -328.82436     -414.72152      0              3054.9236      31.157         21.485012      33.23176       22245.623      3259.904       2711.6383      3193.2284      601.23943     -1352.8231     -353.31791    
 188136000   254.8494      -413.26279     -327.91041     -413.25749      0              896.8374       31.157         21.485012      33.489613      22418.232      2901.6779      198.65231     -409.81798     -711.40692     -1164.6877     -638.63101    
 188138000   254.49099     -412.23171     -326.99936     -412.21406      0              2675.5434      31.157         21.485012      33.227009      22242.443      2540.9502      4358.9439      1126.7363      1480.6361     -535.41168      450.7701     
 188140000   256.28638     -414.71502     -328.88137     -414.69781      0              2080.8387      31.157         21.485012      33.324282      22307.558      2843.8488      2684.5898      714.07734      737.37059      759.52672      56.338391    
 188142000   260.78169     -417.15037     -329.81118     -417.12107      0              2586.4705      31.157         21.485012      33.270658      22271.662      2874.1373      897.59269      3987.6815      1180.6202      679.37339      1508.8337    
 188144000   255.15816     -415.1575      -329.7017      -415.13176      0              4605.5194      31.157         21.485012      33.113897      22166.725      2835.0656      5064.177       5917.3155     -517.47472      392.33277      308.20251    
 188146000   255.21921     -415.42377     -329.94753     -415.40499      0              4882.0272      31.157         21.485012      32.992593      22085.523      3961.3353      6379.339       4305.4073     -483.50412      120.2636      -720.20845    
 188148000   250.55549     -413.9842      -330.0699      -413.96204      0              4902.3307      31.157         21.485012      33.208325      22229.935      5556.3782      5510.3949      3640.219      -617.13192      588.4083      -133.88868    
 188150000   253.52143     -412.67106     -327.76343     -412.65771      0              2152.2658      31.157         21.485012      33.301826      22292.526      3097.5465      2226.0503      1133.2005      350.10504      894.52144      448.95686    
 188152000   261.77306     -415.81994     -328.14873     -415.80179      0              3748.6149      31.157         21.485012      33.262089      22265.926      2522.8329      3969.2463      4753.7656     -1305.0636      1778.8563      488.75097    
 188154000   256.1399      -415.38129     -329.5967      -415.3654       0              5343.9472      31.157         21.485012      33.21997       22237.731      8259.2151      3714.7721      4057.8542      718.52866     -1955.1372     -201.61522    
 188156000   256.139       -414.28836     -328.50407     -414.27395      0              2828.0986      31.157         21.485012      33.233131      22246.541      2273.0927      2676.0189      3535.1843     -320.21527     -159.00676      303.58296    
 188158000   251.74704     -413.51105     -329.19769     -413.49446      0              3839.1135      31.157         21.485012      33.357732      22329.95       3410.6532      4902.6286      3204.0586     -648.20821      1359.6074      287.14392    
 188160000   252.9828      -415.36328     -330.63604     -415.34657      0              3217.4659      31.157         21.485012      33.271424      22272.174      2824.1645      3846.6602      2981.5732      1182.079       1474.9675      667.80641    
 188162000   249.41868     -415.20304     -331.66947     -415.19342      0              5186.2087      31.157         21.485012      33.155965      22194.886      4447.0392      6393.5972      4717.9897      929.29488      87.006107      682.83431    
 188164000   255.37395     -415.32347     -329.79541     -415.30946      0              3188.7527      31.157         21.485012      33.160803      22198.124      1576.9362      4752.5394      3236.7826      1850.4327     -65.692268      797.87323    
 188166000   254.70579     -412.90519     -327.6009      -412.89578      0              2981.9917      31.157         21.485012      33.359747      22331.299      2697.5472      2166.0574      4082.3707     -488.33947      468.52206     -1375.0003    
 188168000   252.76443     -417.95186     -333.29775     -417.924        0              2068.4244      31.157         21.485012      33.373105      22340.241      2137.7214      1737.4861      2330.0658      882.66719     -1204.556       43.665946    
 188170000   253.72909     -416.40471     -331.42753     -416.38423      0              2469.161       31.157         21.485012      33.254586      22260.903      3235.8811      1846.4198      2325.182      -188.31256      1272.5207     -843.93213    
 188172000   257.88571     -415.21701     -328.84773     -415.2038       0              4230.0244      31.157         21.485012      33.262834      22266.424      3801.376       5167.3858      3721.3113      1804.2737      776.22303      769.69593    
 188174000   258.61611     -415.56918     -328.95528     -415.55726      0              3804.2409      31.157         21.485012      33.303157      22293.417      1781.0052      4697.4727      4934.2449      2750.5831      980.75821      482.77797    
 188176000   253.21558     -412.48331     -327.67811     -412.4758       0              1536.6373      31.157         21.485012      33.359126      22330.883     -378.53681      1325.991       3662.4576     -907.22327      2611.4315      1652.037     
 188178000   255.59519     -412.64742     -327.04525     -412.63839      0              2003.2795      31.157         21.485012      33.338477      22317.061      3012.302       1182.0994      1815.4372     -1021.0417      855.42799      283.27112    
 188180000   258.15516     -415.60637     -329.14684     -415.58765      0              4420.4426      31.157         21.485012      33.318568      22303.733      4378.8872      3394.3429      5488.0977     -1535.7796      1068.3854     -379.51159    
 188182000   260.16017     -414.78329     -327.65225     -414.76864      0              2446.7877      31.157         21.485012      33.340941      22318.71       2513.8536      2441.6102      2384.8992      1276.2459      1209.3474      642.81282    
 188184000   258.99162     -416.19079     -329.45112     -416.1744       0              3181.0515      31.157         21.485012      33.646615      22523.33       2160.9866      4205.2187      3176.9491      424.62727     -303.64152      1570.1279    
 188186000   247.68507     -414.68643     -331.73347     -414.67226      0              2163.0241      31.157         21.485012      33.709233      22565.248      1964.4298      2871.1228      1653.5196     -276.54246     -1254.4187      2163.5372    
 188188000   246.2378      -415.0205      -332.55225     -415.00675      0              2440.2532      31.157         21.485012      33.435986      22382.334      1040.0654      5194.0827      1086.6114      491.50252     -1147.7296     -281.61249    
 188190000   255.20577     -412.61102     -327.13928     -412.59307      0              2642.3653      31.157         21.485012      33.420369      22371.88       4272.1856      3265.6405      389.26961     -2817.0613      483.90662      443.41773    
 188192000   262.60335     -417.02568     -329.0764      -417.00107      0              1517.32        31.157         21.485012      33.326028      22308.727      708.28787      2485.4462      1358.226       2074.7218     -687.2337       1.2786878    
 188194000   250.20804     -412.88744     -329.08951     -412.85495      0              4464.9932      31.157         21.485012      33.195517      22221.362      4641.7052      4095.626       4657.6484     -274.19375      1293.8796      1864.9236    
 188196000   257.6132      -413.89973     -327.62171     -413.8806       0              3405.0594      31.157         21.485012      33.298317      22290.177      3241.1572      3433.5945      3540.4265      1220.9843      1773.473       691.61403    
 188198000   256.3778      -412.07669     -326.21242     -412.05403      0              1948.4484      31.157         21.485012      33.25308       22259.895      1556.9256      1609.2161      2679.2034     -316.4774      -309.73706     -80.254083    
 188200000   254.69231     -413.24537     -327.94559     -413.23085      0              3495.2537      31.157         21.485012      33.236434      22248.752      2680.947       3309.4218      4495.3925     -291.77003     -148.93746      1725.4677    
 188202000   254.06694     -410.86737     -325.77704     -410.84586      0              4364.2427      31.157         21.485012      33.320363      22304.935      3719.0876      4611.9364      4761.7042     -218.37054      1483.7622      1981.4807    
 188204000   254.70365     -413.7152      -328.41162     -413.6899       0              3082.92        31.157         21.485012      33.160452      22197.889      4419.2369      2951.2586      1878.2644      159.08103     -352.41375      864.58685    
 188206000   258.47974     -415.62574     -329.0575      -415.59418      0              2651.2125      31.157         21.485012      33.168921      22203.558      1800.9301      2790.4217      3362.2858      631.0897      -852.37754      1713.8368    
 188208000   265.6107      -415.03579     -326.0793      -415.0147       0              2612.5404      31.157         21.485012      33.188683      22216.787      2881.2491      1512.1973      3444.1749      364.52537      1275.7995      1365.143     
 188210000   252.90586     -413.47405     -328.77258     -413.45136      0              4592.0573      31.157         21.485012      33.220241      22237.912      6415.3758      3040.2254      4320.5706     -396.14981     -1309.2621      514.10974    
 188212000   250.40231     -411.7924      -327.9294      -411.76813      0              2667.9027      31.157         21.485012      33.220026      22237.769      4658.1269      22.432435      3323.1487     -714.3001      -99.38146       1549.9196    
 188214000   257.16727     -412.55752     -326.42885     -412.54379      0              1598.9461      31.157         21.485012      33.341597      22319.149      2160.8669      1991.4636      644.50782      1162.4244      128.79396      877.24633    
 188216000   252.7365      -413.14463     -328.49988     -413.11789      0              2133.8719      31.157         21.485012      33.452216      22393.198      3979.5454     -467.83718      2889.9076      248.54952     -401.14795      1201.7626    
 188218000   252.84849     -415.67391     -330.99166     -415.657        0             -78.708163      31.157         21.485012      33.496594      22422.905      2282.609      -548.68604     -1970.0474     -1325.4714     -242.70042      465.20582    
 188220000   257.1889      -414.80705     -328.67114     -414.78354      0              4452.4005      31.157         21.485012      33.268566      22270.261      4830.3933      4509.7132      4017.095      -273.81089     -361.63619      327.21253    
 188222000   256.8341      -413.84426     -327.82717     -413.80647      0              1850.6801      31.157         21.485012      33.423716      22374.12       1806.1995      3116.886       628.95477     -659.02737     -405.38111     -1824.3207    
 188224000   252.08568     -415.30616     -330.87938     -415.28433      0              3132.0914      31.157         21.485012      33.635913      22516.167      3050.3201      4162.5175      2183.4367      969.62195     -1901.6477     -678.63669    
 188226000   254.87233     -412.68184     -327.32178     -412.65621      0              2133.6137      31.157         21.485012      33.541111      22452.705      1705.3788      2305.8215      2389.6408      1143.9816     -250.77483      841.59419    
 188228000   259.30149     -416.70479     -329.86134     -416.68324      0              2882.2905      31.157         21.485012      33.499705      22424.988      3437.3926      2007.9771      3201.5017     -554.83441     -2018.3768     -172.60656    
 188230000   260.36496     -414.22618     -327.02656     -414.20343      0              2955.5078      31.157         21.485012      33.565469      22469.011      3885.7224      1692.0132      3288.7877     -1278.3205      27.572046      944.32119    
 188232000   250.73679     -414.9754      -331.00038     -414.95234      0              4575.6342      31.157         21.485012      33.485994      22415.81       4975.8838      3769.3461      4981.6728      1445.3591     -841.64608     -821.96425    
 188234000   244.99831     -415.06108     -333.00795     -415.03502      0              2407.1378      31.157         21.485012      33.374157      22340.945      1155.2113      4292.4476      1773.7545      928.45948     -580.74463     -138.27246    
 188236000   258.42912     -414.66956     -328.11828     -414.64589      0              3292.3739      31.157         21.485012      33.382126      22346.279      2443.9056      4410.4323      3022.7838      684.98749      410.2759       86.545868    
 188238000   253.63224     -416.24628     -331.30154     -416.22246      0              1674.5359      31.157         21.485012      33.367845      22336.719      1760.8295      478.64173      2784.1365     -317.29106     -1666.8307     -129.60855    
 188240000   254.70373     -412.40346     -327.09987     -412.39455      0              2643.6062      31.157         21.485012      33.254403      22260.78       4520.2133      921.67506      2488.9301     -465.3722      -359.15783     -104.09145    
 188242000   256.57156     -416.19209     -330.26293     -416.16438      0              2281.772       31.157         21.485012      33.205662      22228.153      2946.5526      1608.319       2290.4446     -167.71636      300.42524     -713.85628    
 188244000   255.43911     -416.0215      -330.47161     -415.99641      0              2774.5149      31.157         21.485012      33.132103      22178.912      3089.3842      2341.8194      2892.3411     -800.73926     -95.465478      214.57781    
 188246000   259.94563     -417.1446      -330.08542     -417.1144       0              4589.4717      31.157         21.485012      33.150036      22190.916      3427.8283      4022.7071      6317.8797      515.99624     -1966.002       862.24771    
 188248000   258.52226     -418.22906     -331.64658     -418.1881       0              3180.7083      31.157         21.485012      32.923476      22039.255      1460.8148      3930.9542      4150.3559      1350.1635      1210.0835     -114.02588    
 188250000   256.51507     -414.42078     -328.51054     -414.3888       0              2261.2861      31.157         21.485012      33.073572      22139.731      3276.7904      1359.2349      2147.833       718.54493      1659.7586     -1388.0436    
 188252000   258.9883      -414.93491     -328.19635     -414.90058      0              4637.3158      31.157         21.485012      33.131138      22178.266      3084.2909      5764.2441      5063.4125     -112.54932     -731.78371     -1023.3277    
 188254000   254.50226     -411.54523     -326.3091      -411.51074      0              3519.993       31.157         21.485012      33.221193      22238.55       5536.8141      4019.0429      1004.1221     -752.22323      100.51679      1541.042     
 188256000   254.575       -415.52732     -330.26683     -415.489        0              3948.8725      31.157         21.485012      33.071051      22138.043      2968.9697      4638.3298      4239.3179      763.70985      748.12441      34.52605     
 188258000   249.30158     -412.35798     -328.86363     -412.32332      0              2700.9759      31.157         21.485012      33.29693       22289.248      3925.2546      1640.7337      2536.9394     -512.47515     -1055.3353      1060.1974    
 188260000   256.65123     -415.67365     -329.71781     -415.63969      0              3717.7584      31.157         21.485012      33.119874      22170.726      4663.8825      2814.3209      3675.0717      1086.081       222.03878     -58.605813    
 188262000   256.63749     -412.12517     -326.17393     -412.09658      0              3156.7456      31.157         21.485012      33.11142       22165.066      3436.1589      3306.0413      2728.0366     -314.60844      540.36588     -264.62167    
 188264000   251.89038     -416.03547     -331.6741      -415.9965       0              4240.3005      31.157         21.485012      33.03319       22112.699      5266.0622      3757.4728      3697.3664     -602.90881      790.01518      914.17156    
 188266000   255.90438     -414.41607     -328.71036     -414.38195      0              5887.2598      31.157         21.485012      33.137927      22182.81       6652.706       5299.6524      5709.4211      597.98287     -1793.7251     -169.43272    
 188268000   257.24722     -412.43522     -326.27978     -412.39455      0              5142.0736      31.157         21.485012      32.911143      22031          4829.186       5203.8127      5393.222      -144.87002      427.21976      965.85555    
 188270000   250.85067     -415.23027     -331.21711     -415.20798      0              4277.6183      31.157         21.485012      33.055879      22127.887      4164.1761      3615.0324      5053.6464      730.74695     -600.35165     -587.45929    
 188272000   250.14876     -417.15519     -333.37711     -417.12213      0              2421.1164      31.157         21.485012      33.158091      22196.309      3349.946       1859.1379      2054.2652      1153.1641     -1123.8635      380.97354    
 188274000   248.66909     -411.86012     -328.57761     -411.84377      0              2159.5542      31.157         21.485012      33.250941      22258.463      2022.1306      1367.2847      3089.2474      580.01675     -1784.5256     -975.96492    
 188276000   251.95874     -412.81448     -328.43021     -412.79129      0              3934.8713      31.157         21.485012      33.241083      22251.864      4394.7694      3148.9959      4260.8486      575.07613      1407.6747      1332.3056    
 188278000   248.42192     -414.65288     -331.45314     -414.62959      0              1817.5543      31.157         21.485012      33.442283      22386.549      3399.4135      1701.6535      351.59591      241.81355     -979.61949      1882.1867    
 188280000   253.58532     -414.97182     -330.04279     -414.96325      0              843.36074      31.157         21.485012      33.648725      22524.743      850.18424     -235.04191      1914.9399      344.14462     -422.1589      -686.84464    
 188282000   253.6952      -414.37728     -329.41146     -414.35953      0              3140.5474      31.157         21.485012      33.303473      22293.629      5246.6324      2549.2768      1625.7331      1869.0695     -247.78457     -208.75209    
 188284000   249.37041     -410.16635     -326.64894     -410.14869      0              3054.5688      31.157         21.485012      33.244033      22253.839      2476.7833      2722.5784      3964.3446      1466.1979     -151.81604     -145.30998    
 188286000   258.535       -411.76766     -325.18092     -411.75162      0              3038.4201      31.157         21.485012      33.212546      22232.761      2463.9396      2703.9767      3947.3439     -463.48376      311.09847     -707.85878    
 188288000   256.3065      -413.13414     -327.29375     -413.11632      0              3326.4448      31.157         21.485012      33.21757       22236.124      2964.8977      3461.3498      3553.087       1189.5012     -694.33781     -392.88158    
 188290000   254.57001     -413.84508     -328.58627     -413.83545      0              4073.4262      31.157         21.485012      32.996896      22088.404      3027.4165      5328.2441      3864.6178      559.49572      14.401397     -437.31939    
 188292000   264.77342     -413.84278     -325.16671     -413.83627      0              3060.9313      31.157         21.485012      33.158366      22196.493      903.68478      3569.5726      4709.5365      454.09317      390.56596      473.03835    
 188294000   255.29013     -413.42818     -327.92819     -413.42028      0              4710.8369      31.157         21.485012      33.195669      22221.463      5032.4297      4610.0665      4490.0145      1706.7909     -888.13342     -1405.0116    
 188296000   255.11608     -412.63491     -327.19321     -412.62421      0              2893.9379      31.157         21.485012      33.313824      22300.558      4046.3129     -85.558037      4721.059       143.99811     -796.70198      81.582357    
 188298000   250.28713     -416.19666     -332.37224     -416.17678      0              3976.5799      31.157         21.485012      33.265738      22268.369      3638.1287      2703.2761      5588.3349      318.49558     -1778.807      -603.38066    
 188300000   250.04111     -417.17744     -333.43542     -417.1669       0              2712.7309      31.157         21.485012      33.245126      22254.57       676.11733      4416.1925      3045.8828      1164.3466     -873.41691      1514.6708    
 188302000   256.34708     -414.45186     -328.59788     -414.4321       0              2744.9397      31.157         21.485012      33.366543      22335.848      1895.5919      3286.805       3052.4221     -469.73894      684.89603      525.29268    
 188304000   256.65133     -415.0414      -329.08552     -415.03406      0              3061.1616      31.157         21.485012      33.528366      22444.174      3269.7186      3472.5224      2441.2437      419.30796     -1647.935      -1263.7663    
 188306000   254.50228     -415.63377     -330.39764     -415.62781      0              3426.9783      31.157         21.485012      33.410717      22365.418      3337.2324      3972.7425      2970.9599     -197.44503      1114.2484      114.58054    
 188308000   255.76024     -413.42266     -327.76523     -413.42624      0              4092.8642      31.157         21.485012      33.376306      22342.384      3572.3565      4894.18        3812.0562     -757.46951     -653.75593     -968.00431    
 188310000   246.64983     -414.3095      -331.70325     -414.29911      0              1655.1819      31.157         21.485012      33.428339      22377.215      1140.4756      2184.3926      1640.6774      109.02097     -329.34931     -895.04226    
 188312000   262.34385     -416.37751     -328.51514     -416.38276      0              3708.8369      31.157         21.485012      33.363121      22333.557      4733.8151      4063.1476      2329.5481      242.98845      217.64199      1614.7398    
 188314000   255.46773     -415.85444     -330.29497     -415.83229      0              4668.3217      31.157         21.485012      33.241128      22251.894      4095.0801      4603.5336      5306.3513     -578.68857     -497.86352     -821.32883    
 188316000   252.16593     -415.31159     -330.85793     -415.28767      0              1727.4463      31.157         21.485012      33.374178      22340.959      202.60742      2704.3831      2275.3483     -214.93316      461.08022      141.45909    
 188318000   256.48176     -414.04435     -328.14527     -414.03411      0              2464.1349      31.157         21.485012      33.296964      22289.271      2886.7495      3039.5708      1466.0843      796.50288     -1089.0459      719.43496    
 188320000   254.20663     -413.76558     -328.62847     -413.75297      0              4429.5383      31.157         21.485012      33.247934      22256.45       4482.3259      3158.4346      5647.8543     -915.81011     -348.75866     -772.09227    
 188322000   257.7934      -412.626       -326.28763     -412.62214      0              1245.2183      31.157         21.485012      33.294987      22287.948      2565.1216      212.36699      958.16631     -1842.8518     -39.250974      1002.802     
 188324000   256.04818     -414.11286     -328.35899     -414.09972      0              2085.45        31.157         21.485012      33.282854      22279.826      1989.4048      1193.7879      3073.1572      751.0186       279.02031     -2107.9919    
 188326000   261.00833     -413.14517     -325.73008     -413.13972      0              4394.8217      31.157         21.485012      33.057758      22129.145      5141.1071      4094.6499      3948.7081      933.44037      206.60436      712.02092    
 188328000   257.18514     -413.16543     -327.03078     -413.16435      0              3537.2559      31.157         21.485012      33.126238      22174.986      2977.1024      2685.887       4948.7781      356.17487      200.98806      2458.906     
 188330000   249.15156     -413.04726     -329.60316     -413.04178      0              1353.8152      31.157         21.485012      33.247537      22256.184      1197.1069      369.23225      2495.1063      1364.4346      1503.0197      159.63816    
 188332000   261.41721     -416.16463     -328.6126      -416.1657       0              3572.0568      31.157         21.485012      33.243242      22253.309      3032.227       3105.3252      4578.6181      515.92629      70.090124     -474.36444    
 188334000   253.58601     -414.60006     -329.6708      -414.58435      0              3388.0481      31.157         21.485012      33.239519      22250.817      2272.6108      3528.6237      4362.9098      936.71147      1997.8765      1680.2104    
 188336000   254.70091     -416.19157     -330.88891     -416.18367      0              2243.2661      31.157         21.485012      33.38876       22350.721      1549.1272      4299.2336      881.43758     -314.96292      814.78684     -752.13975    
 188338000   253.42542     -414.76718     -329.8917      -414.77365      0              2317.1467      31.157         21.485012      33.371241      22338.993      3154.7264      2510.7364      1285.9773      426.27269      131.56555      137.67141    
 188340000   256.47092     -415.22159     -329.32613     -415.21136      0              3479.7835      31.157         21.485012      33.235764      22248.304      3291.2425      5147.4792      2000.6289      1248.1826     -82.737893      1190.2636    
 188342000   256.17533     -412.90519     -327.10874     -412.89974      0              2925.5614      31.157         21.485012      33.298751      22290.467      4114.3163      3475.5911      1186.7768     -1654.5174     -1037.0168      1168.6258    
 188344000   262.71191     -414.27982     -326.29417     -414.27525      0              4531.1335      31.157         21.485012      33.158468      22196.561      4750.0435      5648.1339      3195.2231      250.23291      1423.9383     -756.35532    
 188346000   259.01542     -413.0008      -326.25315     -412.99644      0              4299.8763      31.157         21.485012      33.43842       22383.963      5454.5873      4578.7504      2866.2911      211.57595     -60.334772     -869.12317    
 188348000   253.55603     -411.89662     -326.9774      -411.90328      0              3730.9735      31.157         21.485012      33.629958      22512.181      3879.412       1978.5693      5334.9393      789.32427      1545.0953      2433.5743    
 188350000   248.99529     -414.04992     -330.65816     -414.05622      0              3326.7504      31.157         21.485012      33.523118      22440.661      2976.3436      4157.0473      2846.8603     -1685.3491     -421.69718     -120.29878    
 188352000   255.54495     -410.68602     -325.10069     -410.67704      0              2837.7358      31.157         21.485012      33.570359      22472.284      3776.126       2592.1049      2144.9764     -425.14661      987.17388      2455.7752    
 188354000   249.55231     -411.62338     -328.04506     -411.62575      0              3795.3764      31.157         21.485012      33.416007      22368.96       3284.1568      4074.0874      4027.8851      1834.749      -1153.7988      329.24721    
 188356000   249.30888     -414.18417     -330.68738     -414.17985      0              4385.0104      31.157         21.485012      33.543197      22454.102      4629.0252      4459.0028      4067.0032      716.93599     -1188.4608     -1092.4692    
 188358000   250.87611     -414.07125     -330.04957     -414.05775      0              4241.9955      31.157         21.485012      33.527419      22443.54       1631.5063      6943.0566      4151.4236      949.36551     -2114.764       1437.78      
 188360000   250.09881     -415.01424     -331.25289     -415.00727      0              2903.2682      31.157         21.485012      33.625827      22509.415      3077.7267      2140.9383      3491.1395      1503.6688     -451.38908      136.36528    
 188362000   249.97803     -411.54307     -327.82217     -411.53841      0              3828.4692      31.157         21.485012      33.514201      22434.692      1605.8719      4314.2771      5565.2584     -585.93165      437.26022     -104.21967    
 188364000   255.14382     -411.5956      -326.14461     -411.58916      0              3285.9067      31.157         21.485012      33.336354      22315.639      826.9232       4386.936       4643.861       1765.9135     -86.679474      396.99393    
 188366000   254.49066     -411.92455     -326.69231     -411.91194      0              2117.3872      31.157         21.485012      33.482282      22413.325      4062.7147      1350.1262      939.32076      1110.2956      383.80162      151.16373    
 188368000   261.40914     -414.88859     -327.33926     -414.87571      0              2638.6748      31.157         21.485012      33.401242      22359.076      2354.2693      2353.3868      3208.3682      398.853       -653.49921     -1587.8039    
 188370000   250.18252     -411.70582     -327.91643     -411.70102      0              3093.1496      31.157         21.485012      33.583603      22481.15       3773.8917      1835.1029      3670.4543      611.26858      470.07308      2820.2861    
 188372000   254.2518      -410.84059     -325.68835     -410.8219       0              3878.1879      31.157         21.485012      33.44082       22385.57       5569.26        3137.3353      2927.9684      289.69817     -1155.2182      207.20936    
 188374000   252.2171      -411.87734     -327.40655     -411.87605      0              2659.3543      31.157         21.485012      33.40777       22363.446      3626.7435      1992.4568      2358.8626     -1417.9916     -195.1278       1487.3487    
 188376000   260.71008     -412.60941     -325.29421     -412.6131       0              3375.1898      31.157         21.485012      33.565208      22468.836      4572.8359      3604.8142      1947.9194      185.86778     -597.55367      848.09781    
 188378000   253.0273      -410.03999     -325.29785     -410.03315      0              2092.557       31.157         21.485012      33.561455      22466.324      2602.1399      3241.9349      433.59627      722.29952     -141.00386      44.657619    
 188380000   257.65809     -412.8228      -326.52975     -412.82198      0              3067.5056      31.157         21.485012      33.530476      22445.586      2595.0432      3532.5996      3074.8741     -142.56047      111.51908     -181.86818    
 188382000   257.88803     -412.80659     -326.43653     -412.80214      0              2414.3846      31.157         21.485012      33.358006      22330.133      2863.7459      971.77393      3407.6341      2119.2477     -360.14898     -1025.9007    
 188384000   253.73705     -412.85931     -327.87946     -412.85705      0              2567.4583      31.157         21.485012      33.441071      22385.738      2099.9588      1783.4446      3818.9714     -715.78655     -80.15665      -87.82611     
 188386000   255.96178     -413.60332     -327.87838     -413.59798      0              2600.7042      31.157         21.485012      33.456689      22396.193      1212.923       3620.4495      2968.7401     -1547.2746      1975.707      -1094.9914    
 188388000   263.87193     -413.42629     -325.05214     -413.41875      0              4160.2029      31.157         21.485012      33.415896      22368.886      6151.903       3242.7276      3085.9782     -243.60136     -1615.4583      1759.3398    
 188390000   252.01657     -412.9301      -328.52647     -412.9247       0              3892.9973      31.157         21.485012      33.233017      22246.465      3788.8928      3880.747       4009.3522      816.30626      1779.5068     -1402.7886    
 188392000   248.14615     -415.99198     -332.8846      -415.97185      0              3424.6873      31.157         21.485012      33.328252      22310.216      3980.9871      1754.7435      4538.3312      821.12112     -365.33234      648.73711    
 188394000   259.19115     -413.5316      -326.72511     -413.51463      0              2315.8402      31.157         21.485012      33.48217       22413.25       1017.1694      4593.2457      1337.1054     -462.18518     -376.22622      717.23792    
 188396000   257.80246     -415.05343     -328.71202     -415.05335      0              1626.6358      31.157         21.485012      33.434562      22381.381      2822.9354      1597.6542      459.31771      273.6743      -306.63521     -626.74065    
 188398000   258.02039     -413.98412     -327.56973     -413.98616      0              3663.1225      31.157         21.485012      33.468186      22403.889      3504.8255      3744.7472      3739.7949     -610.73322     -592.88644      427.81144    
 188400000   251.68162     -416.18637     -331.89491     -416.1779       0              1308.4991      31.157         21.485012      33.496516      22422.853      1647.7119      688.26861      1589.5167     -949.61441     -839.0909       411.01396    
 188402000   246.78553     -416.90593     -334.25424     -416.90983      0              3776.2584      31.157         21.485012      33.731845      22580.384      3786.5665      4289.4708      3252.738       920.69715     -1099.2652      1343.8266    
 188404000   253.56176     -413.80257     -328.88143     -413.79551      0              3150.0419      31.157         21.485012      33.526358      22442.83       4239.6962      1795.0826      3415.3469     -1394.0507     -2155.3245     -1270.8301    
 188406000   256.39262     -414.90774     -329.03851     -414.91212      0              2473.9479      31.157         21.485012      33.567156      22470.14       1751.8432      2490.476       3179.5246     -642.1428       1629.5438      1128.4378    
 188408000   248.41465     -412.76024     -329.56293     -412.75933      0              3160.3473      31.157         21.485012      33.529663      22445.042      5077.9342      2427.6867      1975.4212      1254.2382     -1805.4783      893.93511    
 188410000   256.71617     -413.18415     -327.20656     -413.18017      0              5143.6556      31.157         21.485012      33.406196      22362.392      3637.7453      6686.1444      5107.077      -1040.4275      283.0538       349.6519     
 188412000   251.65305     -416.34708     -332.06519     -416.33637      0              2184.4505      31.157         21.485012      33.547603      22457.051      3787.6803      2083.0463      682.62503     -801.1369      -40.897229     -1115.2321    
 188414000   254.01711     -414.14554     -329.07189     -414.13197      0              2591.2785      31.157         21.485012      33.631078      22512.93       2460.0066      3121.4035      2192.4254      1048.9373     -832.26045      901.53023    
 188416000   251.21013     -416.88804     -332.75449     -416.86957      0              2075.7504      31.157         21.485012      33.448744      22390.874     -519.09721      2449.5621      4296.7863     -26.394036     -983.92153      713.40175    
 188418000   258.0919      -413.29535     -326.85701     -413.2916       0              2062.404       31.157         21.485012      33.732719      22580.97       1766.5987      2233.6118      2187.0016      549.69689     -1278.0283     -1146.716     
 188420000   259.50012     -413.4759      -326.56593     -413.47566      0              2600.8871      31.157         21.485012      33.392421      22353.171      3502.2259      1987.4207      2313.0148     -573.19255      234.24753     -620.83587    
 188422000   255.9913      -413.62258     -327.88776     -413.61839      0              3049.7414      31.157         21.485012      33.49427       22421.35       1431.6249      3529.4144      4188.1849     -106.60736      923.75333     -828.84281    
 188424000   253.85767     -413.41869     -328.39845     -413.40507      0              3482.3689      31.157         21.485012      33.467187      22403.22       4989.9982      3234.5797      2222.5289     -149.23316     -1177.6441      329.07404    
 188426000   254.87683     -415.39991     -330.03833     -415.39831      0              3971.8854      31.157         21.485012      33.522539      22440.273      4077.8184      6005.8491      1831.9886     -1432.3054     -761.08976     -904.61374    
 188428000   254.71861     -413.2685      -327.95992     -413.26627      0              2686.8658      31.157         21.485012      33.506046      22429.232      2770.7266      3520.9857      1768.8853      1411.6215      980.23539     -220.01293    
 188430000   254.62913     -414.68376     -329.40514     -414.67869      0              1069.3757      31.157         21.485012      33.467288      22403.288      1188.4215      1039.0376      980.66795     -327.90842      473.09184     -223.01066    
 188432000   254.96597     -413.396       -328.00458     -413.39539      0              1912.0752      31.157         21.485012      33.494981      22421.826      2400.6186      2571.986       763.62089      669.27381     -789.31812     -545.66989    
 188434000   253.89347     -409.93232     -324.90009     -409.93311      0              2087.8699      31.157         21.485012      33.404403      22361.192      1254.5411      2492.2518      2516.8166      262.25209     -1025.0166      153.032      
 188436000   252.40229     -414.39599     -329.86317     -414.39388      0              984.03672      31.157         21.485012      33.318284      22303.543      1017.4415      779.54564      1155.123       357.01492     -1611.5016     -270.42138    
 188438000   251.55861     -410.6801      -326.42984     -410.67481      0              1909.7793      31.157         21.485012      33.478994      22411.124      2227.5698      3730.7895     -229.02136      315.97119      129.25579     -718.4137     
 188440000   252.98329     -412.57345     -327.84605     -412.56998      0              1437.0081      31.157         21.485012      33.544109      22454.712      8.7741256      2540.0158      1762.2342      464.66023     -1772.9731     -587.26477    
 188442000   248.99131     -412.43825     -329.04781     -412.42639      0              2981.3075      31.157         21.485012      33.50448       22428.184      4037.4143      3437.1829      1469.3253      357.6735      -1591.6357      124.68464    
 188444000   256.36447     -411.84961     -325.98981     -411.85183      0              2483.7699      31.157         21.485012      33.514754      22435.062      1844.976       2435.2988      3171.035       219.59481      399.93337      1184.6368    
 188446000   252.08593     -411.29755     -326.87069     -411.28911      0              4154.7148      31.157         21.485012      33.345678      22321.881      4395.0802      3610.6052      4458.4589      925.76212     -950.13205     -1840.5527    
 188448000   254.92912     -414.60651     -329.22742     -414.61396      0              4144.5793      31.157         21.485012      33.401877      22359.501      3957.4345      2483.6905      5992.613       308.56613      1203.2399      1084.3785    
 188450000   251.63962     -412.95739     -328.68        -412.96254      0              2794.7829      31.157         21.485012      33.400495      22358.576      3291.2323      1978.7825      3114.3338      982.65431      1214.8482     -1507.1782    
 188452000   251.35772     -412.37315     -328.19017     -412.37275      0              1406.9986      31.157         21.485012      33.394727      22354.715      1545.2853      1345.522       1330.1886     -178.1322       1730.2158     -822.54005    
 188454000   251.94619     -411.95694     -327.57687     -411.96469      0              3728.6208      31.157         21.485012      33.485095      22415.208      3291.3594      3247.7984      4646.7046      2186.7353      957.80016      366.00147    
 188456000   254.6748      -414.08135     -328.78744     -414.07641      0              1633.0996      31.157         21.485012      33.468719      22404.246      467.1792       4379.139       52.980505      396.5384       1356.9728     -345.18231    
 188458000   258.45594     -412.6602      -326.09994     -412.65452      0              3161.3555      31.157         21.485012      33.300557      22291.677      4341.7015      2962.7968      2179.5683      734.39798     -815.67456      1264.452     
 188460000   251.08807     -412.37188     -328.27921     -412.3599       0              4194.7366      31.157         21.485012      33.415299      22368.486      4060.4808      3765.3818      4758.3472     -1669.8817      254.54443     -439.10239    
 188462000   250.58223     -411.74549     -327.82223     -411.72398      0              3463.4534      31.157         21.485012      33.658568      22531.332      3826.0262      5062.9873      1501.3466      224.23834      2041.5914      1275.971     
 188464000   260.30773     -414.88955     -327.7091      -414.88194      0              2334.9452      31.157         21.485012      33.374488      22341.167      2959.9628      2025.0775      2019.7953     -957.7084      -165.55156      682.7323     
 188466000   258.78567     -410.79467     -324.12398     -410.78244      0              4824.3896      31.157         21.485012      33.319036      22304.046      5167.6376      4894.7222      4410.809      -128.0855      -40.448578     -944.86812    
 188468000   256.09314     -413.73794     -327.96901     -413.71621      0              3340.4092      31.157         21.485012      33.261298      22265.397      2723.6031      3873.9627      3423.6617      953.5915       316.39255     -1034.0196    
 188470000   250.8032      -414.55206     -330.5548      -414.52911      0              3580.9104      31.157         21.485012      33.350913      22325.385      3262.482       2387.5751      5092.6742     -457.95805     -682.34233     -100.26609    
 188472000   251.4583      -411.5471      -327.33043     -411.53215      0              3105.2185      31.157         21.485012      33.38342       22347.146      3528.5493      3300.1472      2486.9591     -1133.237      -148.76856      315.72815    
 188474000   256.14723     -412.44516     -326.65811     -412.42842      0              3207.4836      31.157         21.485012      33.218187      22236.537      1091.6789      3796.7992      4733.9728      824.23822     -488.76989     -448.47152    
 188476000   259.91437     -414.36579     -327.31708     -414.35514      0              5272.6841      31.157         21.485012      33.266646      22268.976      3505.6392      6648.9825      5663.4305      1019.316      -495.6383       76.152667    
 188478000   251.29602     -413.54071     -329.3784      -413.52392      0              3368.4029      31.157         21.485012      33.360958      22332.109      2909.704       2235.9547      4959.5499      617.3216      -1777.2178      650.6878     
 188480000   254.29271     -413.38096     -328.21502     -413.38259      0              3393.9239      31.157         21.485012      33.505705      22429.004      2299.8211      4616.0548      3265.8959     -1348.8959     -333.14915     -1245.1914    
 188482000   252.76896     -413.04519     -328.38957     -413.04586      0              2275.4284      31.157         21.485012      33.513362      22434.13       2265.1615      3538.1243      1022.9994      1817.8018     -1789.2736      795.08777    
 188484000   257.14387     -412.4357      -326.31487     -412.42436      0              2257.5544      31.157         21.485012      33.43432       22381.219      2601.4343      1114.0339      3057.1949     -78.437554     -261.52486      155.8754     
 188486000   249.95998     -412.63689     -328.92203     -412.63141      0              4060.5529      31.157         21.485012      33.590129      22485.519      4525.5122      5490.3322      2165.8143     -92.265451     -1585.8142     -2812.4394    
 188488000   256.60439     -412.07612     -326.13596     -412.07545      0              4208.2679      31.157         21.485012      33.286858      22282.506      4426.7145      3248.999       4949.09       -200.79787     -363.84366     -940.97928    
 188490000   257.90457     -413.53624     -327.16064     -413.52521      0              2885.812       31.157         21.485012      33.37996       22344.83       2434.7326      2661.3905      3561.3128     -1589.1135      387.42098     -302.29566    
 188492000   250.52796     -411.94734     -328.04226     -411.93447      0              3435.4938      31.157         21.485012      33.169614      22204.022      4580.7801      3367.6575      2358.0437      625.44496     -12.973179      946.68658    
 188494000   253.57418     -416.45557     -331.53027     -416.44001      0              4310.4878      31.157         21.485012      33.249014      22257.173      5121.7335      4086.2437      3723.4863     -1847.6774     -509.26541     -878.79693    
 188496000   260.54649     -415.7453      -328.48489     -415.73239      0              6933.4327      31.157         21.485012      33.082705      22145.844      7683.3285      5288.1269      7828.8426     -972.12653      130.93548      923.8138     
 188498000   250.33293     -415.73677     -331.89701     -415.7166       0              2739.228       31.157         21.485012      33.175744      22208.126      2409.2597      4052.3606      1756.0637     -2003.3079     -1500.3219      586.67567    
 188500000   259.53081     -414.92167     -328.00142     -414.9062       0              3352.3495      31.157         21.485012      33.09764       22155.842      6121.633       2265.1362      1670.2795     -866.12462     -1011.015       638.22274    
 188502000   264.40474     -414.4823      -325.92971     -414.47125      0              3208.6917      31.157         21.485012      33.299716      22291.113      4601.3717      2452.3895      2572.314      -540.39839      230.97445     -854.79702    
 188504000   258.94524     -415.34374     -328.6196      -415.32222      0              3098.2738      31.157         21.485012      33.285793      22281.793      2016.8528      3569.9176      3708.0509      291.17465     -1000.0959     -195.1823     
 188506000   256.15865     -412.09152     -326.30065     -412.08745      0              3215.1829      31.157         21.485012      33.228931      22243.729      2469.2705      1284.2517      5892.0265      1218.0088      307.39238      720.52082    
 188508000   254.91505     -413.16625     -327.79187     -413.15232      0              2744.8067      31.157         21.485012      33.194309      22220.553      2754.0746      4663.7851      816.56033      1066.8185      1571.2836      18.998167    
 188510000   251.30095     -414.664       -330.50004     -414.63542      0              2230.6366      31.157         21.485012      33.232532      22246.14       2610.1725      1852.7105      2229.0267      1807.456      -10.615662      369.20896    
 188512000   251.65001     -410.85739     -326.57652     -410.8442       0              4104.3104      31.157         21.485012      33.407617      22363.343      3320.6968      4395.0076      4597.2269      1852.8054      415.45283      309.44256    
 188514000   261.35822     -414.75744     -327.22516     -414.7357       0              3480.4201      31.157         21.485012      33.165614      22201.345      3317.2413      3816.3049      3307.7142     -212.45565     -599.65394     -925.93281    
 188516000   255.4036      -415.77724     -330.23925     -415.76085      0              3694.3657      31.157         21.485012      33.326648      22309.142      4423.4375      2735.1408      3924.519       1208.5053     -251.26294      1615.5932    
 188518000   257.4187      -412.99034     -326.77747     -412.97786      0              3180.2034      31.157         21.485012      33.214652      22234.171      2940.7284      3210.1413      3389.7404     -1763.9198      1813.9424     -1395.1679    
 188520000   257.54373     -409.83293     -323.57818     -409.81424      0              2798.6496      31.157         21.485012      33.4218        22372.838      2525.5661      3757.1644      2113.2184     -104.1512       348.19218      213.44277    
 188522000   255.46906     -412.40553     -326.84562     -412.38551      0              3467.2361      31.157         21.485012      33.197506      22222.693      5740.9763      1441.1942      3219.5377     -257.82964      170.20024      437.90996    
 188524000   261.71644     -412.68344     -325.03119     -412.66599      0              3465.549       31.157         21.485012      33.42499       22374.973      2608.4531      3990.7287      3797.4653      425.26256     -2082.4211      717.27418    
 188526000   258.86527     -410.50276     -323.8054      -410.49436      0              5926.0446      31.157         21.485012      33.365268      22334.995      8598.5176      4922.4008      4257.2154      1728.4966     -1848.967      -1615.0344    
 188528000   251.30932     -411.39855     -327.23178     -411.37866      0              3501.797       31.157         21.485012      33.380111      22344.931      2982.1776      7149.9294      373.28402      799.07663     -116.58772      1349.7814    
 188530000   250.47897     -412.04216     -328.15349     -412.03279      0              2832.8583      31.157         21.485012      33.336473      22315.719      2331.1599      2341.189       3826.2261     -905.63828      683.64495     -416.71166    
 188532000   254.01536     -411.72411     -326.65105     -411.70953      0              4007.2622      31.157         21.485012      33.424131      22374.398      3317.2082      3457.0713      5247.5071      378.81039      298.84104     -134.84222    
 188534000   258.55889     -415.19135     -328.59661     -415.18506      0              2940.6892      31.157         21.485012      33.323898      22307.301      3696.5177      2270.3945      2855.1554     -1189.8835     -1886.7652     -318.26498    
 188536000   258.02763     -412.47367     -326.05685     -412.46992      0              956.00282      31.157         21.485012      33.530549      22445.635      3230.1182      1753.3846     -2115.4943      1127.2262     -1764.9746      29.289947    
 188538000   255.26705     -415.37822     -329.88596     -415.36638      0              4120.2961      31.157         21.485012      33.255994      22261.846      5143.4244      3881.923       3335.5408     -106.51597     -49.010153     -188.623      
 188540000   249.81411     -409.9354      -326.26939     -409.92491      0              2162.5012      31.157         21.485012      33.363872      22334.06       4137.333       1341.3827      1008.7881      424.02         449.34356     -52.166033    
 188542000   253.3523      -411.29785     -326.44686     -411.30102      0              3056.6852      31.157         21.485012      33.501051      22425.889      4842.7074      2072.423       2254.9251      783.48549     -127.69841      493.07948    
 188544000   263.35026     -411.07976     -322.88032     -411.07908      0              3753.2704      31.157         21.485012      33.365483      22335.138      4373.2552      3676.2253      3210.3305      859.25416     -602.2393      -222.1781     
 188546000   262.62961     -412.8859      -324.92782     -412.87853      0              4894.3856      31.157         21.485012      33.275627      22274.988      3837.9423      3917.4135      6927.8009     -498.29776     -138.2696       1240.4048    
 188548000   247.59921     -412.80178     -329.87757     -412.79529      0              1126.7119      31.157         21.485012      33.319369      22304.269      610.05927      2158.5374      611.53897      992.14354      530.47101      398.70858    
 188550000   258.70194     -412.15909     -325.51643     -412.15868      0              3195.3649      31.157         21.485012      33.44292       22386.976      4014.346       806.45803      4765.2908     -1391.9523      440.63422      775.97373    
 188552000   253.38317     -412.54786     -327.68654     -412.54639      0              3683.0454      31.157         21.485012      33.458904      22397.675      3499.2211      4449.0625      3100.8525      97.884752      539.35797     -425.14369    
 188554000   258.03866     -415.68325     -329.26274     -415.6716       0              5080.021       31.157         21.485012      33.49844       22424.141      4919.0448      4906.0777      5414.9405      1397.5783     -1156.049       151.1956     
 188556000   255.58998     -412.52846     -326.92805     -412.501        0              4393.4481      31.157         21.485012      33.35192       22326.059      3269.9415      4018.4234      5891.9795      1987.2194     -702.39939     -1.3274073    
 188558000   254.96209     -412.33087     -326.94075     -412.31694      0              2472.9141      31.157         21.485012      33.493998      22421.168      1875.5323      3609.8637      1933.3465     -148.47841      1429.9545     -64.801245    
 188560000   258.65221     -414.14129     -327.51529     -414.13183      0              5127.7476      31.157         21.485012      33.535821      22449.164      5947.9826      6653.9025      2781.3578     -134.84977      541.91005     -771.86879    
 188562000   248.51305     -411.02656     -327.7963      -411.02108      0              1251.0539      31.157         21.485012      33.48988       22418.411      1498.3032      1378.2937      876.56486      1621.0477      765.37001     -297.34732    
 188564000   254.43602     -415.39474     -330.1808      -415.37578      0              2966.0396      31.157         21.485012      33.411933      22366.232      3781.0022      1890.778       3226.3387     -1357.5131     -480.48207      1522.7744    
 188566000   257.7596      -411.76956     -325.4425      -411.74958      0              3698.8196      31.157         21.485012      33.395498      22355.231      3954.8014      2619.7018      4521.9557      905.464        1980.884      -729.34081    
 188568000   250.16478     -413.3542      -329.57075     -413.34123      0              2175.7134      31.157         21.485012      33.421128      22372.388      2054.2507      1076.3297      3396.5597      2576.1385     -1461.2872     -160.6667     
 188570000   253.39221     -414.0316      -329.16724     -414.00553      0              2734.9089      31.157         21.485012      33.390367      22351.796      3333.1502      1765.446       3106.1304      1034.0912     -1541.8998      223.30355    
 188572000   260.17478     -413.43134     -326.29542     -413.40328      0              3016.4425      31.157         21.485012      33.485167      22415.256      2259.3436      3151.9536      3638.0303      569.20431     -533.95851      597.5433     
 188574000   257.57274     -413.74203     -327.47756     -413.72229      0              2956.0538      31.157         21.485012      33.506684      22429.66       2840.1531      4266.4578      1761.5506      78.321596     -185.5441       194.81265    
 188576000   255.39522     -415.42279     -329.8876      -415.38998      0              5251.608       31.157         21.485012      33.46958       22404.822      4921.5314      4749.7408      6083.5518     -515.4463      -395.52353      362.62695    
 188578000   256.09796     -410.78588     -325.01533     -410.77599      0              2646.597       31.157         21.485012      33.469698      22404.901      2314.5995      3488.7329      2136.4586      1741.0144      451.38254      1123.4635    
 188580000   256.45671     -413.43104     -327.54035     -413.41224      0              3739.9187      31.157         21.485012      33.600506      22492.465      3181.6422      5105.3212      2932.7926      1506.4638     -539.14412     -520.45662    
[...]
 196020000   252.7405      -415.63617     -330.99008     -415.58976      0              3270.9495      31.157         21.485012      33.202186      22225.826      2197.0907      4059.304       3556.4538      120.47604     -176.96145     -294.06881    
 196022000   251.24446     -416.93143     -332.78638     -416.89144      0              5559.7575      31.157         21.485012      33.268482      22270.205      5743.5638      5141.3386      5794.3701      1212.1499     -1154.2248     -115.90572    
 196024000   249.91092     -416.05544     -332.35702     -416.02174      0              4168.1268      31.157         21.485012      33.206497      22228.712      2426.5554      5689.5631      4388.2618      417.0617       163.77784      2314.3939    
 196026000   257.57869     -415.25635     -328.98989     -415.23084      0              2375.8811      31.157         21.485012      33.445857      22388.942      1877.9155      4034.1513      1215.5763      52.654705     -625.0694      -1384.1962    
 196028000   259.22489     -417.90816     -331.09037     -417.86343      0              1876.5812      31.157         21.485012      33.394626      22354.647      679.589        1876.247       3073.9075     -718.30695      645.04458      2172.3088    
 196030000   254.89287     -416.78874     -331.42179     -416.74831      0              3223.4374      31.157         21.485012      33.302011      22292.65       3550.5345      1905.4151      4214.3627     -125.13197     -219.9521       575.89151    
 196032000   250.91407     -416.80435     -332.76995     -416.75911      0              1529.8555      31.157         21.485012      33.583301      22480.948      2157.4436      1586.3783      845.74444      337.9568      -771.45578     -224.73577    
 196034000   249.84748     -416.84689     -333.16971     -416.80033      0              719.34357      31.157         21.485012      33.414168      22367.729     -272.93767      1130.0816      1300.8868      640.23199     -1683.9051     -569.91056    
 196036000   255.62748     -416.05637     -330.4434      -416.01371      0              1998.753       31.157         21.485012      33.549879      22458.575      2695.5429      3443.8724     -143.15636      118.17313      1943.485      -1129.1817    
 196038000   256.39553     -413.38067     -327.51046     -413.33945      0              2477.4449      31.157         21.485012      33.530102      22445.336      1983.2268      4622.3419      826.76595     -582.93674     -661.13268      1153.9136    
 196040000   255.63268     -415.25073     -329.63601     -415.21149      0              4339.2981      31.157         21.485012      33.381866      22346.105      3483.3528      6892.6383      2641.9031      1357.3412      9.3776899      622.9501     
 196042000   249.87439     -418.50738     -334.82119     -418.46176      0              1517.7428      31.157         21.485012      33.461939      22399.707      1414.9         2726.5113      411.81703     -187.97107     -484.63829      2032.0048    
 196044000   256.49386     -418.66257     -332.75944     -418.6215       0              3905.4058      31.157         21.485012      33.358451      22330.431      3817.7356      5309.5295      2588.9523     -1033.3411      980.38941      1125.388     
 196046000   256.68474     -415.95319     -329.98613     -415.91717      0              3380.3633      31.157         21.485012      33.408373      22363.85       3320.8701      3307.2151      3513.0047     -476.17747      2167.7927      577.73859    
 196048000   249.92033     -415.0142      -331.31263     -414.97045      0              5151.5309      31.157         21.485012      33.259929      22264.48       4070.5379      5991.6403      5392.4146      1529.8445     -668.56219      1278.9165    
 196050000   260.49688     -413.49492     -326.25112     -413.44933      0              2684.9567      31.157         21.485012      33.295566      22288.335      3459.8771      3023.429       1571.564       1178.0751      1415.9785      181.65513    
 196052000   259.09791     -414.822       -328.04673     -414.77639      0              3473.9233      31.157         21.485012      33.392048      22352.921      1717.2066      3816.6914      4887.8721      1378.2991     -1476.2688     -43.900868    
 196054000   251.14617     -416.97694     -332.86481     -416.95179      0              2684.5347      31.157         21.485012      33.26307       22266.583      3331.659       2108.6273      2613.3177      1968.4069     -1036.6406      792.06459    
 196056000   261.39672     -417.09464     -329.54947     -417.05425      0              2912.1159      31.157         21.485012      33.259326      22264.076      1815.1105      1633.2842      5287.9532      1150.3093     -387.85079      906.54852    
 196058000   248.9682      -416.09489     -332.71219     -416.0514       0              2407.1139      31.157         21.485012      33.221468      22238.734      2278.3795      2032.6578      2910.3045     -301.03613      625.02847     -258.97455    
 196060000   252.74494     -415.98916     -331.34158     -415.94428      0              1586.8955      31.157         21.485012      33.32326       22306.874      1979.9426      1246.9949      1533.749      -716.77549      14.117476      908.22402    
 196062000   253.17178     -415.94011     -331.14958     -415.89479      0              3433.7914      31.157         21.485012      33.181406      22211.916      3371.4698      3816.6578      3113.2467     -88.960782      15.802643     -580.68471    
 196064000   253.23717     -415.5445      -330.73207     -415.49976      0              5147.0957      31.157         21.485012      33.289131      22284.028      4390.1015      4670.006       6381.1797      498.64645      731.26653     -387.72169    
 196066000   261.62414     -415.08765     -327.46631     -415.04231      0              2509.4362      31.157         21.485012      33.252274      22259.356      2844.9651      2563.7835      2119.5598     -8.8724955     -414.94268      1132.3       
 196068000   251.29685     -413.93629     -329.7737      -413.89357      0              3784.2483      31.157         21.485012      33.28515       22281.363      3968.7202      2944.2429      4439.7818      650.37172      132.7396      -578.48708    
 196070000   254.4048      -416.11047     -330.90699     -416.07989      0              1190.9753      31.157         21.485012      33.34971       22324.58       1678.3175      909.53725      985.07112     -608.0597       813.60066      766.28099    
 196072000   255.00046     -412.48145     -327.07847     -412.44633      0              1771.561       31.157         21.485012      33.516794      22436.428      1509.6231      2495.1545      1309.9055     -1103.5178     -576.18917      499.84847    
 196074000   263.20816     -413.57262     -325.42078     -413.53912      0              1235.6272      31.157         21.485012      33.442103      22386.429      947.79296      1604.6607      1154.428       308.59507      202.83561      1728.2517    
 196076000   257.44811     -419.80759     -333.58486     -419.76105      0              1797.1501      31.157         21.485012      33.483905      22414.411      1780.829       2306.0421      1304.5792      235.55705     -1729.5755      445.77946    
 196078000   251.29374     -414.66717     -330.50562     -414.63107      0              1989.515       31.157         21.485012      33.485296      22415.342      2799.9811      1628.1471      1540.4168     -150.84334      197.23488     -1120.429     
 196080000   261.10477     -416.60872     -329.16133     -416.58065      0              2875.7909      31.157         21.485012      33.3914        22352.488      4158.3369      1816.4113      2652.6246     -1887.8708     -98.061908      786.42476    
 196082000   255.04128     -415.22537     -329.80872     -415.17891      0              3416.3171      31.157         21.485012      33.436761      22382.852      2571.3055      5601.0608      2076.5849     -1181.9586      1331.8888     -1969.4384    
 196084000   259.41195     -413.45072     -326.57028     -413.40892      0              2478.0323      31.157         21.485012      33.43542       22381.955      1263.1804      2283.3868      3887.5297      303.61587      951.15865     -819.29611    
 196086000   261.53075     -416.86012     -329.27006     -416.8241       0              2754.1013      31.157         21.485012      33.548332      22457.539      3168.2772      3366.1335      1727.8933     -1303.6615     -219.96197     -1128.6051    
 196088000   254.16665     -417.48381     -332.36009     -417.44259      0              2938.2746      31.157         21.485012      33.334926      22314.684      3592.2403      3148.2402      2074.3432      443.67001     -2524.926      -777.03872    
 196090000   259.68492     -413.39284     -326.42097     -413.34669      0              4838.8228      31.157         21.485012      33.352059      22326.153      6175.5586      3927.8267      4413.0832      683.40563     -1153.6039     -1264.1688    
 196092000   255.41677     -416.43689     -330.89449     -416.3967       0              4323.1341      31.157         21.485012      33.326133      22308.797      3544.0141      3382.5929      6042.7952      1710.0394     -96.388265     -608.95762    
 196094000   259.22552     -416.37918     -329.56118     -416.33666      0              2604.3026      31.157         21.485012      33.244424      22254.101      2969.0261      3575.5843      1268.2974     -1086.3408     -818.47371     -456.28673    
 196096000   252.27218     -419.10798     -334.61874     -419.06277      0              2591.0761      31.157         21.485012      33.178936      22210.262      3714.7451      2742.377       1316.1061     -460.1919       600.86181     -446.87279    
 196098000   256.42838     -415.05598     -329.17477     -415.01631      0              3197.8391      31.157         21.485012      33.300072      22291.352      3807.2575      2005.2759      3780.9837      249.80939      1149.3472     -769.7603     
 196100000   255.42731     -414.65362     -329.10768     -414.60815      0              2311.5848      31.157         21.485012      33.292108      22286.021      1625.6608      2999.4163      2309.6774      1248.2641      955.99184      449.11012    
 196102000   252.22217     -415.30644     -330.83395     -415.26639      0              1996.8512      31.157         21.485012      33.415664      22368.73       2933.6468      1531.3344      1525.5723      100.24159     -61.96421       602.10899    
 196104000   253.09816     -417.94331     -333.17744     -417.89785      0              3235.4631      31.157         21.485012      33.482557      22413.509      4876.7041      2422.6154      2407.0697     -1714.7255     -1591.0702      755.54235    
 196106000   258.46214     -416.29357     -329.73123     -416.24708      0              615.80195      31.157         21.485012      33.481182      22412.588      499.07038      219.84452      1128.4909      847.68492      1996.1413     -373.93878    
 196108000   251.5887      -414.93534     -330.67501     -414.89512      0              2576.4238      31.157         21.485012      33.395984      22355.556      3537.1063      2028.887       2163.2781     -133.79827     -168.15518      539.92655    
 196110000   259.40594     -416.19131     -329.31288     -416.15173      0              980.49538      31.157         21.485012      33.468933      22404.389      1374.5238      591.73105      975.23133     -721.29442     -1089.8283      504.61313    
 196112000   256.65531     -415.63602     -329.67881     -415.60318      0              1719.3155      31.157         21.485012      33.371324      22339.049      1164.6083      2383.4324      1609.9057     -101.68119     -114.68602      1145.3607    
 196114000   252.77267     -415.51476     -330.85789     -415.47154      0              2811.6782      31.157         21.485012      33.496466      22422.82       3654.0947      4121.176       659.76401     -2479.0695      483.15936     -1110.8418    
 196116000   252.01598     -415.82429     -331.42085     -415.78292      0              4099.6562      31.157         21.485012      33.298738      22290.459      4423.3794      2739.6704      5135.9186      1490.8868     -495.63121      134.2262     
 196118000   254.77794     -415.94468     -330.61623     -415.91049      0              2769.6587      31.157         21.485012      33.18299       22212.976      549.88106      4006.8985      3752.1967      1154.243       1477.1012      179.33578    
 196120000   257.52784     -413.55458     -327.30515     -413.50949      0              4106.525       31.157         21.485012      32.913628      22032.663      6422.5568      3335.8125      2561.2058      20.760705      376.25782      293.55953    
 196122000   251.59391     -415.93081     -331.66873     -415.89072      0              2787.7439      31.157         21.485012      33.175819      22208.176      2006.3327      3692.3191      2664.5801     -1334.4471     -1118.2653     -1758.8918    
 196124000   255.00763     -418.21248     -332.8071      -418.16789      0              3370.2596      31.157         21.485012      33.293298      22286.817      3740.7061      2604.477       3765.5958      565.85367      1591.4229     -345.05923    
 196126000   244.07967     -418.03699     -336.29153     -417.99124      0              2503.4166      31.157         21.485012      33.228291      22243.301      2977.9596      2493.1591      2039.1311     -1310.6376      815.22041     -970.70109    
 196128000   245.71576     -416.49421     -334.2008      -416.44911      0              2892.3967      31.157         21.485012      33.23024       22244.606      3055.9316      3493.3829      2127.8756     -278.04518     -245.15956     -68.47106     
 196130000   255.36905     -415.92877     -330.40235     -415.89038      0              4972.023       31.157         21.485012      33.145184      22187.668      5698.7475      4629.4264      4587.8951      2102.5267      800.72611     -589.98517    
 196132000   264.30078     -414.24701     -325.72924     -414.20108      0              5751.7725      31.157         21.485012      33.189133      22217.089      3763.1844      7553.0987      5939.0345      718.70434      37.221022      883.04998    
 196134000   258.08706     -415.67762     -329.2409      -415.63918      0              2967.8432      31.157         21.485012      33.201882      22225.623      4773.228       1175.8174      2954.484       488.38681      1409.6906      728.86612    
 196136000   257.55867     -413.58971     -327.32996     -413.54987      0              3544.9415      31.157         21.485012      33.343707      22320.562      3849.2799      2057.2329      4728.3116     -229.91237     -52.974415      1074.5742    
 196138000   247.01201     -414.58911     -331.86156     -414.54383      0              2062.2292      31.157         21.485012      33.308071      22296.706      2190.2079      1892.4974      2103.9824      162.25285      636.1103      -211.34059    
 196140000   251.03227     -414.78695     -330.71297     -414.74254      0              3361.5541      31.157         21.485012      33.277874      22276.492      4700.104       1015.8192      4368.7392      1503.8966      359.09763     -983.20349    
 196142000   253.24188     -416.02392     -331.20991     -415.98035      0              3496.9336      31.157         21.485012      33.442527      22386.712      5308.278       1559.1817      3623.3411     -1230.2727     -895.11802     -77.363504    
 196144000   254.83774     -414.08837     -328.73988     -414.05545      0              2691.0418      31.157         21.485012      33.445672      22388.818      2360.8863      4915.5573      796.68167     -108.46758     -967.20092     -251.70302    
 196146000   245.19711     -414.22014     -332.10043     -414.18148      0              3366.5297      31.157         21.485012      33.355866      22328.701      3205.2997      2980.8987      3913.3906      61.685705     -576.83122      1117.5034    
 196148000   259.16699     -413.41608     -326.61767     -413.3784       0              3746.9394      31.157         21.485012      33.592572      22487.154      5186.5685      3193.0858      2861.1638      1103.8249     -1617.3513      203.68386    
 196150000   255.06405     -417.41742     -331.99315     -417.37096      0              2172.1954      31.157         21.485012      33.515131      22435.314      1913.6017      2256.012       2346.9727      892.74857      897.58199      672.1528     
 196152000   256.28833     -415.14568     -329.31137     -415.11177      0              3660.2538      31.157         21.485012      33.436753      22382.847      4245.9588      2909.7171      3825.0855      173.24751     -433.6109      -10.381974    
 196154000   256.39729     -415.31185     -329.44105     -415.27274      0              2779.5153      31.157         21.485012      33.444218      22387.844      3149.3501      2034.7739      3154.4219     -1183.1352     -250.4951       1407.5715    
 196156000   253.97829     -414.63214     -329.5715      -414.59935      0              2486.5417      31.157         21.485012      33.479557      22411.501      1989.2901      2052.1311      3418.2039      1724.0194      409.90394     -266.87437    
 196158000   258.32474     -413.68573     -327.1694      -413.63994      0              2910.794       31.157         21.485012      33.379475      22344.505      3474.0989      2878.6028      2379.6804     -555.2405       2466.7007     -102.71251    
 196160000   255.07311     -414.47179     -329.04448     -414.43019      0              2907.7381      31.157         21.485012      33.320425      22304.976      3928.0249      2392.1298      2403.0595     -647.40963      34.797165     -176.70062    
 196162000   257.36558     -414.47854     -328.28345     -414.43216      0              3352.1062      31.157         21.485012      33.284043      22280.622      3617.4433      2807.0837      3631.7916     -198.99235     -581.02927      221.35787    
WARNING: Wall time limit reached (../timer.cpp:193)
Loop time of 85805.8 on 4 procs for 8151000 steps with 2592 atoms

Performance: 4.104 ns/day, 5.848 hours/ns, 94.994 timesteps/s
1550.1% CPU use with 4 MPI tasks x no OpenMP threads

MPI task timing breakdown:
Section |  min time  |  avg time  |  max time  |%varavg| %total
---------------------------------------------------------------
Pair    | 22768      | 22949      | 23163      | 111.9 | 26.75
Bond    | 0.81847    | 0.84823    | 0.92683    |   4.9 |  0.00
Neigh   | 685.31     | 693.12     | 702.05     |  27.7 |  0.81
Comm    | 2625.5     | 2841       | 3023.9     | 319.8 |  3.31
Output  | 62.283     | 62.289     | 62.306     |   0.1 |  0.07
Modify  | 59229      | 59237      | 59243      |   2.7 | 69.04
Other   |            | 22.57      |            |       |  0.03

Nlocal:            648 ave         666 max         618 min
Histogram: 1 0 0 0 0 0 1 0 1 1
Nghost:        4197.75 ave        4226 max        4171 min
Histogram: 1 0 0 0 1 1 0 0 0 1
Neighs:              0 ave           0 max           0 min
Histogram: 4 0 0 0 0 0 0 0 0 0
FullNghs:       161731 ave      168926 max      150082 min
Histogram: 1 0 0 0 0 0 0 2 0 1

Total # of neighbors = 646924
Ave neighs/atom = 249.58488
Ave special neighs/atom = 0
Neighbor list builds = 163020
Dangerous builds not checked
unfix 3
unfix 1
unfix 2


# Finalize simulation
write_restart	restart.lmp.${pid}
write_restart	restart.lmp.0
System init for write_restart ...
Generated 0 of 1 mixed pair_coeff terms from geometric mixing rule
write_data	data.final.${pid} nocoeff
write_data	data.final.0 nocoeff
System init for write_data ...
Generated 0 of 1 mixed pair_coeff terms from geometric mixing rule
Total wall time: 23:50:19
