LAMMPS data file via write_data, version 29 Sep 2021, timestep = 2000000

864 atoms
2 atom types

0.08072595593847609 18.12684704406297 xlo xhi
0.09508450876674424 21.35103049122698 ylo yhi
0.09848547533358953 22.114710524663998 zlo zhi

Masses

1 1.008
2 15.999

Atoms # full

431 0 2 0.5897 2.7533591564343336 1.7843338369936461 1.6665893894213757 2 1 0
432 0 2 0.5897 3.8121108320821784 2.8005076482174487 1.9995472528811427 2 1 0
430 0 1 -1.1794 3.090184645058646 2.65167786679051 1.3510552939433644 1 1 0
284 0 2 0.5897 1.5711411467351135 3.619281434200284 1.4236719672009026 1 1 2
283 0 1 -1.1794 0.692628802291439 4.0848848167688345 1.3085674547237043 1 1 2
285 0 2 0.5897 0.3749084390047656 3.8547576194132023 2.196702902137223 1 1 2
402 0 2 0.5897 2.3724350372480245 0.39244459021004496 4.393245451236464 0 0 1
329 0 2 0.5897 0.8853505767469817 2.382050056446225 4.009230690689122 1 1 0
328 0 1 -1.1794 0.3556365547124891 3.2206317557427115 3.914050540566593 1 1 0
525 0 2 0.5897 7.150848752346897 1.649544525553712 2.1720738621775713 -1 1 0
523 0 1 -1.1794 6.499921154690599 0.858160054534969 2.192946630695685 -1 1 0
769 0 1 -1.1794 8.18493804660102 3.1286489383037472 2.1577883240181017 0 1 -1
770 0 2 0.5897 8.245335523670377 3.1230329031514654 3.105039948013547 0 1 -1
818 0 2 0.5897 5.296444998878394 1.57603138157076 3.1649012479693046 0 2 0
771 0 2 0.5897 7.753239480682619 3.9705865374237965 1.9357497954866674 0 1 -1
817 0 1 -1.1794 4.744304965907392 2.246166470151105 3.5686519437120956 0 2 0
809 0 2 0.5897 5.113388493684981 3.7637231902112607 4.156144641848298 1 1 0
427 0 1 -1.1794 4.863563414046451 0.10047431734706017 0.22845110394434823 0 1 0
524 0 2 0.5897 6.9084961995943255 0.1646177263391267 2.675247566334549 -1 1 0
428 0 2 0.5897 5.503987735367692 0.35216566252946774 0.9082581742104552 0 1 0
819 0 2 0.5897 4.596982026832798 2.0153638498287156 4.499889684755714 0 2 0
731 0 2 0.5897 11.566839944180153 2.7662284275639997 1.343724305857318 -1 0 1
636 0 2 0.5897 9.64207190730637 1.767087464781176 1.0681909176957707 1 0 1
730 0 1 -1.1794 12.171859311063827 3.5504260146232385 1.1874552314589446 -1 0 1
635 0 2 0.5897 10.43282518431758 1.1864551190588328 2.242380806078512 1 0 1
634 0 1 -1.1794 10.492311264485062 1.4134254365484913 1.29559279301238 1 0 1
385 0 1 -1.1794 10.166108056183672 0.8661756747280771 3.854111278586048 1 0 0
433 0 1 -1.1794 13.021692400761934 0.35292480378247393 4.409182659132811 1 1 0
114 0 2 0.5897 13.078852377040237 3.086337515751872 2.7690850593494774 -1 0 1
113 0 2 0.5897 13.364546908124101 1.8840642691327483 3.794566926505463 -1 0 1
387 0 2 0.5897 11.05063226719477 0.6582593639068904 4.2121671699522825 1 0 0
112 0 1 -1.1794 13.341036038745035 2.8845102095482247 3.6907853317109165 -1 0 1
732 0 2 0.5897 12.053425378161176 3.771503826021027 0.26955562970022356 -1 0 1
185 0 2 0.5897 13.986692550225943 2.942895424977875 0.805217244452231 -1 1 0
657 0 2 0.5897 15.269466866491562 0.9834753738641353 2.252618667271658 0 0 1
186 0 2 0.5897 15.477352911468813 2.642466395066075 0.44585834057469287 -1 1 0
192 0 2 0.5897 15.245703560956699 3.8010076880580623 3.9810761881102454 0 1 0
655 0 1 -1.1794 15.796830838101657 0.18972608734221513 2.3155485013874744 0 0 1
191 0 2 0.5897 16.780945172071522 3.821065961730671 4.293757389625335 0 1 0
184 0 1 -1.1794 14.725447426030886 2.302255840467543 0.9610103356425207 -1 1 0
581 0 2 0.5897 1.6820240196842666 5.790703319349841 0.3685739500628275 0 -1 1
582 0 2 0.5897 2.9689972545809313 6.305627891747809 1.0726862001835862 0 -1 1
580 0 1 -1.1794 2.368537731513322 6.45665781262856 0.2763042805811327 0 -1 1
755 0 2 0.5897 2.755677588689477 6.701029544087888 3.24249633535449 0 1 0
754 0 1 -1.1794 3.470224325618807 6.556399053789103 2.623472120261294 0 0 0
756 0 2 0.5897 3.9983760671185062 5.879395978102845 3.035299898435872 0 1 0
393 0 2 0.5897 0.7326698755966684 7.27063203332795 4.171770255789225 1 0 0
391 0 1 -1.1794 1.5499570067178958 7.751080432338172 4.3094821056749035 1 0 0
792 0 2 0.5897 2.070167364469385 8.530014936975988 0.2840915095136741 1 1 1
810 0 2 0.5897 6.076655972473753 5.0773115961848 3.961769067037172 1 1 0
307 0 1 -1.1794 7.712983516566436 6.2848060587715775 3.4913632653630873 0 1 1
808 0 1 -1.1794 5.1889191213011285 4.751372837338739 4.225064257367324 1 1 0
309 0 2 0.5897 7.933362221775535 6.38583304809952 2.5337558717303743 0 1 1
308 0 2 0.5897 8.51272409258368 5.810832800866114 3.7930145987183765 0 1 1
38 0 2 0.5897 7.210655911092264 7.422120802882843 0.8435131877995902 1 1 0
143 0 2 0.5897 8.077640197970503 7.753492343898384 4.350532672231884 1 -1 0
37 0 1 -1.1794 7.011714513990063 8.337161099899227 1.07759371403252 1 1 0
533 0 2 0.5897 4.624812984704018 8.147109348630702 3.1776272271258117 1 0 2
166 0 1 -1.1794 8.144165309258364 5.969763017257394 0.6892446485560316 1 0 1
168 0 2 0.5897 9.033479191758046 6.191705800515541 0.35156263263050597 1 0 1
16 0 1 -1.1794 12.316857186381041 6.05313884188196 2.2504726461392455 0 -1 0
18 0 2 0.5897 11.844437505784624 6.796798117108226 2.640267757088404 0 -1 0
17 0 2 0.5897 11.810437407075673 5.308360878843611 2.5044363903991305 0 -1 0
136 0 1 -1.1794 11.071218309291234 8.206906042249258 2.945808440114777 0 1 1
137 0 2 0.5897 10.683177857339818 8.198494151820977 3.8539169454938778 0 1 1
647 0 2 0.5897 11.471688935163973 6.314992778452443 0.6993494254265948 0 1 0
681 0 2 0.5897 14.033112463801867 6.829245369449893 4.305754385606341 -1 -1 0
705 0 2 0.5897 17.071375829996455 7.198965341593683 3.0691824600346633 -2 0 1
177 0 2 0.5897 16.276615353946493 7.489940325566808 1.3171998259528388 1 1 1
175 0 1 -1.1794 17.10131620205081 8.012730110919145 1.55249396992135 1 1 1
703 0 1 -1.1794 16.84704230490973 6.85970298168148 3.9745746246395752 -2 0 1
704 0 2 0.5897 16.544466672454266 5.956290145183084 4.130540117431938 -2 0 1
294 0 2 0.5897 14.06313000500706 6.301757720664808 1.2674649916822518 -1 -1 0
292 0 1 -1.1794 14.688338127496694 6.808895789085319 0.8233296574333928 -1 -1 0
392 0 2 0.5897 1.3940805423237022 8.651700108269374 3.8747732633722416 1 0 0
791 0 2 0.5897 3.2221132357509608 9.587060378454481 0.3681966677064869 1 1 1
173 0 2 0.5897 2.0331509015227853 10.083906031882098 2.210499477044799 0 0 0
172 0 1 -1.1794 1.4533486243332858 10.264010201276024 2.9574452423164095 0 0 0
174 0 2 0.5897 1.9777865613738348 10.765885328477133 3.6022650156666094 0 0 0
790 0 1 -1.1794 2.2065942194123696 9.49320568333482 0.4217045410592156 1 1 1
54 0 2 0.5897 0.6263524101792278 12.25085722745276 2.558399401327402 -1 0 1
768 0 2 0.5897 1.386503515973895 12.44704058918624 0.311704719184535 2 1 0
325 0 1 -1.1794 4.786158821762837 9.884529469491914 0.10767041248181641 -1 0 1
326 0 2 0.5897 5.562648786976831 9.412331766501238 0.3931725697486836 -1 0 1
39 0 2 0.5897 7.811353972679744 8.823845514137787 1.173495731301633 1 1 0
625 0 1 -1.1794 6.738486069909991 11.553793230384922 2.2331028171592315 -1 0 0
627 0 2 0.5897 7.658240914577676 11.574938236846487 2.5527229183795064 -1 0 0
626 0 2 0.5897 6.463506099209116 10.633386442949998 2.508525870900787 -1 0 0
532 0 1 -1.1794 5.091271254415781 8.983334921411807 3.4751087990240532 1 0 2
534 0 2 0.5897 4.854122889673672 9.031737459297409 4.407413091860227 1 0 2
138 0 2 0.5897 10.388549275596803 8.812038974767754 2.3625260469360287 0 1 1
466 0 1 -1.1794 9.719109978707431 9.882347502876696 1.4519100269945355 1 0 0
436 0 1 -1.1794 9.480074242604626 12.205057590576603 2.314284842935987 0 0 0
468 0 2 0.5897 9.885188361834901 10.798139771158247 1.6530417144891862 1 0 0
811 0 1 -1.1794 13.141216966027688 10.079339838865529 2.5161578822996544 0 0 0
812 0 2 0.5897 12.617577856991506 9.43075019966986 2.9664216549283755 0 0 0
813 0 2 0.5897 13.073447985038216 10.957896429386286 2.99537848477275 0 0 0
467 0 2 0.5897 10.131981940385023 9.644418772213616 0.6137408990497597 1 0 0
438 0 2 0.5897 10.252586057174163 12.506972725759605 2.8096212235721567 0 0 0
437 0 2 0.5897 9.34355278016229 12.848224834410821 1.5718641125731583 0 0 0
859 0 1 -1.1794 12.14068769688313 12.749121496851492 3.6707744179387594 0 0 1
176 0 2 0.5897 16.740952072002642 8.851294620071311 1.9030935592707707 0 1 1
119 0 2 0.5897 15.898176739316018 9.922411951990659 3.881455596885352 -1 0 -1
745 0 1 -1.1794 15.664476699586109 12.702222524536095 1.6622540211467793 -1 1 0
118 0 1 -1.1794 15.75774243099281 10.113238239103154 2.9613562847822417 -1 0 -1
120 0 2 0.5897 14.8262418703854 10.079051420806353 2.7532133405572634 -1 0 -1
747 0 2 0.5897 15.944954935752845 11.909044741603621 2.1102054483500146 -1 1 0
189 0 2 0.5897 14.17187311053209 12.349834908677218 0.5129143078598577 0 1 1
52 0 1 -1.1794 0.5168758215190116 12.897962617069371 1.878026011904657 -1 0 1
541 0 1 -1.1794 2.984656210793201 15.551927611267521 2.495559681705492 1 0 -1
542 0 2 0.5897 2.435165737631824 15.114825857186215 3.2365497189996177 1 0 -1
543 0 2 0.5897 3.789902329018053 15.074055542451262 2.502977491678656 1 0 -1
57 0 2 0.5897 1.756772140133963 15.321717132601046 0.9734096228694649 0 0 1
55 0 1 -1.1794 1.2831676577023032 15.537127520863114 0.1566117930569868 0 0 1
569 0 2 0.5897 6.02729730140017 13.584200193116617 1.8425312764103245 2 0 0
568 0 1 -1.1794 5.787700032258023 14.510394471357397 1.9436295521072993 2 0 0
570 0 2 0.5897 5.769647801608288 14.930178532208018 1.0356350931906277 2 0 0
24 0 2 0.5897 6.6319439684239 15.100540061400894 3.5483950202999743 1 0 -1
23 0 2 0.5897 8.095898451692504 14.931044100645627 4.044349098911242 1 0 -1
22 0 1 -1.1794 7.3716508253427175 15.57943183043063 4.039499521844778 1 0 -1
644 0 2 0.5897 8.654063499712546 16.83165913521824 1.4703182715046657 0 -1 1
645 0 2 0.5897 9.280680046918654 15.73741473747088 0.5387279358792174 0 -1 1
851 0 2 0.5897 12.06533764099151 16.11095045678379 2.9449781982787075 0 -1 1
860 0 2 0.5897 12.603362894471706 13.585862748984933 3.3186809221798272 0 0 1
850 0 1 -1.1794 12.561610619984771 15.445343021461683 3.446296585847039 0 -1 1
852 0 2 0.5897 12.749492913333707 15.890965107296498 4.3131317099881645 0 -1 1
643 0 1 -1.1794 9.490037303756964 16.550859526387086 1.0940380781201728 0 -1 1
695 0 2 0.5897 10.672295943214687 13.940975630906646 4.432642385036247 -1 0 0
235 0 1 -1.1794 9.351905985689152 13.755248217855316 0.11442420957493482 -1 0 0
746 0 2 0.5897 15.525367848613117 13.453650470133514 2.2628698182704183 -1 1 0
53 0 2 0.5897 17.623198406905708 12.953426844567272 1.8103127418648453 -2 0 1
563 0 2 0.5897 15.503464892764162 15.769479032961307 1.8606558645753366 0 -1 1
562 0 1 -1.1794 15.221764784255354 15.20045346048208 2.616833836342693 -1 -1 1
564 0 2 0.5897 14.277191978256235 15.28550941879374 2.6310266155402013 -1 -1 1
42 0 2 0.5897 16.449511168721102 15.439978657007927 3.94912371927177 -2 0 0
463 0 1 -1.1794 16.179879821988223 16.676408122706384 0.43161556577399185 0 0 1
41 0 2 0.5897 17.958092751450106 15.258216872190951 4.425313963589495 -1 0 0
526 0 1 -1.1794 2.4415240010239505 21.33945399317416 1.8811588665460917 1 0 0
596 0 2 0.5897 2.9720207083653505 17.402540334826988 1.9903076786267269 0 0 0
527 0 2 0.5897 1.6564429455980052 21.10590734527345 1.3817856894647624 1 0 0
429 0 2 0.5897 3.984004889105865 21.219701581180445 0.6279048882319354 0 0 0
528 0 2 0.5897 2.7833650120735873 20.485443894358248 2.269654461903378 1 0 0
595 0 1 -1.1794 2.8670826641635387 18.311867260371876 1.6777465670260343 0 0 0
597 0 2 0.5897 1.9320895511757095 18.382592450007294 1.5052871872799791 0 0 0
517 0 1 -1.1794 3.5983914799820615 19.74533008725694 4.09299671548436 1 -1 1
519 0 2 0.5897 3.858064073368258 18.882631992045546 3.760876878418293 1 -1 1
539 0 2 0.5897 4.5892495432796965 18.425818450235717 0.5408392849443524 0 0 0
546 0 2 0.5897 7.208072046407247 17.213041889105646 3.054714477406307 0 0 0
97 0 1 -1.1794 8.053763205574837 20.322848131572513 3.4582713598351162 1 0 -1
99 0 2 0.5897 7.996089627325316 19.451536001285724 2.9981774650576467 1 0 -1
544 0 1 -1.1794 7.271601902366083 18.000932669357745 2.4700164368349733 0 0 0
545 0 2 0.5897 6.44578674474428 18.065281116417054 1.9772491436061388 0 0 1
538 0 1 -1.1794 5.556560288198851 18.51804416626176 0.5367878344420474 0 0 0
540 0 2 0.5897 5.670812643694249 19.479171092030086 0.2355427881677802 0 0 0
98 0 2 0.5897 8.92525196608583 20.608482211338277 3.6963088362947847 1 0 -1
11 0 2 0.5897 10.833129131165586 17.47601388837223 2.019578502489347 0 0 1
10 0 1 -1.1794 11.673866201761761 17.846220466509052 2.2880636894806266 0 0 1
12 0 2 0.5897 11.56892543341333 18.43193565683479 3.0326032365190345 0 0 1
575 0 2 0.5897 12.881987368695933 18.159481930606987 0.9161974946572268 -1 0 1
434 0 2 0.5897 13.61329762687073 20.80477209155302 4.159743933592162 1 0 0
50 0 2 0.5897 16.813478951187744 21.231867922627906 3.792799233187014 0 -1 1
566 0 2 0.5897 17.48961487239422 17.600844001401896 1.0582550983180599 -1 -1 1
465 0 2 0.5897 15.402152472605039 17.277865630871304 0.33450972005684787 0 0 1
805 0 1 -1.1794 17.805083065480407 20.721409730451192 0.5947096730935336 0 0 0
565 0 1 -1.1794 18.052726520739057 18.15792864888045 1.6177972946577948 -1 -1 1
574 0 1 -1.1794 13.796821937304598 18.306827541965603 0.5818604804210875 -1 0 0
567 0 2 0.5897 18.044418260370488 19.069401135622122 1.1732236788305528 -1 -1 1
806 0 2 0.5897 17.13680871732548 21.174062154543385 1.1274802568121893 0 0 0
86 0 2 0.5897 13.986880954932332 18.74591647601728 2.654369846883401 -1 0 0
87 0 2 0.5897 15.020734861187409 18.86493607998021 3.828937736878802 -1 0 0
85 0 1 -1.1794 14.220393661180594 19.299009823625013 3.3967051349581006 -1 0 0
656 0 2 0.5897 15.119657040067429 20.760438338916558 2.318788436726195 0 -1 1
209 0 2 0.5897 17.16001293106674 18.195658915489645 3.1080244431628925 1 1 0
208 0 1 -1.1794 16.6434466406313 18.226214947846465 3.9716786384298244 1 1 0
51 0 2 0.5897 17.333131368985196 19.95562318606349 4.445016143998017 0 -1 1
210 0 2 0.5897 16.834097367018956 17.385241367179944 4.423232602158889 1 1 0
576 0 2 0.5897 13.827091041934054 19.160416473861034 0.11386789533494976 -1 0 0
400 0 1 -1.1794 1.596897696357776 0.9051700267205115 4.726720808128361 0 0 1
821 0 2 0.5897 1.4864146955622297 0.6696068138038522 6.548512060858655 0 1 0
820 0 1 -1.1794 1.1357082006605155 0.6387200753278749 7.490324484648281 0 1 0
401 0 2 0.5897 0.80061805694601 0.34277884650496193 4.5065172666730495 0 0 1
822 0 2 0.5897 0.46358562090837163 1.3801957749269975 7.499351964375486 0 1 0
311 0 2 0.5897 4.039587246713303 2.538012868593699 6.637551404495237 1 0 -1
330 0 2 0.5897 0.7616815119057851 3.754828385901595 4.541103405072797 1 1 0
310 0 1 -1.1794 4.551239292572753 1.8711815299141252 6.110129098050682 1 0 -1
244 0 1 -1.1794 3.5285094962210497 4.241970022866491 7.480491795607896 0 0 1
246 0 2 0.5897 3.429567681850328 4.25274923580377 8.423578306925304 -1 0 1
150 0 2 0.5897 2.2628686622715493 0.300187118781352 8.826040314913659 0 0 0
502 0 1 -1.1794 8.420994938863148 2.8827545750081174 4.960015770621662 1 0 0
356 0 2 0.5897 7.748251467712283 1.7559723201755677 7.489620322541484 -1 -1 -1
355 0 1 -1.1794 6.952616984037221 2.27916226767409 7.473616500289718 -1 -1 -1
312 0 2 0.5897 5.4066664667994 1.927123213087808 6.561207782461177 1 0 -1
357 0 2 0.5897 7.0544409395919265 2.963080014722635 8.1047607867661 -1 -1 -1
504 0 2 0.5897 7.828690069657872 2.848634840606259 5.7043671214621865 1 0 0
503 0 2 0.5897 8.868861696985695 3.7302200924548714 5.088875177391909 1 0 0
514 0 1 -1.1794 9.040905085496911 0.41089745995353183 7.2613683861106475 0 1 -1
386 0 2 0.5897 9.79618946583053 1.4297252259098912 4.561385367392734 1 0 0
276 0 2 0.5897 12.599988970373069 3.8631830339834075 5.088173079580357 0 0 0
69 0 2 0.5897 11.66700244836622 3.2519963675036045 6.659904497822377 1 1 -1
67 0 1 -1.1794 11.292403245299024 2.4110663146580373 7.097253480670407 0 1 -1
68 0 2 0.5897 11.895201383526368 1.6654038920682956 6.918156629843445 0 1 -1
594 0 2 0.5897 10.745759717418158 2.482447462928751 8.585725080313058 0 0 0
516 0 2 0.5897 9.918769714182133 0.6936012999604954 7.057366589198292 0 1 -1
435 0 2 0.5897 13.243194275258775 0.5487224467439624 5.293606397837892 1 1 0
190 0 1 -1.1794 15.950278599156654 4.243876165072105 4.512928074889146 0 0 0
260 0 2 0.5897 17.96570185014767 3.7633681827768655 6.919189557307797 -1 -1 0
224 0 2 0.5897 13.772073414515527 4.259095354519839 8.26214234883639 0 0 0
259 0 1 -1.1794 17.618492212119882 3.120985648629709 7.558781906330107 -1 -1 0
474 0 2 0.5897 15.03768642785905 3.541955400899941 5.952178343545824 -1 0 1
472 0 1 -1.1794 14.796223053450447 3.111170393100514 6.822387111170428 -1 0 1
473 0 2 0.5897 14.959977419651947 2.1814118531654185 6.72146622261859 -1 0 1
261 0 2 0.5897 16.655283511644512 3.068510584610435 7.42827183867082 -1 -1 0
160 0 1 -1.1794 15.600858424749308 0.4203890097282823 6.454318049607241 -1 0 0
633 0 2 0.5897 2.1600374088430123 4.594035495639511 6.525391595204199 1 0 0
631 0 1 -1.1794 1.4440345105947543 4.981015332391134 5.967649324387051 1 0 0
632 0 2 0.5897 1.193231895435042 5.805225335988922 6.422773550204964 1 0 0
153 0 2 0.5897 2.569731281416913 7.769862991114602 5.989257009537616 1 0 -1
151 0 1 -1.1794 3.270396599664245 7.94499098999833 6.710380241022385 1 -1 -1
152 0 2 0.5897 4.089469896868248 7.413333351578763 6.544323786482938 1 -1 -1
740 0 2 0.5897 2.9120521072646253 6.972027419363039 8.666781524730197 0 1 1
245 0 2 0.5897 4.273169214828094 4.893338398237568 7.347038047223649 0 0 1
142 0 1 -1.1794 8.448453509227818 8.331219475320978 5.030613326208035 1 -1 0
270 0 2 0.5897 5.2876484350818345 5.626658068686716 5.76144520999169 0 0 1
269 0 2 0.5897 6.115150382864271 6.152814110532442 6.980997043063338 -1 0 1
268 0 1 -1.1794 5.216933581420979 6.101497540994475 6.566181287114827 0 0 1
388 0 1 -1.1794 8.0214221756579 6.184156601698597 7.082549286017916 0 1 1
390 0 2 0.5897 8.067279424937265 7.091971916152012 7.498931830581006 0 1 1
389 0 2 0.5897 8.499754961864012 5.662805589207384 7.691256953076156 0 1 1
764 0 2 0.5897 9.015392103941602 6.016287750498612 5.830423402986208 0 1 1
274 0 1 -1.1794 12.097235646242568 4.5026233507563935 5.671462764390433 0 0 0
763 0 1 -1.1794 9.470326405971301 5.546214705171261 5.09398160441746 0 1 1
765 0 2 0.5897 10.324781867597487 5.2890546079640695 5.473117348282155 0 1 1
459 0 2 0.5897 11.698848756665424 7.310999960336376 8.16571335519625 0 0 0
275 0 2 0.5897 12.476737779966982 4.8545757235927685 6.476598027137021 0 0 0
680 0 2 0.5897 12.795179132455067 7.232395297295138 5.156304723654848 -1 0 0
223 0 1 -1.1794 13.244150510675167 5.033348767940837 8.220825054896073 0 0 0
757 0 1 -1.1794 11.104049581823547 8.396360505665479 6.251145079460023 1 0 0
759 0 2 0.5897 10.133775954180964 8.45924423789897 6.109338158599864 1 0 0
121 0 1 -1.1794 18.03954869504341 6.595494428092088 8.279522559914502 -1 0 1
123 0 2 0.5897 18.07743011305271 7.539797168315217 8.101329610955258 -1 0 1
679 0 1 -1.1794 13.771472611723981 7.180704111144714 5.156924526237427 -1 -1 0
659 0 2 0.5897 15.305070939503869 7.315557174023476 7.004929329631356 0 0 0
660 0 2 0.5897 16.446908602304024 6.670498314785499 7.9426037409516805 0 0 0
658 0 1 -1.1794 15.476676826255797 6.868906716334986 7.842459623820538 0 0 0
225 0 2 0.5897 13.918811135624743 5.721658271828588 8.185920718758037 0 0 0
383 0 2 0.5897 16.87028175657183 8.19853230251684 5.180230971199362 -2 0 1
559 0 1 -1.1794 2.699969155919048 11.731820401531207 4.947334228232827 1 0 0
560 0 2 0.5897 3.6444241442592484 11.884852894014031 5.150824837652717 1 0 0
80 0 2 0.5897 2.805609957966019 9.560342199440615 7.09970096381084 0 -1 -1
79 0 1 -1.1794 2.512239455202658 10.446302790726376 7.3456079266401275 0 -1 -1
81 0 2 0.5897 2.890453586528845 10.514667779480586 8.24882246344901 0 -1 -1
446 0 2 0.5897 0.7897872545377793 9.863962101705413 7.81540582112795 0 0 0
561 0 2 0.5897 2.378605848285913 11.173446351515775 5.7364307120365865 1 0 0
144 0 2 0.5897 8.144483263997042 9.257641305221341 4.833420547313217 1 -1 0
498 0 2 0.5897 5.844704135567568 11.698373519648467 4.680840260629684 -1 1 0
496 0 1 -1.1794 5.517664358747986 12.040216848737144 5.520918994271773 -1 1 0
497 0 2 0.5897 5.717319851181398 11.450371407193952 6.242730125213828 -1 1 0
781 0 1 -1.1794 6.9445277174529485 10.87217483310573 7.8243461379292105 0 0 0
782 0 2 0.5897 7.655005117057956 11.470024334611644 7.5087556064921985 0 0 0
203 0 2 0.5897 7.835002712425399 9.17680855374124 8.618569617962393 1 0 1
783 0 2 0.5897 6.507066295695642 11.265913918424415 8.620200817988543 0 0 0
369 0 2 0.5897 11.826097753149883 11.775545220622345 6.799176748207428 0 -1 0
758 0 2 0.5897 11.290313443677025 9.10101121947202 6.923713862598549 1 0 0
82 0 1 -1.1794 11.763441375379559 10.50899752497629 7.942506967108998 0 -1 0
83 0 2 0.5897 12.622638480520205 10.677900950308553 8.302741348324739 0 -1 0
84 0 2 0.5897 11.087738436895187 10.70848014973091 8.622252767441656 1 -1 0
240 0 2 0.5897 13.429007171837764 10.065675483139987 6.136922792914739 0 1 1
367 0 1 -1.1794 12.203104147688682 12.565747701090382 6.373552967645353 0 -1 0
368 0 2 0.5897 13.128918517698377 12.465904785685437 6.465702366569928 0 -1 0
861 0 2 0.5897 12.246421211325398 12.691576195784286 4.655336882983719 0 0 1
445 0 1 -1.1794 17.984601025861014 9.448098073507841 8.010054286539983 -1 0 0
382 0 1 -1.1794 16.66273640167349 9.074580306996106 5.53197642235475 -2 0 1
447 0 2 0.5897 17.398127989365744 10.182205576235338 8.079909732434423 -1 0 0
239 0 2 0.5897 14.991347806515963 9.85575304293631 5.958804487043217 0 1 1
238 0 1 -1.1794 14.291736230769644 10.469522479523874 6.238514356832687 0 1 1
384 0 2 0.5897 17.198312982017967 9.201948550597693 6.31155116773947 -2 0 1
598 0 1 -1.1794 16.501972729642084 11.578985081809444 7.8322718851926885 0 1 1
599 0 2 0.5897 15.970743396466874 11.946359116408223 7.171269132738863 0 1 1
600 0 2 0.5897 16.86567731078367 12.381688466033495 8.303220814092237 0 1 1
729 0 2 0.5897 14.921770532137556 11.097435801351644 8.865444023764889 0 1 0
76 0 1 -1.1794 1.5662935669237428 14.469091237955345 4.595671195610921 1 0 1
77 0 2 0.5897 1.8360149531782317 15.05527592840561 5.318849831898735 1 0 1
78 0 2 0.5897 1.8053260797920943 13.59029288629841 4.894608099714261 1 0 1
415 0 1 -1.1794 1.8571566924599392 17.0801214468555 5.690205367478808 1 0 0
713 0 2 0.5897 3.019796396710306 16.20710506622627 7.104295541324126 1 0 0
712 0 1 -1.1794 3.5964183908468947 15.665094640551501 7.592696683029516 1 0 0
714 0 2 0.5897 4.478339168627607 15.622859202913588 7.133711110036531 1 0 0
291 0 2 0.5897 5.9286257453355695 14.104053234649781 6.125315257631356 0 2 0
404 0 2 0.5897 7.8842303531112545 13.601131098475765 7.353094332150893 0 -1 0
403 0 1 -1.1794 8.721202048614549 13.133002889218526 7.411021962649014 0 -1 0
290 0 2 0.5897 6.595041060282062 15.373021326926848 5.808693193205333 0 1 0
289 0 1 -1.1794 6.3924209142525905 14.796823138953442 6.581282167468279 0 1 0
694 0 1 -1.1794 9.938523702003547 14.37313960034539 4.983485876415028 -1 0 0
405 0 2 0.5897 9.330988227782356 13.674431580614542 6.901920275172877 0 -1 0
696 0 2 0.5897 10.00124154221483 15.3017729146911 4.927487160148211 -1 0 0
117 0 2 0.5897 10.194761147944728 16.361439272556268 6.722342559450361 1 -1 0
47 0 2 0.5897 11.823286128260271 14.233466711228818 7.3274352584331295 0 1 0
46 0 1 -1.1794 11.533721692368756 15.127905189070383 7.619640681609398 0 1 0
48 0 2 0.5897 12.162208298997093 15.254012907534745 8.41906052573589 0 1 0
198 0 2 0.5897 12.429132448180784 16.325002947760012 6.496988782289872 0 0 0
196 0 1 -1.1794 12.910681742203982 16.936175243809167 5.919655325848336 0 0 0
115 0 1 -1.1794 9.526491249467867 16.84359169585744 6.184609231148839 1 -1 0
40 0 1 -1.1794 17.069409330568174 15.576898762746241 4.7221711688801875 -1 0 0
476 0 2 0.5897 17.658491154935355 15.786672436178067 6.667874291234022 -1 -1 1
477 0 2 0.5897 17.90547654767802 14.963954581956461 7.895621310827933 -1 -1 1
475 0 1 -1.1794 18.0521521018025 15.838188118013349 7.549126140086477 -1 -1 1
288 0 2 0.5897 15.684613329840147 13.941643931755467 5.5236923083581235 0 0 1
286 0 1 -1.1794 15.211474523869049 13.43008832471936 6.168626306621236 0 0 1
287 0 2 0.5897 14.975040412556625 14.146292532976052 6.816063473795509 0 0 1
34 0 1 -1.1794 14.97841146002422 15.733140861583713 7.767301190594449 1 1 0
36 0 2 0.5897 15.886058359598522 15.990783314516877 7.915411264327545 1 1 0
197 0 2 0.5897 13.787698751533235 17.00430716833384 6.247247484705872 1 0 0
35 0 2 0.5897 14.529727578425277 15.680676743178312 8.646957442780142 1 1 0
180 0 2 0.5897 4.421726811735578 21.288339850577415 6.588262558669605 0 -1 1
416 0 2 0.5897 2.5074977148350652 17.768766543183403 5.408321998318391 1 0 0
417 0 2 0.5897 1.170184970817355 17.563376120961642 6.091127433389332 1 0 0
218 0 2 0.5897 0.44106703263859104 20.111416778446902 6.971252865610982 -1 -1 0
518 0 2 0.5897 4.092878554477998 19.908793518713836 4.913387100659919 1 -1 1
501 0 2 0.5897 2.6981263734716543 18.226516334942794 8.669429157400854 2 1 0
179 0 2 0.5897 4.034151743486971 20.061025351924144 7.3733215739949385 0 -1 1
499 0 1 -1.1794 3.5412042929883483 18.759856923974944 8.5165685171452 2 1 0
178 0 1 -1.1794 4.515056420360898 20.30359032822981 6.586033296310883 0 -1 1
500 0 2 0.5897 4.281918284828287 18.168861129954166 8.719123936171817 2 1 0
515 0 2 0.5897 8.645178617762092 21.276722135654616 6.515488201525291 0 0 -1
698 0 2 0.5897 7.428483577673033 19.97130451053549 5.145595779568317 0 -1 1
697 0 1 -1.1794 7.262930127881158 19.93155625213 6.124587822994025 0 -1 1
699 0 2 0.5897 6.309312496858742 20.073746948545768 6.250457556954024 0 -1 1
352 0 1 -1.1794 7.824676661770447 18.09409475139828 8.029147753374932 -1 0 0
353 0 2 0.5897 7.565943775301647 18.814759528750514 7.434370841798645 -1 0 0
354 0 2 0.5897 8.544007187795515 18.473553290773374 8.588486091768473 -1 0 0
116 0 2 0.5897 8.942445015006196 17.322812998566874 6.749438007111119 1 -1 0
408 0 2 0.5897 10.303772697868931 18.358657521576873 5.228625111924244 1 0 1
406 0 1 -1.1794 10.916079128225606 19.098177813858044 4.999637183468906 1 0 1
407 0 2 0.5897 11.774918886559687 18.65863586469932 4.9069401443065015 1 0 1
110 0 2 0.5897 11.639025160477358 20.25219200460593 6.611757752311904 0 -1 0
109 0 1 -1.1794 12.111536571606239 20.987742400540633 7.146987725919246 0 -1 0
111 0 2 0.5897 12.15665925360679 20.611890482982545 8.025168034985782 0 -1 0
219 0 2 0.5897 18.01604162480879 18.848281499110975 7.789929374315997 -2 -1 0
217 0 1 -1.1794 17.998468562368362 19.2400008216146 6.8792692419865284 -2 -1 0
858 0 2 0.5897 15.266851584270293 18.27453160582305 7.7104181618863095 -1 0 0
49 0 1 -1.1794 17.293480624007742 20.88993091861645 4.542038777717043 0 -1 1
161 0 2 0.5897 16.21910013192321 21.30864696125245 5.818709937958777 -1 -1 0
162 0 2 0.5897 14.976111131742988 20.986861639104205 6.7448068124011185 -1 -1 0
857 0 2 0.5897 16.175343341740703 18.877565092219974 6.682309095007914 -1 0 0
856 0 1 -1.1794 15.238184049307277 18.638931718828523 6.810858104683359 -1 0 0
837 0 2 0.5897 0.4195101368892565 2.560623962870484 10.73959069196356 0 1 -1
835 0 1 -1.1794 0.6997310147558201 3.188999427402505 10.133888914319831 0 1 -1
14 0 2 0.5897 1.3798388230910692 0.8628785500500186 12.84722206404511 0 1 0
264 0 2 0.5897 2.962666303255593 3.3093120961571016 10.45661420882197 1 1 0
262 0 1 -1.1794 3.729063099503975 3.857086593520159 10.32511428580226 1 1 0
836 0 2 0.5897 0.2295325286411415 3.0659127114256495 9.279690981777307 0 1 -1
13 0 1 -1.1794 0.5315621633549792 1.3318231588532579 12.597567271058342 1 1 0
414 0 2 0.5897 4.636931335623701 0.7993753767305479 10.189616224710697 2 0 1
337 0 1 -1.1794 8.264515593548007 2.9100637451093685 10.957122811990324 1 1 0
339 0 2 0.5897 8.069922453548402 2.032318253175318 10.623293207420007 1 1 0
338 0 2 0.5897 8.407605006259173 2.7739717472662244 11.88975245965441 1 1 0
413 0 2 0.5897 5.480984063385878 1.1578581080988388 11.509552141848195 2 0 1
848 0 2 0.5897 6.803635711977262 3.9114264730662995 9.983228925371753 0 -1 -1
849 0 2 0.5897 5.368794484615824 3.990281163355028 9.525024659932368 0 0 -1
412 0 1 -1.1794 5.5218434868733155 0.7465262892652489 10.637203463339288 2 0 1
509 0 2 0.5897 6.247402177312217 3.6091779839935683 13.257288832206566 0 1 1
824 0 2 0.5897 8.326431229696356 0.12476310296339375 9.054443379663654 1 2 0
823 0 1 -1.1794 8.043645255517806 0.13523458259406818 9.995327428513646 1 2 0
814 0 1 -1.1794 5.601619139109531 1.5364948267506566 13.167002001482244 0 -1 0
107 0 2 0.5897 9.339430019322478 1.1375308764600072 12.943130160973112 -1 1 -1
592 0 1 -1.1794 10.664799449740517 2.53736956713383 9.564331191625104 0 0 0
593 0 2 0.5897 9.926021348066634 3.086622909355981 9.875149877754183 0 0 0
605 0 2 0.5897 11.413278352813434 3.9480040128818628 10.66118051273013 -1 0 0
21 0 2 0.5897 10.940927784954537 1.204086226949209 10.83677591654499 0 0 -1
19 0 1 -1.1794 10.553975089097317 0.5559395183390807 11.398214853195816 0 0 -1
20 0 2 0.5897 9.739432885650157 0.3979663514206938 10.869055413873554 0 0 -1
306 0 2 0.5897 17.377112302345672 0.3140991673064882 9.064817444401461 0 0 1
359 0 2 0.5897 15.103105748644092 1.1520963372412796 12.066118730366371 -1 1 0
360 0 2 0.5897 15.182690637083612 2.7128067945307817 11.470972813054734 -1 1 0
358 0 1 -1.1794 15.648585517896331 1.8444357749145437 11.648736929289225 -1 1 0
15 0 2 0.5897 17.96835127099779 0.9978871135700192 13.291145978952496 0 1 0
305 0 2 0.5897 16.51688711934563 0.7134954619819961 10.3481903164795 0 0 1
263 0 2 0.5897 3.7778649948126195 4.366177543866387 11.206813755853574 1 0 0
741 0 2 0.5897 2.4346974536654047 6.333243981540695 9.972232807719767 0 1 1
739 0 1 -1.1794 2.8277150682485432 7.130402746124313 9.596952477026655 0 1 1
853 0 1 -1.1794 0.6858377964538659 5.805655970491734 10.747167679156751 0 0 0
855 0 2 0.5897 0.621995098184373 4.849664394839753 10.728208851639335 0 0 0
854 0 2 0.5897 0.4191330397467716 6.23137025722991 11.611974195572195 0 0 0
571 0 1 -1.1794 3.6740059829130436 5.667282252356287 12.88568275828521 0 0 0
573 0 2 0.5897 3.6577392247617206 6.642014165259261 12.940179197579537 0 0 0