LAMMPS (29 Sep 2021 - Update 2)
  using 1 OpenMP thread(s) per MPI task
plugin load libdeepmd_lmp.so
Loading plugin: deepmd pair style v2.0 by Han Wang
Loading plugin: compute deeptensor/atom v2.0 by Han Wang
Loading plugin: fix dplr v2.0 by Han Wang
echo both

include		in.partitions
variable        pid world 0
include		in.temp
variable        temperature equal 275
variable        tempDamp equal 0.100
include		in.pressure
variable        pressure equal 0.986923
variable        pressureDamp equal 1.0 # This is 1 ps
include		in.seed
variable        seed world 745823

units           metal
atom_style	full
include		in.box
read_data       water.data
Reading data file ...
  orthogonal box = (0.0000000 0.0000000 0.0000000) to (18.207573 21.446115 22.213196)
  1 by 1 by 1 MPI processor grid
  reading atoms ...
  864 atoms
  reading velocities ...
  864 velocities
Finding 1-2 1-3 1-4 neighbors ...
  special bond factors lj:    0        0        0       
  special bond factors coul:  0        0        0       
     0 = max # of 1-2 neighbors
     0 = max # of 1-3 neighbors
     0 = max # of 1-4 neighbors
     1 = max # of special neighbors
  special bonds CPU = 0.000 seconds
  read_data CPU = 9.238 seconds
include 	in.setup
variable	out_freq equal 500
variable	out_freq2 equal 500

timestep        0.0005

neigh_modify    delay 7 every 1

include         in.deepmd
# This is deepMD model

# create groups ###
#group ox type 2
#group hy type 1

mass 2 15.999
mass 1 1.008

pair_style      deepmd ../graph.pb
pair_coeff      * *

bond_style      none
angle_style     none
dihedral_style  none
improper_style  none
neigh_modify exclude none


neighbor        2.0 bin
neigh_modify    every 10 delay 0 check no

thermo          ${out_freq}
thermo          500
thermo_style 	custom step temp pe etotal epair emol press lx ly lz xy xz yz vol pxx pyy pzz pxy pxz pyz cella cellb cellc cellalpha cellbeta cellgamma


restart 	${out_freq} restart.lmp.${pid} restart2.lmp.${pid}
restart 	500 restart.lmp.${pid} restart2.lmp.${pid}
restart 	500 restart.lmp.0 restart2.lmp.${pid}
restart 	500 restart.lmp.0 restart2.lmp.0


include         in.dump
dump            myDump all atom ${out_freq2} dump.water.${pid}
dump            myDump all atom 500 dump.water.${pid}
dump            myDump all atom 500 dump.water.0
dump            myDump2 all dcd ${out_freq2} dump.dcd
dump            myDump2 all dcd 500 dump.dcd
dump_modify     myDump append yes
dump_modify     myDump2 append yes


timer           timeout 23:50:00 every 1000
New timer settings: style=normal  mode=nosync  timeout=23:50:00

fix             2 all nph iso ${pressure} ${pressure} ${pressureDamp}
fix             2 all nph iso 0.986923 ${pressure} ${pressureDamp}
fix             2 all nph iso 0.986923 0.986923 ${pressureDamp}
fix             2 all nph iso 0.986923 0.986923 1
fix             3 all temp/csvr ${temperature} ${temperature} ${tempDamp} ${seed}
fix             3 all temp/csvr 275 ${temperature} ${tempDamp} ${seed}
fix             3 all temp/csvr 275 275 ${tempDamp} ${seed}
fix             3 all temp/csvr 275 275 0.1 ${seed}
fix             3 all temp/csvr 275 275 0.1 745823
velocity 	all create ${temperature} ${seed} dist gaussian
velocity 	all create 275 ${seed} dist gaussian
velocity 	all create 275 745823 dist gaussian

run             2000000

CITE-CITE-CITE-CITE-CITE-CITE-CITE-CITE-CITE-CITE-CITE-CITE-CITE

Your simulation uses code contributions which should be cited:

- USER-DEEPMD package:

@article{Wang_ComputPhysCommun_2018_v228_p178,
  author = {Wang, Han and Zhang, Linfeng and Han, Jiequn and E, Weinan},
  doi = {10.1016/j.cpc.2018.03.016},
  url = {https://doi.org/10.1016/j.cpc.2018.03.016},
  year = 2018,
  month = {jul},
  publisher = {Elsevier {BV}},
  volume = 228,
  journal = {Comput. Phys. Commun.},
  title = {{DeePMD-kit: A deep learning package for many-body potential energy representation and molecular dynamics}},
  pages = {178--184}
}

CITE-CITE-CITE-CITE-CITE-CITE-CITE-CITE-CITE-CITE-CITE-CITE-CITE

Neighbor list info ...
  update every 10 steps, delay 0 steps, check no
  max neighbors/atom: 2000, page size: 100000
  master list distance cutoff = 8
  ghost atom cutoff = 8
  binsize = 4, bins = 5 6 6
  1 neighbor lists, perpetual/occasional/extra = 1 0 0
  (1) pair deepmd, perpetual
      attributes: full, newton on
      pair build: full/bin
      stencil: full/bin/3d
      bin: standard
Per MPI rank memory allocation (min/avg/max) = 7.215 | 7.215 | 7.215 Mbytes
Step Temp PotEng TotEng E_pair E_mol Press Lx Ly Lz Xy Xz Yz Volume Pxx Pyy Pzz Pxy Pxz Pyz Cella Cellb Cellc CellAlpha CellBeta CellGamma 
       0          275    -134.9383   -104.26164    -134.9383            0     24768.68    18.207573    21.446115    22.213196            0            0            0    8673.8466    24631.936    25561.239    24112.866    1099.1449   -263.29267   -873.96734    18.207573    21.446115    22.213196           90           90           90 
     500    264.77457   -126.40555   -96.869543   -126.40555            0   -3633.6723    18.390136    21.661151    22.435923            0            0            0    8937.3838   -1319.8838    -5631.613     -3949.52     880.2903   -1396.1903   -519.25639    18.390136    21.661151    22.435923           90           90           90 
    1000    276.94857   -124.13248   -93.238454   -124.13248            0    1574.5218     18.46635     21.75092    22.528903            0            0            0    9048.9609   -649.42216     2569.692    2803.2955   -628.00913    956.18588   -1236.0556     18.46635     21.75092    22.528903           90           90           90 
    1500    268.46797   -125.15726   -95.209255   -125.15726            0    2360.9773    18.424667    21.701823     22.47805            0            0            0    8987.8228    1839.1263    2227.0199    3016.7856    756.34749     283.9018     1932.458    18.424667    21.701823     22.47805           90           90           90 
    2000    266.58801   -122.65381   -92.915512   -122.65381            0   -2582.1995    18.421016    21.697522    22.473596            0            0            0    8982.4803   -2594.6394    -416.7121   -4735.2471    1830.3867   -186.20036    1300.0314    18.421016    21.697522    22.473596           90           90           90 
    2500    279.64311   -122.37285    -91.17824   -122.37285            0    2208.7345    18.371883     21.63965    22.413653            0            0            0    8910.7969    1613.1487    3326.6927     1686.362   -11.851831   -7.1787162    802.06646    18.371883     21.63965    22.413653           90           90           90 
    3000    281.97818   -123.05776   -91.602671   -123.05776            0   -2805.1367    18.395654     21.66765    22.442654            0            0            0    8945.4308   -3711.5684   -2109.8989   -2593.9429    342.10509    3012.2267   -896.33021    18.395654     21.66765    22.442654           90           90           90 
    3500    273.50736   -123.71542   -93.205267   -123.71542            0    371.20421    18.226264     21.46813    22.235999            0            0            0    8700.5862   -1308.4587    2089.9023    332.16903   -1405.6901   -269.76613    2264.5779    18.226264     21.46813    22.235999           90           90           90 
    4000    270.61073   -123.06321   -92.876176   -123.06321            0    916.33749    18.230309    21.472896    22.240934            0            0            0    8706.3813    736.62859    1329.9464    682.43752    14.521944    799.02816    530.24549    18.230309    21.472896    22.240934           90           90           90 
    4500    276.75522   -123.08744   -92.214976   -123.08744            0    855.17818    18.255828    21.502953    22.272067            0            0            0    8742.9941    1046.7617   -428.32109     1947.094    673.42777    2563.4806   -445.38761    18.255828    21.502953    22.272067           90           90           90 
    5000    278.48961   -123.53332   -92.467382   -123.53332            0   -30.399703    18.211356    21.450571    22.217811            0            0            0     8679.254   -1918.6643    3236.2007   -1408.7356    41.884155    901.83725    1616.5439    18.211356    21.450571    22.217811           90           90           90 
    5500    271.78041   -124.50409   -94.186579   -124.50409            0   -1225.1461    18.210252    21.449271    22.216464            0            0            0    8677.6759   -3401.0774    1020.2063   -1294.5673    1239.0245    66.808745    -73.30636    18.210252    21.449271    22.216464           90           90           90 
    6000    282.13597    -124.8867   -93.414006    -124.8867            0   -948.29668    18.142885    21.369921    22.134277            0            0            0    8581.7254   -413.74031   -2488.5687    57.418935    131.74486   -916.51896    785.33435    18.142885    21.369921    22.134277           90           90           90 
    6500    266.30198   -123.75772   -94.051334   -123.75772            0    69.432684    18.120759    21.343859    22.107283            0            0            0    8550.3658   -242.72042   -779.31594    1230.3344     2704.685    2343.1732    317.60191    18.120759    21.343859    22.107283           90           90           90 
    7000    275.27765    -123.3537   -92.646067    -123.3537            0   -2190.6112    18.091338    21.309205    22.071389            0            0            0     8508.786   -1726.2777    322.14452   -5167.7005    1019.0817   -233.66241    27.159777    18.091338    21.309205    22.071389           90           90           90 
    7500    273.02465   -122.68082   -92.224505   -122.68082            0   -440.59912    18.158301    21.388079    22.153085            0            0            0    8603.6199   -2444.3945    1117.3695     5.227641    1519.6021   -3047.4913   -2971.9481    18.158301    21.388079    22.153085           90           90           90 
    8000     268.5224   -122.08626   -92.132185   -122.08626            0   -425.23964    18.142538    21.369512    22.133853            0            0            0    8581.2322    -2630.277   -1398.9828    2753.5408   -84.201905    1024.7135    2739.3576    18.142538    21.369512    22.133853           90           90           90 
    8500    278.10706   -124.14289   -93.119625   -124.14289            0    -116.5419    17.941449    21.132657    21.888526            0            0            0    8299.0454   -672.37102    2013.0743    -1690.329   -1463.6839   -1013.0333    915.08638    17.941449    21.132657    21.888526           90           90           90 
    9000     282.8107    -122.6361   -91.088145    -122.6361            0     3237.861    18.023585    21.229402    21.988731            0            0            0    8413.5469    3906.4475    3157.0914    2650.0443    663.46198    1909.9877   -631.56985    18.023585    21.229402    21.988731           90           90           90 
    9500    271.91831   -121.40342   -91.070527   -121.40342            0   -1915.1953    18.158422    21.388221    22.153231            0            0            0    8603.7908   -2675.7109    112.91254   -3182.7876   -1256.1733   -998.29924    1016.1456    18.158422    21.388221    22.153231           90           90           90 
   10000    283.87838   -122.08005   -90.412988   -122.08005            0    1145.6139    18.094137    21.312502    22.074804            0            0            0    8512.7362   -1244.9831    629.98974    4051.8351    1297.2768   -333.16976    843.77783    18.094137    21.312502    22.074804           90           90           90 
   10500    292.02046   -121.31299   -88.737671   -121.31299            0   -1026.1368    17.963523    21.158656    21.915455            0            0            0    8329.7136   -962.49678   -1998.3698   -117.54397   -502.54454    1493.1228    152.29041    17.963523    21.158656    21.915455           90           90           90 
   11000    280.27262   -121.74119   -90.476359   -121.74119            0    -786.0399    17.967807    21.163702    21.920682            0            0            0    8335.6752   -1515.3655    928.86979    -1771.624   -277.01748    40.258827    723.44619    17.967807    21.163702    21.920682           90           90           90 
   11500    277.07169   -121.65435   -90.746587   -121.65435            0   -2402.0818    18.009758    21.213115    21.971862            0            0            0    8394.1975   -2560.4725    -5768.538    1122.7651    1860.8347   -105.53514    -406.6094    18.009758    21.213115    21.971862           90           90           90 
   12000    283.29661   -121.73757   -90.135407   -121.73757            0    3641.6524    17.997515    21.198695    21.956926            0            0            0    8377.0906    1037.4379    6397.3422     3490.177   -874.14696    1754.3548    854.89838    17.997515    21.198695    21.956926           90           90           90 
   12500    277.69995   -120.14146   -89.163614   -120.14146            0   -2529.1688    18.117234    21.339708    22.102983            0            0            0    8545.3774   -1711.5579    -1109.697   -4766.2514    89.215621    1763.4951   -1390.7743    18.117234    21.339708    22.102983           90           90           90 
   13000    287.22468   -120.20738   -88.167031   -120.20738            0     4695.835    18.032714    21.240154    21.999868            0            0            0    8426.3372    3966.6739    2034.4967    8086.3344   -544.39832    829.92452    823.87833    18.032714    21.240154    21.999868           90           90           90 
   13500    265.62034   -119.95905   -90.328702   -119.95905            0   -1810.8034    18.027755    21.234313    21.993819            0            0            0    8419.3879   -465.05983   -1895.4033   -3071.9472    1767.9812    1159.0652    638.26128    18.027755    21.234313    21.993819           90           90           90 
   14000    278.71341   -121.54347   -90.452567   -121.54347            0     173.3036    18.042856      21.2521    22.012242            0            0            0    8440.5631   -2.1922342   -105.20373    627.30678    382.19265   -43.686333    178.85503    18.042856      21.2521    22.012242           90           90           90 
   14500    276.47478   -122.82286   -91.981687   -122.82286            0    147.71541    18.045528    21.255247    22.015501            0            0            0    8444.3133    2482.4341    2903.8621   -4943.1499   -332.48375   -2249.7005    1979.0091    18.045528    21.255247    22.015501           90           90           90 
   15000    269.56515   -121.26656   -91.196164   -121.26656            0   -925.87522    18.121254    21.344443    22.107888            0            0            0    8551.0675   -889.16891    618.88016   -2507.3369    826.60007    884.02742   -1626.2274    18.121254    21.344443    22.107888           90           90           90 
   15500    280.45838   -121.59892   -90.313362   -121.59892            0   -3510.5581    18.128022    21.352414    22.116144            0            0            0    8560.6511   -4441.8797    -2774.381   -3315.4136   -866.27215    324.75587   -1190.0822    18.128022    21.352414    22.116144           90           90           90 
   16000    282.33789   -123.21861   -91.723389   -123.21861            0    2247.3208    18.045207    21.254869    22.015109            0            0            0    8443.8622    1694.2374    3717.6736    1330.0515    3292.2883    76.414806    1873.5606    18.045207    21.254869    22.015109           90           90           90 
   16500    271.79557   -121.78105   -91.461849   -121.78105            0   -784.05107    18.158674    21.388519    22.153539            0            0            0    8604.1498    -1258.086   -1504.8764    410.80917   -1413.3984   -636.32905    29.939059    18.158674    21.388519    22.153539           90           90           90 
   17000    276.42397    -122.0067   -91.171188    -122.0067            0    -310.5264    18.154583      21.3837    22.148548            0            0            0    8598.3353   -1694.3264   -334.57535    1097.3225     15.05488    2478.2152   -2173.5195    18.154583      21.3837    22.148548           90           90           90 
   17500    275.10302   -121.76782   -91.079667   -121.76782            0    -1595.663    18.059593    21.271814     22.03266            0            0            0    8464.0734   -680.03137   -4199.6688    92.711091    2826.1766   -925.97587    2571.1488    18.059593    21.271814     22.03266           90           90           90 
   18000    267.31915   -123.20374   -93.383888   -123.20374            0    893.62796    18.061024    21.273499    22.034406            0            0            0    8466.0853    1319.0414   -158.07202    1519.9146    -64.01931   -1099.2013   -2367.7915    18.061024    21.273499    22.034406           90           90           90 
   18500    275.46974   -122.87426   -92.145192   -122.87426            0   -2382.8078    18.100108    21.319536    22.082089            0            0            0    8521.1668    500.24498   -6317.7226   -1330.9457   -327.81077    180.22264   -1767.0465    18.100108    21.319536    22.082089           90           90           90 
   19000    261.30028   -120.91352   -91.765083   -120.91352            0   -54.757171    18.144728    21.372092    22.136525            0            0            0    8584.3403   -1876.2827   -583.86225    2295.8734    1009.3242   -1919.2975    109.44145    18.144728    21.372092    22.136525           90           90           90 
   19500     274.1799    -121.7436   -91.158422    -121.7436            0    2449.3794    18.058431    21.270446    22.031244            0            0            0    8462.4407    4935.9635   -1168.1154    3580.2902    2127.1332   -1007.4439   -383.84885    18.058431    21.270446    22.031244           90           90           90 
   20000    265.95093   -122.80133   -93.134104   -122.80133            0   -538.88641    18.129007    21.353575    22.117346            0            0            0    8562.0475   -713.76929    2533.5905   -3436.4804    -1937.376    1138.8824    2395.4606    18.129007    21.353575    22.117346           90           90           90 
   20500    268.51366   -122.91319   -92.960089   -122.91319            0    436.16771    18.053188    21.264269    22.024846            0            0            0    8455.0707   -672.43514   -363.06352    2344.0018     156.0202   -843.71109   -94.890797    18.053188    21.264269    22.024846           90           90           90 
   21000    279.51431   -125.09702    -93.91678   -125.09702            0   -2355.4283    18.068198     21.28195    22.043159            0            0            0    8476.1788   -3782.2421   -1494.2072   -1789.8356    842.48359   -1397.2801   -8.2737671    18.068198     21.28195    22.043159           90           90           90 
   21500    262.22923     -123.388   -94.135931     -123.388            0    331.49055    18.063309     21.27619    22.037194            0            0            0    8469.2988    -3404.165    3473.8081    924.82858   -894.59411   -542.91121    1873.1443    18.063309     21.27619    22.037194           90           90           90 
   22000    273.73423   -123.32798   -92.792517   -123.32798            0    5299.3694    17.897181    21.080514    21.834518            0            0            0    8237.7653     2300.123    8899.4099    4698.5754   -171.94895   -935.17627    1343.9999    17.897181    21.080514    21.834518           90           90           90 
   22500    265.99692   -121.55335   -91.880993   -121.55335            0   -1054.3228     18.03205    21.239372    21.999058            0            0            0    8425.4063   -3900.1294    536.96864     200.1925    1061.1976    575.53465    157.54955     18.03205    21.239372    21.999058           90           90           90 
   23000      270.537   -122.30369   -92.124878   -122.30369            0   -493.12547    18.159714    21.389743    22.154808            0            0            0    8605.6282   -186.33004   -639.92165    -653.1247   -512.35213    2801.4077   -1300.8565    18.159714    21.389743    22.154808           90           90           90 
   23500    274.16892   -121.36714   -90.783188   -121.36714            0    1451.6417    18.047528    21.257603    22.017941            0            0            0    8447.1213   -438.87608    4207.9478    585.85324   -544.39627    938.07053   -513.25497    18.047528    21.257603    22.017941           90           90           90 
   24000    277.19037   -120.21138   -89.290378   -120.21138            0   -480.70006    17.921581    21.109254    21.864286            0            0            0    8271.5044   -465.48235   -2233.8411    1257.2233   -394.53459    219.70692   -214.35778    17.921581    21.109254    21.864286           90           90           90 
   24500    280.46675   -122.26713   -90.980641   -122.26713            0   -813.89302    18.014187    21.218332    21.977266            0            0            0    8400.3921    1370.6223   -2120.9538   -1691.3475   -1406.2898   -2137.4211    2245.4199    18.014187    21.218332    21.977266           90           90           90 
   25000    282.76052   -121.00951   -89.467146   -121.00951            0      1121.59    18.009165    21.212417    21.971139            0            0            0    8393.3689    965.23947   -650.28722    3049.8176   -855.97752    1697.8297    1711.6409    18.009165    21.212417    21.971139           90           90           90 
   25500    269.27357   -119.39084   -89.352965   -119.39084            0   -3412.0347    18.099334    21.318623    22.081144            0            0            0    8520.0729   -5268.1101   -3066.0914   -1901.9026    -1937.504   -12.780048    1490.2606    18.099334    21.318623    22.081144           90           90           90 
   26000    272.11022    -119.8001   -89.445801    -119.8001            0    -208.4079    17.956017    21.149816    21.906299            0            0            0    8319.2774    4147.8671   -4783.1284    10.037628   -1538.4849    3018.9895   -2619.3417    17.956017    21.149816    21.906299           90           90           90 
   26500    274.70197   -121.65898   -91.015564   -121.65898            0    2818.9362    18.010625    21.214137     21.97292            0            0            0    8395.4103    1844.7157   -333.13126    6945.2241    505.66953   -3099.7038   -527.56575    18.010625    21.214137     21.97292           90           90           90 
   27000    275.41312   -119.37829   -88.655537   -119.37829            0   -2018.0241    18.043915    21.253347    22.013534            0            0            0    8442.0491    400.32428   -5439.0729   -1015.3236   -491.33431    -744.2689   -1158.4426    18.043915    21.253347    22.013534           90           90           90 
   27500    277.91624   -120.98012   -89.978149   -120.98012            0    3447.6939    17.903938    21.088473    21.842762            0            0            0    8247.0999    5884.6299    2989.6634    1468.7884   -2085.4511   -510.44187     2939.066    17.903938    21.088473    21.842762           90           90           90 
   28000    279.28278   -122.65477   -91.500356   -122.65477            0    -2415.664    17.803948    20.970698    21.720774            0            0            0    8109.6947   -829.98833   -5643.5772   -773.42635   -1934.6902    617.73441    1682.0151    17.803948    20.970698    21.720774           90           90           90 
   28500    272.07215   -120.44575   -90.095692   -120.44575            0    1193.6256    17.937488    21.127991    21.883694            0            0            0      8293.55    2699.2978   -1122.5749    2004.1539    500.54809   -664.95434   -167.14054    17.937488    21.127991    21.883694           90           90           90 
   29000    270.78844   -120.15727   -89.950415   -120.15727            0   -163.85523    18.006875     21.20972    21.968345            0            0            0    8390.1677    638.99555   -949.54429   -181.01695   -1404.6112   -1340.2542   -938.89479    18.006875     21.20972    21.968345           90           90           90 
   29500    287.43335   -121.22705   -89.163428   -121.22705            0    555.58326    17.950431    21.143236    21.899484            0            0            0    8311.5155     2222.072    -1207.988    652.66576   -470.04084   -1196.7089    671.28415    17.950431    21.143236    21.899484           90           90           90 
   30000    294.15712   -120.21319   -87.399523   -120.21319            0   -586.76317    18.070285    21.284408    22.045705            0            0            0     8479.116    674.81143   -95.840146   -2339.2608    243.24119   -753.40341   -6.4378446    18.070285    21.284408    22.045705           90           90           90 
   30500    268.16195   -118.84515   -88.931279   -118.84515            0   -865.02385    18.000203    21.201861    21.960205            0            0            0    8380.8445   -1318.1571   -3233.8429    1956.9285   -383.84459   -583.01745    643.92259    18.000203    21.201861    21.960205           90           90           90 
   31000    286.97553   -121.23042   -89.217867   -121.23042            0     797.0017    18.070652     21.28484    22.046153            0            0            0    8479.6322     3048.204    1040.6323   -1697.8312    1733.4468    2271.4995   -1175.4459    18.070652     21.28484    22.046153           90           90           90 
   31500    265.28816    -119.7464   -90.153104    -119.7464            0   -494.01617    18.154723    21.383865    22.148719            0            0            0    8598.5349    1440.5212    532.57545   -3455.1451    1274.4344   -631.96046    224.45173    18.154723    21.383865    22.148719           90           90           90 
   32000    270.71613   -121.46281   -91.264014   -121.46281            0    -545.7741    18.083801    21.300328    22.062195            0            0            0    8498.1567    2121.1827   -1065.9042   -2692.6008    -382.1371    585.41452    1242.1448    18.083801    21.300328    22.062195           90           90           90 
   32500    280.64456   -121.98646   -90.680137   -121.98646            0    197.12351    18.074723    21.289635    22.051119            0            0            0    8485.3644   -2354.0029    3731.8716   -786.49825   -1891.6476   -580.02741   -80.920894    18.074723    21.289635    22.051119           90           90           90 
   33000    273.43548   -121.20941   -90.707268   -121.20941            0   -1129.0463    18.044481    21.254014    22.014224            0            0            0    8442.8432   -2952.9302    3535.8054   -3970.0141   -1333.8948   -3.2270462    2676.3722    18.044481    21.254014    22.014224           90           90           90 
   33500    267.26814   -120.79991   -90.985746   -120.79991            0   -56.938583    18.042606    21.251806    22.011937            0            0            0    8440.2122    -321.3908    -151.4602    302.03526    547.32225    1933.8691   -2075.7739    18.042606    21.251806    22.011937           90           90           90 
   34000    271.08746    -123.4879   -93.247681    -123.4879            0    1357.5686    18.096802    21.315641    22.078055            0            0            0    8516.4977    2693.5498    3095.8777   -1716.7217    549.26703    1064.0502    3212.0824    18.096802    21.315641    22.078055           90           90           90 
   34500    277.73022    -124.4356   -93.454378    -124.4356            0    2089.1091    18.063926    21.276917    22.037946            0            0            0    8470.1668    2745.1967    2998.7162    523.41434   -55.333361   -482.25735    2062.2943    18.063926    21.276917    22.037946           90           90           90 
   35000    269.37237   -124.17517   -94.126279   -124.17517            0    2666.3573    18.038461    21.246924     22.00688            0            0            0    8434.3967    3247.1157    1640.4754     3111.481    195.67987    1173.3111   -2437.4699    18.038461    21.246924     22.00688           90           90           90 
   35500    271.04146   -123.19434   -92.959254   -123.19434            0   -245.09923    18.103189    21.323164    22.085848            0            0            0    8525.5185    1544.4571    690.04489   -2969.7997   -1094.7576     1052.285    684.95645    18.103189    21.323164    22.085848           90           90           90 
   36000     271.8537   -123.23353   -92.907845   -123.23353            0   -2598.6248    18.108605    21.329544    22.092456            0            0            0    8533.1736   -4250.9208   -2439.3782   -1105.5753    763.69513   -1062.9838   -19.563251    18.108605    21.329544    22.092456           90           90           90 
   36500    287.15404   -124.46698   -92.434511   -124.46698            0    3617.7691    18.073903     21.28867    22.050119            0            0            0    8484.2101    3242.7163    919.79377    6690.7973    599.15376    484.50093   -441.79998    18.073903     21.28867    22.050119           90           90           90 
   37000    268.02956   -122.06354   -92.164444   -122.06354            0    2716.0573    18.117503    21.340024     22.10331            0            0            0    8545.7575    3037.3388    4025.3287    1085.5046     916.0121    1987.7265   -307.04575    18.117503    21.340024     22.10331           90           90           90 
   37500    279.50118   -123.72609   -92.547315   -123.72609            0   -997.24457    18.054845    21.266222    22.026869            0            0            0    8457.4003   -2027.4376    179.01021   -1143.3063    721.74091   -32.249717   -290.46789    18.054845    21.266222    22.026869           90           90           90 
   38000    284.20983   -123.07009   -91.366057   -123.07009            0     1841.712    18.016195    21.220698    21.979716            0            0            0    8403.2022     3459.669    950.69647    1114.7705    1155.2355   -1270.9834    446.64616    18.016195    21.220698    21.979716           90           90           90 
   38500    283.95983   -123.37862   -91.702475   -123.37862            0    1809.2324    18.111369    21.332799    22.095827            0            0            0    8537.0805    369.95587    1920.4917    3137.2495     1256.929    1003.6465   -945.98619    18.111369    21.332799    22.095827           90           90           90 
   39000    273.09671   -121.90859   -91.444241   -121.90859            0    -2563.026    18.270387    21.520102    22.289829            0            0            0    8763.9286    -844.4307   -3680.9216   -3163.7256   -912.37815   -181.82521   -553.27069    18.270387    21.520102    22.289829           90           90           90 
   39500    272.55438   -121.98695   -91.583094   -121.98695            0    1619.8303    18.138006    21.364174    22.128324            0            0            0    8574.8032    1777.6341   -1136.8747    4218.7314    1835.1257    1242.8596    1025.2416    18.138006    21.364174    22.128324           90           90           90 
   40000    279.49306   -124.37357   -93.195695   -124.37357            0   -1262.1019    18.120118    21.343104    22.106501            0            0            0    8549.4587    937.15766   -2617.1652    -2106.298    1533.0869     276.6522   -586.17769    18.120118    21.343104    22.106501           90           90           90 
   40500    270.46321   -123.34038   -93.169802   -123.34038            0   -454.08826    18.154705    21.383844    22.148697            0            0            0    8598.5093    -2138.871    1773.7066   -997.10039   -2.2409548   -2050.4636   -2449.8813    18.154705    21.383844    22.148697           90           90           90 
   41000    268.09063   -121.80902   -91.903102   -121.80902            0   -533.00906    18.137738    21.363859    22.127998            0            0            0     8574.424   -816.72842    -2826.342    2044.0433    -1504.345   -411.38464    1026.5785    18.137738    21.363859    22.127998           90           90           90 
   41500    280.48605   -122.65983   -91.371185   -122.65983            0     615.0123    18.014014    21.218128    21.977054            0            0            0    8400.1496    1885.7315    71.291911   -111.98654   -562.38402    1387.1292   -2729.7034    18.014014    21.218128    21.977054           90           90           90 
   42000    268.03133   -121.40839   -91.509095   -121.40839            0    1672.4622    18.097899    21.316934    22.079394            0            0            0    8518.0475    2067.3376    2058.3066    891.74228   -1545.7588    2332.2213   -2219.8902    18.097899    21.316934    22.079394           90           90           90 
   42500    282.21946   -122.58566   -91.103653   -122.58566            0   -749.27875    18.204983    21.443065    22.210037            0            0            0    8670.1462    644.30851   -2112.0673    -780.0775   -899.50567   -588.95629    -430.4957    18.204983    21.443065    22.210037           90           90           90 
   43000    260.58162    -119.3234   -90.255123    -119.3234            0    751.97688    18.208974    21.447766    22.214906            0            0            0    8675.8496    2905.6043   -56.724733   -592.94893    273.77284   -2754.7638    374.12091    18.208974    21.447766    22.214906           90           90           90 
   43500    274.37423   -122.77272   -92.165864   -122.77272            0   -1113.3536    18.100322    21.319788     22.08235            0            0            0    8521.4691   -4781.6867    537.66138    903.96441   -43.919144   -160.65099   -2168.2151    18.100322    21.319788     22.08235           90           90           90 
   44000    284.57776   -124.25223   -92.507152   -124.25223            0   -2325.4491    18.086244    21.303206    22.065175            0            0            0    8501.6014   -1015.5514   -3291.9008    -2668.895   -2442.8451   -703.17355    208.87042    18.086244    21.303206    22.065175           90           90           90 
   44500    288.29635   -124.66619   -92.506301   -124.66619            0    2086.0986    18.023143    21.228881    21.988192            0            0            0    8412.9272      1364.84    1505.3052    3388.1507   -1591.0339    1657.3831   -413.84778    18.023143    21.228881    21.988192           90           90           90 
   45000    272.17526   -125.29197   -94.930406   -125.29197            0   -721.04393    18.175138    21.407911    22.173626            0            0            0    8627.5749   -324.10626   -2168.2662    329.24063    1614.3904   -652.93097   -2484.6386    18.175138    21.407911    22.173626           90           90           90 
   45500    265.60925   -123.85302   -94.223912   -123.85302            0    1889.5243    18.112786    21.334469    22.097556            0            0            0    8539.0851    1122.3876    4185.6321     360.5531   -3329.4358    599.66701    905.24589    18.112786    21.334469    22.097556           90           90           90 
   46000    264.22858   -122.87223   -93.397131   -122.87223            0    893.39476    18.053361    21.264474    22.025058            0            0            0     8455.315    1051.5493      715.349    913.28594   -629.36815   -1655.7891    132.54718    18.053361    21.264474    22.025058           90           90           90 
   46500    273.80452   -122.94698   -92.403677   -122.94698            0    1636.0738    18.132793    21.358034    22.121964            0            0            0    8567.4117    1035.0108    2087.4153    1785.7951   -1675.5565   -1713.7598   -442.36903    18.132793    21.358034    22.121964           90           90           90 
   47000    267.84453   -121.66395   -91.785495   -121.66395            0   -441.41041    18.195715    21.432148     22.19873            0            0            0    8656.9113   -698.20099   -360.30472   -265.72553   -567.56812    167.95483   -564.49299    18.195715    21.432148     22.19873           90           90           90 
   47500    285.40503   -122.57826   -90.740901   -122.57826            0   -2526.7959    18.136689    21.362623    22.126718            0            0            0    8572.9361   -1105.2109   -3185.2236   -3289.9531   -2138.1348   -780.62816    65.100044    18.136689    21.362623    22.126718           90           90           90 
   48000    282.82592   -121.74454   -90.194882   -121.74454            0     -812.338    18.197047    21.433717    22.200355            0            0            0    8658.8124    1070.9491   -2389.7276   -1118.2355   -570.15507    1680.6459    1587.7907    18.197047    21.433717    22.200355           90           90           90 
   48500    275.92205   -121.86782   -91.088304   -121.86782            0   -2050.7773    18.252011    21.498457     22.26741            0            0            0    8737.5108    2263.8989   -4146.6366   -4269.5942     331.7758    143.02199    305.08171    18.252011    21.498457     22.26741           90           90           90 
   49000    291.41074   -122.01911   -89.511803   -122.01911            0   -254.86131     18.24081    21.485264    22.253745            0            0            0    8721.4344   -4356.7876    1214.4828    2377.7209    359.10422    1120.1947   -720.12765     18.24081    21.485264    22.253745           90           90           90 
   49500    294.95928   -118.94842   -86.045268   -118.94842            0   -2085.9409    18.263116    21.511537    22.280958            0            0            0    8753.4689   -1465.5581   -4131.9487   -660.31584     155.5846   -58.996838   -767.56493    18.263116    21.511537    22.280958           90           90           90 
   50000    283.39946   -119.64047   -88.026832   -119.64047            0   -489.78595    18.346585    21.609853    22.382791            0            0            0    8874.0383   -145.94452   -1222.9958    -100.4175   -422.72689    2062.8306   -185.97545    18.346585    21.609853    22.382791           90           90           90 
   50500     272.5975   -121.13328   -90.724622   -121.13328            0   -770.49404    18.251734    21.498131    22.267072            0            0            0    8737.1126   -801.70714    434.75289   -1944.5279    3480.7422    2396.5727    1849.5633    18.251734    21.498131    22.267072           90           90           90 
   51000    277.44335   -121.55568   -90.606456   -121.55568            0    1152.9071    18.239607    21.483847    22.252277            0            0            0    8719.7086   -1367.8604    1766.6425    3059.9392    2433.1619   -2769.9742    2527.4511    18.239607    21.483847    22.252277           90           90           90 
   51500    278.06722   -122.99991   -91.981089   -122.99991            0   -179.73429    18.327505    21.587379    22.359513            0            0            0    8846.3806   -3014.5319   -1029.3834    3504.7124   -1019.8496    1167.3743    1304.6568    18.327505    21.587379    22.359513           90           90           90 
   52000    257.24877   -122.51101   -93.814527   -122.51101            0   -1551.8886    18.158105    21.387848    22.152845            0            0            0     8603.341   -4557.9934    953.53855    -1051.211     2306.094   -156.99034    2906.8252    18.158105    21.387848    22.152845           90           90           90 
   52500    273.54117   -121.76352   -91.249587   -121.76352            0    1306.2836     18.16773    21.399185    22.164588            0            0            0    8617.0294   -615.60513    3819.7065    714.74926    2154.3715    1646.1327   -1521.6038     18.16773    21.399185    22.164588           90           90           90 
   53000    265.42979   -121.98308   -92.373992   -121.98308            0   -2892.1339    18.225855    21.467649      22.2355            0            0            0    8700.0013   -4549.9374   -807.56528   -3318.8988   -700.94538     1920.758    1698.1156    18.225855    21.467649      22.2355           90           90           90 
   53500    267.34496   -122.38946   -92.566729   -122.38946            0   -273.22276    18.194961     21.43126    22.197809            0            0            0    8655.8345   -1293.9921    1089.5222   -615.19846   -114.11835    520.49954    255.67717    18.194961     21.43126    22.197809           90           90           90 
   54000    291.13499   -123.44233   -90.965784   -123.44233            0    206.03975    18.164132    21.394947    22.160198            0            0            0      8611.91    1104.5931    326.75191   -813.22574   -921.99784    891.07832     3650.782    18.164132    21.394947    22.160198           90           90           90 
   54500    257.98648   -122.51096   -93.732178   -122.51096            0    2038.9795    18.207754    21.446329    22.213417            0            0            0     8674.106    1931.7539    2156.5864    2028.5983    486.90251    1557.6118   -681.33458    18.207754    21.446329    22.213417           90           90           90 
   55000    273.08684   -122.44871   -91.985463   -122.44871            0   -748.00485    18.224309    21.465828    22.233614            0            0            0    8697.7869   -1726.8947   -1163.4714    646.35152     1503.736    -38.53678    1456.8258    18.224309    21.465828    22.233614           90           90           90 
   55500    275.53694   -123.56609   -92.829525   -123.56609            0    1755.2843    18.157296    21.386895    22.151858            0            0            0    8602.1905    1180.4224    1407.1649    2678.2656   -879.06484    819.91154    309.10368    18.157296    21.386895    22.151858           90           90           90 
   56000    276.11066   -121.11187   -90.311307   -121.11187            0    174.14172    18.231936    21.474811    22.242918            0            0            0    8708.7115    399.27777    2724.1287   -2600.9813   -2092.9862    1204.8722   -410.84569    18.231936    21.474811    22.242918           90           90           90 
   56500    273.78516   -120.22062   -89.679474   -120.22062            0   -1159.0365    18.280889    21.532472    22.302642            0            0            0    8779.0499   -2186.1859   -1271.4454    -19.47813    3900.6898   -819.79711   -1252.0887    18.280889    21.532472    22.302642           90           90           90 
   57000    278.55515    -121.8138   -90.740549    -121.8138            0    2652.5723    18.132539    21.357735    22.121655            0            0            0    8567.0529   -1019.0386     4345.719    4631.0365    1410.2106   -608.85467    625.80801    18.132539    21.357735    22.121655           90           90           90 
   57500    288.96971   -123.70808   -91.473071   -123.70808            0    2734.9358    18.063073    21.275913    22.036907            0            0            0    8468.9679    5311.3307     802.9726    2090.5042    46.433343    1063.3441   -625.08485    18.063073    21.275913    22.036907           90           90           90 
   58000    280.02748   -123.04773   -91.810244   -123.04773            0   -1306.4117    18.188616    21.423786    22.190068            0            0            0     8646.782    1188.6106   -1706.7674   -3401.0784   -304.10103   -949.36422    2648.5924    18.188616    21.423786    22.190068           90           90           90 
   58500    270.72288   -122.86498   -92.665434   -122.86498            0   -132.45271    18.208407    21.447097    22.214213            0            0            0    8675.0381   -295.72033    591.72147   -693.35928   -115.07495   -887.92705   -1278.6696    18.208407    21.447097    22.214213           90           90           90 
   59000    276.93044   -121.87239   -90.980378   -121.87239            0    1496.8694    18.118042    21.340659    22.103968            0            0            0    8546.5207    1883.0899    473.32426    2134.1942    328.56512    -1469.738   -405.44797    18.118042    21.340659    22.103968           90           90           90 
   59500    275.27931   -122.00863   -91.300812   -122.00863            0   -343.73326    18.141364    21.368129    22.132421            0            0            0    8579.5664    -1615.808   -907.51234    1492.1206    163.52037    2805.9931    401.40918    18.141364    21.368129    22.132421           90           90           90 
   60000    263.83213   -120.90584   -91.474966   -120.90584            0   -290.36613    18.133504    21.358872    22.122833            0            0            0    8568.4209   -4302.9793    3099.8055    332.07538   -355.75971   -541.47875    -410.7461    18.133504    21.358872    22.122833           90           90           90 
   60500    267.69032   -122.36003   -92.498776   -122.36003            0    1201.6193     18.21321    21.452755    22.220073            0            0            0    8681.9054    2144.3482    436.53252     1023.977     1796.697    2747.8702   -1194.7741     18.21321    21.452755    22.220073           90           90           90 
   61000    270.89505   -122.55116   -92.332411   -122.55116            0   -888.53027    18.164927    21.395883    22.161167            0            0            0    8613.0407   -351.40991   -2215.6788   -98.502092    430.22364    1854.5162   -1859.1876    18.164927    21.395883    22.161167           90           90           90 
   61500    276.28654   -122.49939   -91.679211   -122.49939            0     2152.717    18.032989    21.240478    22.000204            0            0            0    8426.7225    1632.9336      2138.19    2687.0274   -525.32774    1763.1089    383.15715    18.032989    21.240478    22.000204           90           90           90 
   62000    279.72912   -122.32278   -91.118579   -122.32278            0   -2184.3976    18.023751    21.229597    21.988933            0            0            0    8413.7784   -3977.0449    482.06821    -3058.216   -328.85097    161.22905   -3279.4633    18.023751    21.229597    21.988933           90           90           90 
   62500     274.3377   -122.25348   -91.650693   -122.25348            0   -3172.3829    18.130863     21.35576    22.119609            0            0            0    8564.6764    -3869.075   -1281.3686   -4366.7051   -1208.5286    1314.1758   -1453.3253    18.130863     21.35576    22.119609           90           90           90 
   63000    287.47496   -120.90439    -88.83613   -120.90439            0     3694.777    18.133348    21.358688    22.122642            0            0            0     8568.199    4741.7994    2501.1665    3841.3651    2277.8773   -1985.7542    292.81862    18.133348    21.358688    22.122642           90           90           90 
   63500    269.25102   -121.82854    -91.79318   -121.82854            0   -1695.2561    18.085707    21.302573     22.06452            0            0            0    8500.8438   -3520.5969   -280.38979   -1284.7815   -128.24858    3537.5427    2109.6542    18.085707    21.302573     22.06452           90           90           90 
   64000     282.3975   -122.11341   -90.611549   -122.11341            0    819.74221    17.999041    21.200492    21.958788            0            0            0    8379.2215    477.24915   -2142.8858    4124.8632    2920.2352   -1215.4819    229.07087    17.999041    21.200492    21.958788           90           90           90 
   64500    272.35251   -121.73005   -91.348718   -121.73005            0   -3145.1625    18.046049    21.255861    22.016137            0            0            0    8445.0445    -4586.407   -1498.1487   -3350.9317   -854.48082    665.74505   -591.92847    18.046049    21.255861    22.016137           90           90           90 
   65000    261.28646   -122.13328   -92.986378   -122.13328            0    1009.7214    18.082984    21.299366    22.061198            0            0            0     8497.005   -1420.3037     1885.085    2564.3828   -385.40841    58.974444    184.17733    18.082984    21.299366    22.061198           90           90           90 
   65500    277.00206   -122.89351    -91.99351   -122.89351            0    813.14576    18.045748    21.255507     22.01577            0            0            0    8444.6224    604.67451   -934.29317    2769.0559    1110.2928    1206.4745   -376.11068    18.045748    21.255507     22.01577           90           90           90 
   66000    283.98236   -121.48574   -89.807077   -121.48574            0     435.2079    18.108259    21.329137    22.092034            0            0            0    8532.6842    1775.7054   -450.20089   -19.880814   -56.536255   -594.01285   -887.36776    18.108259    21.329137    22.092034           90           90           90 
   66500    277.01247   -119.91508   -89.013924   -119.91508            0   -1427.6269    18.056397    21.268049    22.028761            0            0            0    8459.5805   -1996.5377   -1978.1794   -308.16356   -1954.8431    1243.2053   -1583.4186    18.056397    21.268049    22.028761           90           90           90 
   67000    274.49135   -121.66037   -91.040442   -121.66037            0      1180.76    17.974705    21.171828    21.929098            0            0            0    8345.2797    -389.0911    1304.5395    2626.8317   -1508.8366   -852.07881   -1544.5837    17.974705    21.171828    21.929098           90           90           90 
   67500    271.94947   -121.90155    -91.56518   -121.90155            0    2108.4769    18.102176    21.321971    22.084612            0            0            0    8524.0874    1877.9144    4478.1141   -30.597899   -761.04784    1070.4477    1607.7798    18.102176    21.321971    22.084612           90           90           90 
   68000    272.31297   -122.34061   -91.963691   -122.34061            0   -1715.0366    18.175764    21.408649     22.17439            0            0            0    8628.4664    -2180.937     402.3042   -3366.4769    1262.7014    398.61191   -3479.7979    18.175764    21.408649     22.17439           90           90           90 
   68500    271.29351    -120.8039   -90.540706    -120.8039            0    550.35961    18.072446    21.286953    22.048341            0            0            0     8482.158     1281.767   -1240.5345    1609.8464    533.87217    1361.4409   -353.86705    18.072446    21.286953    22.048341           90           90           90 
   69000    263.50303   -122.18367   -92.789506   -122.18367            0   -1651.0301    18.135561    21.361295    22.125342            0            0            0     8571.337   -1633.3536    -3451.499    131.76232    1161.6237    2077.7206   -1017.0902    18.135561    21.361295    22.125342           90           90           90 
   69500    268.77535    -122.2121   -92.229804    -122.2121            0   -1808.6492    18.128567    21.353057    22.116809            0            0            0    8561.4241    -1094.322   -452.60943   -3879.0163   -2116.3189   -104.41062   -823.57517    18.128567    21.353057    22.116809           90           90           90 
   70000    266.67197   -121.11315   -91.365487   -121.11315            0    1805.6841    18.029868    21.236802    21.996396            0            0            0    8422.3484    1606.6616    1224.1098    2586.2808    -232.8502    1551.3701    108.97046    18.029868    21.236802    21.996396           90           90           90 
   70500    270.98512   -122.01646   -91.787666   -122.01646            0   -2349.6329    18.025632    21.231812    21.991228            0            0            0    8416.4133   -1758.5553   -1402.4945   -3887.8488    1031.8254   -2096.5445   -116.92797    18.025632    21.231812    21.991228           90           90           90 
   71000    271.88718   -122.44781   -92.118383   -122.44781            0     3964.057    18.104662      21.3249    22.087645            0            0            0    8527.6005    771.11517    4092.3943    7028.6614   -1039.9811   -355.65347    831.25486    18.104662      21.3249    22.087645           90           90           90 
   71500     269.6496   -122.17219   -92.092369   -122.17219            0   -877.22332    18.138037    21.364211    22.128362            0            0            0    8574.8474    556.03512   -2352.3895   -835.31564    304.50466   -3897.6549   -648.96006    18.138037    21.364211    22.128362           90           90           90 
   72000    290.61542   -121.01404   -88.595454   -121.01404            0   -1759.9201    18.068872    21.282744    22.043981            0            0            0    8477.1272   -767.19459   -1756.9665   -2755.5992    2351.9778    1046.9333   -426.42194    18.068872    21.282744    22.043981           90           90           90 
   72500    290.80814   -123.06544   -90.625352   -123.06544            0   -1048.9097    18.062703    21.275478    22.036455            0            0            0    8468.4476   -4680.4566    793.30356    740.42403   -2207.3224   -941.17762    233.10199    18.062703    21.275478    22.036455           90           90           90 
   73000    268.03143   -122.04004   -92.140726   -122.04004            0   -2441.2944    18.052167    21.263067      22.0236            0            0            0    8453.6362     352.4537   -5978.6873   -1697.6496   -750.27115   -2013.8027    -1728.616    18.052167    21.263067      22.0236           90           90           90 
   73500    278.05918     -123.793    -92.77508     -123.793            0    1827.6442    18.013183    21.217149    21.976041            0            0            0    8398.9878    2199.6598    715.71594     2567.557    1721.1692    367.31054    1499.3805    18.013183    21.217149    21.976041           90           90           90 
   74000    270.00899   -122.98095   -92.861036   -122.98095            0   -1771.0925    18.110504     21.33178    22.094772            0            0            0    8535.8573   -1718.8521   -408.36491   -3186.0606    3689.8235   -483.16225    1743.7757    18.110504     21.33178    22.094772           90           90           90 
   74500     283.7348   -123.65076   -91.999719   -123.65076            0    704.41434    18.077277    21.292643    22.054235            0            0            0    8488.9621    1401.8911    132.46063    578.89133   -1505.7604   -264.40465   -339.38275    18.077277    21.292643    22.054235           90           90           90 
   75000     272.7171   -123.03597   -92.613969   -123.03597            0    811.12988     18.05425    21.265521    22.026143            0            0            0     8456.564    835.68084    2580.2229   -982.51409    262.98767    4501.3792    1956.3129     18.05425    21.265521    22.026143           90           90           90 
   75500    270.00156   -124.55147   -94.432394   -124.55147            0   -1960.7146     18.11601    21.338266    22.101489            0            0            0    8543.6454   -157.59564   -926.03986   -4798.5081    112.13692      1215.58   -1002.4565     18.11601    21.338266    22.101489           90           90           90 
   76000    266.51363   -122.70498   -92.974981   -122.70498            0   -965.45974    18.058133    21.270094    22.030879            0            0            0    8462.0205   -1116.8216   -2218.0219    438.46426    3287.6782    459.32044    2651.9665    18.058133    21.270094    22.030879           90           90           90 
   76500    247.06985   -124.15403   -96.593013   -124.15403            0    175.38171    18.019122    21.224144    21.983286            0            0            0    8407.2977   -2655.4094    901.60568    2279.9488   -429.04276    1499.7505    192.11883    18.019122    21.224144    21.983286           90           90           90 
   77000    260.88459   -124.51183   -95.409762   -124.51183            0    1684.6722    18.001944    21.203912    21.962329            0            0            0    8383.2767     1339.649   -1180.7455    4895.1132    2392.0997   -1059.4004    515.87396    18.001944    21.203912    21.962329           90           90           90 
   77500    267.93369   -123.65923   -93.770819   -123.65923            0    2907.9499    17.956049    21.149853    21.906337            0            0            0    8319.3211    5436.1529   -1130.3196    4418.0163   -665.29342   -500.81895   -813.14557    17.956049    21.149853    21.906337           90           90           90 
   78000    278.55099   -121.45704   -90.384253   -121.45704            0    1201.2749    18.043696     21.25309    22.013267            0            0            0    8441.7419    3353.6966   -893.21889    1143.3471   -1634.0282    740.91139    1642.6855    18.043696     21.25309    22.013267           90           90           90 
   78500    275.96997   -125.52128   -94.736419   -125.52128            0    4408.0294    17.943381    21.134932    21.890883            0            0            0    8301.7265    6039.7827    4611.6279    2572.6774    917.29479    2061.3139   -135.09588    17.943381    21.134932    21.890883           90           90           90 
   79000    266.40985   -123.80097   -94.082548   -123.80097            0   -1609.3457    18.097068    21.315955     22.07838            0            0            0    8516.8738    638.88477   -2214.9371   -3251.9847    960.37241   -1518.0194    2853.7895    18.097068    21.315955     22.07838           90           90           90 
   79500    283.28882   -122.36817   -90.766874   -122.36817            0   -2217.0081    18.126608    21.350749    22.114419            0            0            0    8558.6489   -940.73564   -4641.2838    -1069.005   -653.05784    1077.7326      798.841    18.126608    21.350749    22.114419           90           90           90 
   80000    289.88352   -123.69475   -91.357811   -123.69475            0   -518.70658    18.040383    21.249187    22.009224            0            0            0    8437.0921    -1187.995    -4068.278    3700.1533   -2191.4509     1529.471    2312.6122    18.040383    21.249187    22.009224           90           90           90 
   80500    278.96308   -123.57488   -92.456128   -123.57488            0    1045.8008       17.946    21.138016    21.894077            0            0            0     8305.361   -252.40394    2893.4919    496.31449    869.20752   -1380.6335   -618.93432       17.946    21.138016    21.894077           90           90           90 
   81000    264.24418   -122.74091   -93.264071   -122.74091            0    3316.3222      18.0134    21.217405    21.976305            0            0            0    8399.2909    3484.2215    2957.0724    3507.6728    199.06053    814.54175   -2515.6848      18.0134    21.217405    21.976305           90           90           90 
   81500    276.06876   -123.52456   -92.728673   -123.52456            0   -576.80427    18.096327    21.315082    22.077476            0            0            0    8515.8277   -2902.6066    1.6486289    1170.5452   -1352.3323    223.92391    865.25215    18.096327    21.315082    22.077476           90           90           90 
   82000    267.87139   -123.63121   -93.749755   -123.63121            0   -1053.5009    18.045017    21.254646    22.014878            0            0            0     8443.596   -2550.9772   -1442.4236    832.89817   -722.08288    1745.1982   -1068.6696    18.045017    21.254646    22.014878           90           90           90 
   82500    286.17015   -122.27199   -90.349274   -122.27199            0    1258.1735    17.985313    21.184322    21.942039            0            0            0    8360.0626   -1629.1615    5457.9339   -54.252016   -1122.5229    1561.8702   -965.21134    17.985313    21.184322    21.942039           90           90           90 
   83000    288.06666   -122.29537   -90.161105   -122.29537            0   -1030.3507    18.081064    21.297104    22.058855            0            0            0    8494.2984   -1640.2601   -3263.5115    1812.7196   -2563.9592    1304.2323    2071.0488    18.081064    21.297104    22.058855           90           90           90 
   83500    280.48801   -122.71295   -91.424088   -122.71295            0    2807.6083    18.083665    21.300168    22.062029            0            0            0     8497.965    1835.4908    4237.9841    2349.3499    1482.4378    713.55565   -2064.3586    18.083665    21.300168    22.062029           90           90           90 
   84000    283.55627   -121.20092   -89.569792   -121.20092            0   -1595.4714    18.117699    21.340255     22.10355            0            0            0    8546.0348    514.02585   -2013.2197   -3287.2204   -456.12866   -457.61078    3007.1556    18.117699    21.340255     22.10355           90           90           90 
   84500    283.27251   -122.34623    -90.74676   -122.34623            0    2611.4139     18.14866    21.376723    22.141322            0            0            0    8589.9222    4371.8012    2525.7689    936.67157    1374.0986    -625.9474    1513.3843     18.14866    21.376723    22.141322           90           90           90 
   85000    279.06034   -123.92605   -92.796445   -123.92605            0    328.75016    18.116905     21.33932    22.102581            0            0            0    8544.9117    1775.6093   -141.84707   -647.51176    613.01723   -676.68294   -846.41681    18.116905     21.33932    22.102581           90           90           90 
   85500    294.36239   -123.92422   -91.087652   -123.92422            0    3242.8516    18.104653    21.324889    22.087634            0            0            0    8527.5875    5585.2801    422.35695    3720.9177    -579.9641   -95.874491   -979.43063    18.104653    21.324889    22.087634           90           90           90 
   86000    280.86224   -123.32036   -91.989751   -123.32036            0   -1237.9391    18.122098    21.345436    22.108916            0            0            0    8552.2613   -1083.7114   -631.20022   -1998.9056   -1126.0895   -1102.1684   -793.72476    18.122098    21.345436    22.108916           90           90           90 
   86500    274.39216   -124.40655   -93.797694   -124.40655            0    1626.9304    18.147256    21.375069    22.139609            0            0            0    8587.9291     1275.445    1770.5507    1834.7954   -48.243555   -225.61732   -204.60515    18.147256    21.375069    22.139609           90           90           90 
   87000    257.27569   -124.12389   -95.424401   -124.12389            0    3000.9983    18.176153    21.409106    22.174863            0            0            0    8629.0194    895.33954    3953.1258    4154.5295   -200.39387    610.13819     911.8277    18.176153    21.409106    22.174863           90           90           90 
   87500    264.58365   -122.97313   -93.458426   -122.97313            0   -1544.2286    18.249695    21.495729    22.264585            0            0            0    8734.1852   -281.25447   -694.41382   -3657.0174   -180.18083   -846.84723    1909.5859    18.249695    21.495729    22.264585           90           90           90 
   88000    283.06546   -124.36549   -92.789113   -124.36549            0    2133.4896    18.214354    21.454102    22.221468            0            0            0    8683.5407    2913.9618    2617.3349    869.17196   -548.09394    2208.4462   -1188.7171    18.214354    21.454102    22.221468           90           90           90 
   88500    272.48191   -124.39324   -93.997476   -124.39324            0    893.46637     18.10874    21.329703    22.092621            0            0            0    8533.3644    1264.0457    1133.6027    282.75073    1421.4799    138.27406    2946.3271     18.10874    21.329703    22.092621           90           90           90 
   89000    266.10076   -125.40866   -95.724722   -125.40866            0    1636.3386    18.180843    21.414631    22.180586            0            0            0    8635.7017    1228.9951    1556.7889    2123.2319   -16.710073    247.07908   -554.70958    18.180843    21.414631    22.180586           90           90           90 
   89500    257.07543   -124.46128   -95.784127   -124.46128            0     517.4671    18.189878    21.425273    22.191608            0            0            0    8648.5825   -3566.9312    7040.8352   -1921.5026   -991.20663   -552.33563   -2156.9604    18.189878    21.425273    22.191608           90           90           90 
   90000    262.97438   -126.00668   -96.671496   -126.00668            0     560.6432    18.178585    21.411971    22.177831            0            0            0    8632.4839   -2340.8407    3702.8061    319.96416   -947.26776   -1821.3492   -2095.5875    18.178585    21.411971    22.177831           90           90           90 
   90500    269.13968   -124.05896   -94.036027   -124.05896            0   -126.78832    18.245885    21.491242    22.259937            0            0            0    8728.7162    2558.7133   -758.87552   -2180.2027   -1812.0566   -624.92742    1058.3135    18.245885    21.491242    22.259937           90           90           90 
   91000    269.77272   -123.10763   -93.014082   -123.10763            0    1469.6818    18.207124    21.445587    22.212649            0            0            0    8673.2054    670.83664    624.31628    3113.8926     1106.222   -2378.2391   -726.13092    18.207124    21.445587    22.212649           90           90           90 
   91500    265.49589   -125.89525   -96.278781   -125.89525            0    1089.5383    18.214846    21.454682    22.222069            0            0            0    8684.2454    2610.5898    270.48152    387.54371   -45.926882    783.18091   -305.67384    18.214846    21.454682    22.222069           90           90           90 
   92000    267.10382   -124.30019   -94.504361   -124.30019            0   -339.97843    18.246632    21.492121    22.260848            0            0            0    8729.7879    285.05132    -1704.782    399.79536    409.71942   -1702.4326    1381.3571    18.246632    21.492121    22.260848           90           90           90 
   92500    257.77328   -122.84214   -94.087146   -122.84214            0    -1517.541    18.144404     21.37171     22.13613            0            0            0    8583.8803    194.89717   -250.83577   -4496.6845    2154.9285    1025.8309   -1756.0868    18.144404     21.37171     22.13613           90           90           90 
   93000    275.35924   -124.22285   -93.506112   -124.22285            0    282.69905    18.098502    21.317644     22.08013            0            0            0    8518.8988    2214.7271   -640.11836   -726.51161    2182.9197   -2560.9114    1174.3171    18.098502    21.317644     22.08013           90           90           90 
   93500    268.56853   -123.43035   -93.471127   -123.43035            0   -1586.5071    18.224784    21.466387    22.234193            0            0            0    8698.4666   -210.99354   -595.27838   -3953.2494   -397.24704    2788.4238   -1283.9645    18.224784    21.466387    22.234193           90           90           90 
   94000    281.59859   -125.15774    -93.74499   -125.15774            0   -1659.5524    18.264904    21.513644     22.28314            0            0            0    8756.0408    -1600.469   -5395.6118    2017.4236    844.56416   -663.55428    1328.7493    18.264904    21.513644     22.28314           90           90           90 
   94500    268.67702   -124.37291   -94.401588   -124.37291            0    246.74334    18.278298    21.529419     22.29948            0            0            0    8775.3165    968.75819    540.38842   -768.91659    365.32784    1385.1201    122.10446    18.278298    21.529419     22.29948           90           90           90 
   95000    256.86331   -124.98769   -96.334206   -124.98769            0    644.17934    18.196944    21.433595    22.200229            0            0            0    8658.6649    -3357.411    3214.6838    2075.2653    490.56453    -1053.508   -918.67296    18.196944    21.433595    22.200229           90           90           90 
   95500    260.78704   -123.59113   -94.499939   -123.59113            0    256.08529    18.185115    21.419662    22.185797            0            0            0    8641.7896    2943.7764    1347.9987   -3523.5193   -744.99405   -849.15014   -544.12088    18.185115    21.419662    22.185797           90           90           90 
   96000    279.40823   -124.20081   -93.032405   -124.20081            0   -1212.7264    18.294517    21.548523    22.319267            0            0            0    8798.6972   -3024.7143    234.94351   -848.40852   -729.74577    585.70318    2129.7737    18.294517    21.548523    22.319267           90           90           90 
   96500    277.58275   -123.78641   -92.821634   -123.78641            0   -2247.0987    18.233666    21.476849    22.245029            0            0            0    8711.1913    -2583.261    -1503.804   -2654.2312    3106.5292   -1470.0041     1180.836    18.233666    21.476849    22.245029           90           90           90 
   97000    260.97604   -122.00108   -92.888815   -122.00108            0   -467.33269    18.204131    21.442061    22.208997            0            0            0    8668.9289   -1772.9424   -2252.2933    2623.2376   -3122.9945    723.43705    2461.3436    18.204131    21.442061    22.208997           90           90           90 
   97500    279.11613   -124.94151   -93.805687   -124.94151            0   -1501.9672    18.211168     21.45035    22.217582            0            0            0    8678.9857    379.84125   -3198.2664   -1687.4766    1831.0857   -2204.8631     1608.151    18.211168     21.45035    22.217582           90           90           90 
   98000    256.80072   -123.09191   -94.445406   -123.09191            0    2193.2763    18.231827    21.474683    22.242786            0            0            0     8708.556    2825.2865    1967.9383     1786.604    385.67992    682.36384    591.20897    18.231827    21.474683    22.242786           90           90           90 
   98500     268.2334   -123.07366    -93.15182   -123.07366            0    217.24544    18.244959     21.49015    22.258807            0            0            0    8727.3866    308.04803    434.70331   -91.015028    2660.6739    1358.6234     150.8161    18.244959     21.49015    22.258807           90           90           90 
   99000    268.80572   -123.55874   -93.573055   -123.55874            0    320.15446    18.222102    21.463228    22.230921            0            0            0    8694.6271   -1052.0659    3173.4008   -1160.8714   -1448.3705   -1666.9201    1944.7771    18.222102    21.463228    22.230921           90           90           90 
   99500    288.58312   -122.98391   -90.792026   -122.98391            0    142.52083     18.14439    21.371694    22.136113            0            0            0    8583.8616    1816.5875   -3083.6585    1694.6335    1518.9971    -4.347185    -231.2926     18.14439    21.371694    22.136113           90           90           90 
  100000    280.79667   -123.56982   -92.246533   -123.56982            0    1949.2967    18.149266    21.377437    22.142061            0            0            0    8590.7829    2730.4462    2685.8087    431.63508   -1341.4822    1501.0142    2538.2304    18.149266    21.377437    22.142061           90           90           90 
  100500    268.89616   -121.33136   -91.335584   -121.33136            0   -3162.7195     18.24356    21.488503    22.257101            0            0            0    8725.3802   -1119.2854   -4156.4125   -4212.4606   -1170.1866    630.11285   -2505.2965     18.24356    21.488503    22.257101           90           90           90 
  101000    274.97497   -123.49444   -92.820571   -123.49444            0   -2124.7462     18.21987      21.4606    22.228199            0            0            0    8691.4336   -2548.0439     -251.178   -3575.0166    146.80898   -765.44018    2248.7579     18.21987      21.4606    22.228199           90           90           90 
  101500     272.1406    -123.2502   -92.892508    -123.2502            0   -1560.2183    18.226179     21.46803    22.235895            0            0            0    8700.4644   -990.50665   -2991.2727    -698.8757   -814.56404   -75.340759     1003.291    18.226179     21.46803    22.235895           90           90           90 
  102000    274.62079   -124.18163   -93.547266   -124.18163            0   -1035.2009    18.110387    21.331643    22.094629            0            0            0    8535.6924   -256.52059    1298.5836   -4147.6658    2142.0639   -1546.2646    783.41789    18.110387    21.331643    22.094629           90           90           90 
  102500    272.00614    -124.3538    -94.01111    -124.3538            0    3151.4296    18.100101    21.319527     22.08208            0            0            0    8521.1563    3657.6933      -710.65    6507.2455    572.31696     2820.271    368.43457    18.100101    21.319527     22.08208           90           90           90 
  103000    281.18719   -124.13946   -92.772604   -124.13946            0   -1070.3688     18.21549     21.45544    22.222855            0            0            0     8685.166    -2.748815   -1807.8547   -1400.5029    1581.0219    1505.5636   -2384.7905     18.21549     21.45544    22.222855           90           90           90 
  103500    265.24131     -123.718   -94.129931     -123.718            0   -1450.1873    18.192479    21.428336    22.194781            0            0            0    8652.2923   -1985.4566     78.57071   -2443.6761   -126.60777    2676.2529   -279.89931    18.192479    21.428336    22.194781           90           90           90 
  104000    270.40949   -122.98003   -92.815442   -122.98003            0   -2659.3581    18.082385    21.298661    22.060467            0            0            0    8496.1608    2026.2668   -7623.7418   -2380.5993    3565.7686    1476.2443    708.80015    18.082385    21.298661    22.060467           90           90           90 
  104500    267.20816   -123.73343   -93.925955   -123.73343            0    2466.9381    18.047159    21.257169    22.017491            0            0            0    8446.6032    3301.3998    89.687157    4009.7274    1878.1062   -63.532548    172.80879    18.047159    21.257169    22.017491           90           90           90 
  105000    275.06425   -122.82057   -92.136737   -122.82057            0   -736.22943    18.098437    21.317568    22.080051            0            0            0    8518.8072     456.5325   -1060.2335   -1604.9873   -453.58793   -1279.1331   -1143.2802    18.098437    21.317568    22.080051           90           90           90 
  105500    279.10649   -122.31809   -91.183342   -122.31809            0    2052.1775    18.151429    21.379985      22.1447            0            0            0    8593.8551    961.89206   -405.72417    5600.3645   -157.72912   -1643.5393   -265.93052    18.151429    21.379985      22.1447           90           90           90 
  106000    279.38645   -123.14926   -91.983284   -123.14926            0   -38.517873    18.039562     21.24822    22.008223            0            0            0    8435.9407    1592.9739   -221.81916   -1486.7084    836.35657   -634.16586   -2357.8893    18.039562     21.24822    22.008223           90           90           90 
  106500     274.2216   -124.76938   -94.179545   -124.76938            0     1330.587     17.98843    21.187993    21.945842            0            0            0    8364.4102    2437.8093    543.62164      1010.33   -156.50633    799.76138   -1085.1805     17.98843    21.187993    21.945842           90           90           90 
  107000    272.85783   -124.40395   -93.966251   -124.40395            0    1083.5449    18.041373    21.250353    22.010432            0            0            0    8438.4811   -328.97053    2268.5257    1311.0794    93.614667   -1094.9695    2295.6411    18.041373    21.250353    22.010432           90           90           90 
  107500    265.73813   -123.08324   -93.439751   -123.08324            0   -1530.1169    17.983808    21.182549    21.940203            0            0            0    8357.9641    -816.7068   -555.92702    -3217.717    1849.7728    2245.1546    2738.1433    17.983808    21.182549    21.940203           90           90           90 
  108000    283.39988   -124.41559    -92.80191   -124.41559            0    47.006157    17.969694    21.165925    21.922984            0            0            0    8338.3013   -2993.7343    3128.2213    6.5314152   -616.95201   -298.86331   -936.56954    17.969694    21.165925    21.922984           90           90           90 
  108500    285.69488   -124.37142   -92.501726   -124.37142            0    112.10285    17.982178     21.18063    21.938215            0            0            0    8355.6928   -1292.8934    461.24413    1167.9578    755.17384   -988.87574    1082.1291    17.982178     21.18063    21.938215           90           90           90 
  109000    268.85582   -124.07395   -94.082675   -124.07395            0   -855.23374    17.989795    21.189602    21.947508            0            0            0    8366.3152   -735.84994   -1504.0088   -325.84246     381.2799    1121.6155    250.48896    17.989795    21.189602    21.947508           90           90           90 
  109500    282.29843   -124.91129   -93.420478   -124.91129            0    1591.9504    18.062344    21.275055    22.036017            0            0            0    8467.9427    1188.2445    2957.3009    630.30567   -2321.6172   -1762.6256   -458.31228    18.062344    21.275055    22.036017           90           90           90 
  110000     277.5652   -125.02607   -94.063253   -125.02607            0   -1309.8564    18.089502    21.307043     22.06915            0            0            0    8506.1967    226.48474   -4197.4336    41.379669   -268.47202    232.23497    1192.4199    18.089502    21.307043     22.06915           90           90           90 
  110500     263.3984   -124.22291   -94.840422   -124.22291            0    1758.6674    18.000426    21.202124    21.960478            0            0            0    8381.1564   -445.92019    3353.3754     2368.547    35.798226    395.41654    82.195383    18.000426    21.202124    21.960478           90           90           90 
  111000    270.03674   -123.77051   -93.647505   -123.77051            0    453.75696    18.122103    21.345442    22.108922            0            0            0    8552.2682    2111.5424   -2615.5446    1865.2731    1948.3529    -1817.958    -277.2821    18.122103    21.345442    22.108922           90           90           90 
  111500    273.57562   -123.59442   -93.076646   -123.59442            0    371.63721    18.114766    21.336801    22.099972            0            0            0    8541.8857     3093.049     496.7456    -2474.883    254.75056    4350.5261      120.555    18.114766    21.336801    22.099972           90           90           90 
[...]
 1973500     278.4457   -124.57589   -93.514855   -124.57589            0   -355.53089    17.981229    21.179511    21.937056            0            0            0    8354.3688    1972.9144    727.89615   -3767.4032    346.62964    2456.8756    1424.4045    17.981229    21.179511    21.937056           90           90           90 
 1974000    272.58694   -123.32318   -92.915695   -123.32318            0   -878.58514    18.146595    21.374291    22.138804            0            0            0    8586.9915   -1248.9919     299.3843   -1686.1478    1761.3429    60.360368   -2290.8942    18.146595    21.374291    22.138804           90           90           90 
 1974500    276.31451   -124.47078   -93.647478   -124.47078            0    1141.8106    18.071661    21.286028    22.047384            0            0            0    8481.0527    1612.0041    -1399.194    3212.6217    1091.0841   -1929.5782    1438.4749    18.071661    21.286028    22.047384           90           90           90 
 1975000    273.92082   -125.14426   -94.587982   -125.14426            0   -1952.0667    18.013961    21.218066     21.97699            0            0            0    8400.0759   -2163.4863    795.53872   -4488.2525   -37.409265    2020.7221    1465.0078    18.013961    21.218066     21.97699           90           90           90 
 1975500    270.81334   -125.14291   -94.933277   -125.14291            0    408.10348    18.071044    21.285302    22.046631            0            0            0    8480.1839    18.812226    3060.3786   -1854.8803   -3009.2494   -208.41235    2636.4517    18.071044    21.285302    22.046631           90           90           90 
 1976000    267.54579   -123.41305   -93.567917   -123.41305            0    1634.5669    18.112925    21.334633    22.097726            0            0            0    8539.2819    4668.2306   -427.45109    662.92114    1036.9199   -3102.8063   -1295.6841    18.112925    21.334633    22.097726           90           90           90 
 1976500    277.52165   -123.69216   -92.734201   -123.69216            0    1207.6939    18.040846    21.249733     22.00979            0            0            0    8437.7424    188.75791    2546.0192    888.30455     286.6444   -32.268885   -1112.2722    18.040846    21.249733     22.00979           90           90           90 
 1977000    272.72649   -123.68552   -93.262473   -123.68552            0   -869.76982    18.152578    21.381338    22.146102            0            0            0    8595.4874    -2449.252   -1636.9528    1476.8953    1244.8145    -2543.533    1919.8512    18.152578    21.381338    22.146102           90           90           90 
 1977500    271.30016   -123.38314   -93.119199   -123.38314            0   -648.13442    18.160397    21.390548    22.155641            0            0            0    8606.5992   -1735.5421   -1345.8866    1137.0254   -2304.7315    103.78835    229.53827    18.160397    21.390548    22.155641           90           90           90 
 1978000    265.37267   -122.37869   -92.775966   -122.37869            0    1537.1806    18.025222    21.231329    21.990728            0            0            0    8415.8387    5527.5302    748.00271    -1663.991    246.29216   -1321.8703    1208.5457    18.025222    21.231329    21.990728           90           90           90 
 1978500    279.01788   -123.63428   -92.509414   -123.63428            0    3121.4141      18.0908    21.308572    22.070733            0            0            0    8508.0273     237.6242    3684.2443    5442.3737    699.13343    1958.7175    986.08611      18.0908    21.308572    22.070733           90           90           90 
 1979000     271.7422   -123.60484   -93.291587   -123.60484            0   -487.85855     18.18333     21.41756     22.18362            0            0            0    8639.2461   -237.15582   -1074.6381   -151.78169    719.59359    61.682168     896.2652     18.18333     21.41756     22.18362           90           90           90 
 1979500    277.40468   -122.26135   -91.316442   -122.26135            0    1363.1014    18.085098    21.301856    22.063777            0            0            0    8499.9851   -324.87219    2607.4284    1806.7479   -194.25827   -230.58663    1154.9513    18.085098    21.301856    22.063777           90           90           90 
 1980000    274.29284   -122.55403   -91.956254   -122.55403            0   -1580.3245    18.129168    21.353764    22.117542            0            0            0    8562.2746   -2118.0317   -996.30719   -1626.6346    883.22551    3155.5263    1171.5017    18.129168    21.353764    22.117542           90           90           90 
 1980500    273.34969   -122.31278   -91.820208   -122.31278            0    1214.3584    18.157514    21.387152    22.152124            0            0            0    8602.5004   -1639.8186    3762.1368    1520.7569    522.52938     1806.674   -427.58994    18.157514    21.387152    22.152124           90           90           90 
 1981000    290.99314   -123.49414    -91.03342   -123.49414            0   -650.17399    18.190004     21.42542    22.191761            0            0            0    8648.7612   -1431.5485   -330.41288   -188.56065    2114.7771     -432.245    194.24343    18.190004     21.42542    22.191761           90           90           90 
 1981500    276.06095   -123.37858   -92.583568   -123.37858            0   -250.24201    18.143879    21.371092    22.135489            0            0            0    8583.1354    -2274.696   -113.92091    1637.8908   -2255.5416   -1381.7366    32.380438    18.143879    21.371092    22.135489           90           90           90 
 1982000    290.50344   -123.56438   -91.158284   -123.56438            0   -383.65078    18.010754    21.214288    21.973077            0            0            0    8395.5898   -1254.2329    2050.5476    -1947.267    -1195.808    226.06676   -1023.6536    18.010754    21.214288    21.973077           90           90           90 
 1982500    276.18226   -124.17336   -93.364817   -124.17336            0   -2003.6731    18.126021    21.350057    22.113703            0            0            0    8557.8169   -1440.9646   -1289.2963   -3280.7583   -209.69081   -1103.4857   -470.93027    18.126021    21.350057    22.113703           90           90           90 
 1983000    276.48694   -123.11206   -92.269522   -123.11206            0   -988.81186    18.197075    21.433749    22.200388            0            0            0    8658.8515   -1596.2124    506.60256   -1876.8258    227.46028     1357.354    1862.6082    18.197075    21.433749    22.200388           90           90           90 
 1983500    271.86154   -123.31229    -92.98573   -123.31229            0     649.4799    18.178109     21.41141    22.177249            0            0            0    8631.8054     512.9864   -218.85463    1654.3079   -438.74911    931.63145    -270.0822    18.178109     21.41141    22.177249           90           90           90 
 1984000    276.34766   -124.45742    -93.63042   -124.45742            0    3409.3985    18.099774    21.319142    22.081682            0            0            0    8520.6955    2401.7271    5491.4691    2334.9992   -3962.4792   -661.29943    716.94837    18.099774    21.319142    22.081682           90           90           90 
 1984500    288.06062   -123.17497    -91.04137   -123.17497            0    308.58129    18.078828     21.29447    22.056127            0            0            0    8491.1473    217.35192    1415.6032   -707.21123    961.56332   -1568.5685    797.76641    18.078828     21.29447    22.056127           90           90           90 
 1985000    279.94893   -121.84411   -90.615385   -121.84411            0   -2953.9695    18.165988    21.397134    22.162463            0            0            0    8614.5508   -1694.0767   -5387.8012   -1780.0306    515.95164    1499.0156   -257.27039    18.165988    21.397134    22.162463           90           90           90 
 1985500    283.40598   -122.87052   -91.256158   -122.87052            0    573.06402     18.29567    21.549881    22.320674            0            0            0    8800.3612    514.54518    30.008672    1174.6382    -2741.997   -350.56944    1142.8855     18.29567    21.549881    22.320674           90           90           90 
 1986000    280.55421   -124.29735   -93.001104   -124.29735            0    1736.0855    18.097833    21.316856    22.079314            0            0            0    8517.9542    3029.6866    924.24066    1254.3293    318.38811    911.59368    141.08498    18.097833    21.316856    22.079314           90           90           90 
 1986500    290.71584   -124.87598   -92.446186   -124.87598            0   -1305.7987    18.111081     21.33246    22.095476            0            0            0    8536.6739   -1876.4603   -668.42843   -1372.5073   -1902.7074    681.14891   -900.38975    18.111081     21.33246    22.095476           90           90           90 
 1987000    273.73345   -124.40761   -93.872235   -124.40761            0     99.75727    18.075963    21.291095    22.052632            0            0            0    8487.1107   -2012.8968   -1145.7571    3457.9256   -1696.5531    -680.2835    1653.7137    18.075963    21.291095    22.052632           90           90           90 
 1987500    269.91969   -126.27461   -96.164667   -126.27461            0    760.42897    18.012397    21.216224    21.975082            0            0            0    8397.8885    288.84024    1456.7996    535.64707   -31.677846    535.84099    1021.0619    18.012397    21.216224    21.975082           90           90           90 
 1988000    287.07131   -122.76805   -90.744814   -122.76805            0    2379.2203    18.018617     21.22355     21.98267            0            0            0    8406.5911    20.398797    4411.1265    2706.1356   -1096.7787    -1734.303    17.071371    18.018617     21.22355     21.98267           90           90           90 
 1988500    285.53946    -123.3816   -91.529241    -123.3816            0    1128.3897    18.069251     21.28319    22.044443            0            0            0    8477.6602    475.99044     1255.251    1653.9278   -320.61927   -3318.4366    1581.6397    18.069251     21.28319    22.044443           90           90           90 
 1989000    273.33787   -125.44614   -94.954891   -125.44614            0   -2750.5668    18.070966     21.28521    22.046535            0            0            0     8480.074    -3364.241    -1755.597   -3131.8624   -118.07386    1309.3801    109.23257    18.070966     21.28521    22.046535           90           90           90 
 1989500    263.44424   -124.55439   -95.166789   -124.55439            0    6.5709487    17.983827    21.182572    21.940227            0            0            0    8357.9917    -2397.743    4348.6763   -1931.2204    261.60479    934.24231    3253.4859    17.983827    21.182572    21.940227           90           90           90 
 1990000    269.65294   -124.60153   -94.521338   -124.60153            0   -2128.2122    18.117412    21.339918      22.1032            0            0            0    8545.6297   -62.984959   -1861.8462   -4459.8053    1819.2691     1017.162   -1842.0793    18.117412    21.339918      22.1032           90           90           90 
 1990500     277.2996     -125.879    -94.94581     -125.879            0    118.18771    18.045984    21.255785    22.016058            0            0            0    8444.9537    2056.2701   -2762.6807    1060.9737    -1142.613   -12.402872    3655.9202    18.045984    21.255785    22.016058           90           90           90 
 1991000    255.58487   -126.63529   -98.124413   -126.63529            0    1620.9683    17.967222    21.163013    21.919968            0            0            0    8334.8611    789.37444    2471.4184    1602.1122     1068.666   -1953.3779    1093.1788    17.967222    21.163013    21.919968           90           90           90 
 1991500    270.41158   -124.08356    -93.91874   -124.08356            0   -446.84893    18.067679    21.281338    22.042525            0            0            0    8475.4473   -1244.3386   -821.36452    725.15634    1109.2522    810.79743    3825.2557    18.067679    21.281338    22.042525           90           90           90 
 1992000    273.06962    -126.0794   -95.618078    -126.0794            0   -227.20949    18.072294    21.286774    22.048156            0            0            0    8481.9438    178.34734     -2973.49    2113.5142   -959.20749    1153.8119   -981.21635    18.072294    21.286774    22.048156           90           90           90 
 1992500    271.07113   -125.31043   -95.072034   -125.31043            0    -1986.024    17.980903    21.179127    21.936659            0            0            0    8353.9144   -2873.6665    -1328.291   -1756.1144    -1298.408   -249.52134     -338.666    17.980903    21.179127    21.936659           90           90           90 
 1993000    270.90734   -125.06976   -94.849639   -125.06976            0    -269.7006    17.970864    21.167303    21.924411            0            0            0    8339.9301   -10.122185    174.02222   -973.00185    136.10828     4275.342   -2253.2704    17.970864    21.167303    21.924411           90           90           90 
 1993500    277.97821   -126.43394   -95.425057   -126.43394            0    409.13702    18.036444    21.244548    22.004419            0            0            0    8431.5675    1072.7612    2761.3797   -2606.7298   -911.02958    409.37692    266.20024    18.036444    21.244548    22.004419           90           90           90 
 1994000    265.35593   -125.21895   -95.618097   -125.21895            0   -1269.7655    18.105034    21.325338    22.088099            0            0            0    8528.1258   -168.48756    -2756.839   -883.96986   -1273.8846    75.005895    524.36233    18.105034    21.325338    22.088099           90           90           90 
 1994500     260.1298   -124.86303    -95.84516   -124.86303            0   -1502.7807    18.069397    21.283362    22.044622            0            0            0    8477.8658   -3157.4372   -1006.5488   -344.35617   -2228.5434   -313.05404    895.10328    18.069397    21.283362    22.044622           90           90           90 
 1995000    273.84757   -126.45267    -95.90456   -126.45267            0    391.59051     18.06336    21.276251    22.037257            0            0            0    8469.3715    364.64347   -2174.1312    2984.2593    2283.9288    1698.2522    203.30765     18.06336    21.276251    22.037257           90           90           90 
 1995500     260.5378   -125.27094   -96.207557   -125.27094            0   -3366.5113    18.087548    21.304742    22.066766            0            0            0    8503.4402   -3548.0316   -3774.8572   -2776.6449    177.17382    1718.2877    161.06772    18.087548    21.304742    22.066766           90           90           90 
 1996000    275.95941   -126.15917   -95.375481   -126.15917            0    2490.9012     17.99319    21.193601     21.95165            0            0            0     8371.053    3990.8236    1845.4281    1636.4519    1127.4374    2470.4406    1049.4687     17.99319    21.193601     21.95165           90           90           90 
 1996500    279.92365   -126.09067   -94.864765   -126.09067            0   -1128.8558    18.074461    21.289327      22.0508            0            0            0    8484.9963     151.4198   -1196.6139   -2341.3733    -388.9952    1185.7654    2206.0497    18.074461    21.289327      22.0508           90           90           90 
 1997000    268.94014   -125.12818   -95.127499   -125.12818            0   -188.26107    18.094155    21.312523    22.074826            0            0            0    8512.7614   -2238.9167    6125.8781   -4451.7446    774.20333    2607.5989   -386.19141    18.094155    21.312523    22.074826           90           90           90 
 1997500    272.63334   -124.79309   -94.380433   -124.79309            0    3081.4319    18.061644     21.27423    22.035163            0            0            0    8466.9581    1532.6764    5315.8818    2395.7374    380.95482    2101.7208   -1018.4117    18.061644     21.27423    22.035163           90           90           90 
 1998000    268.26465   -125.61854   -95.693218   -125.61854            0   -1762.9724    18.121799    21.345085    22.108552            0            0            0    8551.8385   -783.54946   -3922.7612   -582.60645   -2818.5259    372.57647    2228.5496    18.121799    21.345085    22.108552           90           90           90 
 1998500     276.1712   -125.84992   -95.042602   -125.84992            0    2848.9452    18.194719    21.430975    22.197515            0            0            0    8655.4897    1913.1573    4267.7159    2365.9623    654.23306   -2058.4233    2039.7583    18.194719    21.430975    22.197515           90           90           90 
 1999000    274.13349   -126.64881    -96.06881   -126.64881            0   -4595.7774    18.189473    21.424795    22.191114            0            0            0    8648.0041   -2610.6565   -7622.1718    -3554.504   -286.28185    1860.0837     3198.398    18.189473    21.424795    22.191114           90           90           90 
 1999500    279.15598   -126.14508   -95.004809   -126.14508            0    1487.4926    18.037972    21.246348    22.006284            0            0            0     8433.711     1387.585    427.18692    2647.7058    2052.2007   -1115.1582   -1195.6326    18.037972    21.246348    22.006284           90           90           90 
 2000000    279.36171   -125.93944    -94.77622   -125.93944            0   -431.59281    18.046121    21.255946    22.016225            0            0            0     8445.146   -2106.1581   -464.51682    1275.8965    249.35704    1517.7851   -2655.7846    18.046121    21.255946    22.016225           90           90           90 
Loop time of 10822 on 1 procs for 2000000 steps with 864 atoms

Performance: 7.984 ns/day, 3.006 hours/ns, 184.809 timesteps/s
74.0% CPU use with 1 MPI tasks x 1 OpenMP threads

MPI task timing breakdown:
Section |  min time  |  avg time  |  max time  |%varavg| %total
---------------------------------------------------------------
Pair    | 9400.4     | 9400.4     | 9400.4     |   0.0 | 86.86
Bond    | 0.31535    | 0.31535    | 0.31535    |   0.0 |  0.00
Neigh   | 1280.4     | 1280.4     | 1280.4     |   0.0 | 11.83
Comm    | 44.025     | 44.025     | 44.025     |   0.0 |  0.41
Output  | 25.576     | 25.576     | 25.576     |   0.0 |  0.24
Modify  | 62.831     | 62.831     | 62.831     |   0.0 |  0.58
Other   |            | 8.46       |            |       |  0.08

Nlocal:        864.000 ave         864 max         864 min
Histogram: 1 0 0 0 0 0 0 0 0 0
Nghost:        4098.00 ave        4098 max        4098 min
Histogram: 1 0 0 0 0 0 0 0 0 0
Neighs:         0.00000 ave           0 max           0 min
Histogram: 1 0 0 0 0 0 0 0 0 0
FullNghs:      189316.0 ave      189316 max      189316 min
Histogram: 1 0 0 0 0 0 0 0 0 0

Total # of neighbors = 189316
Ave neighs/atom = 219.11574
Ave special neighs/atom = 0.0000000
Neighbor list builds = 200000
Dangerous builds not checked

unfix		3
unfix		2

write_data	data.final.${pid}
write_data	data.final.0
System init for write_data ...

write_restart   restart.lmp.${pid}
write_restart   restart.lmp.0
System init for write_restart ...
Unloading pair style deepmd
Unloading compute style deepmd
Unloading fix style deepmd
Total wall time: 3:02:24
