LAMMPS data file via write_data, version 23 Jun 2022, timestep = 1000000

1296 atoms
2 atom types

-0.09228218835689361 31.212281188357572 xlo xhi
0.1243669511930694 21.344267048808774 ylo yhi
-0.01718632315123081 16.411359323150393 zlo zhi
-9.13713459256467 -9.333913822190219 -14.06889907690494 xy xz yz

Masses

1 1.008
2 15.999

Atoms # full

1 0 1 0 -0.6517766631867645 -3.618091114580928 4.767679711706518 0 0 0
2 0 2 0 -0.4028043758278499 -3.1030086166171102 5.5851187105124875 0 0 0
3 0 2 0 -1.438789372870938 -3.104669828305029 4.4060064362345015 0 0 0
4 0 1 0 0.4888967866021321 3.9970140172825492 1.8653004576711554 0 0 0
5 0 2 0 -0.31151012360896324 3.472778171933397 2.1676327699291065 0 0 0
6 0 2 0 0.11759248264985644 4.734375843346543 1.399885344634388 0 0 0
7 0 1 0 5.705220124638106 2.0424704666395224 0.15900152174369422 0 0 0
8 0 2 0 5.4822324356371706 1.0844195606061853 0.15390302974697334 0 0 0
9 0 2 0 5.752980837364094 2.151007088764869 1.1369222733405735 0 0 0
10 0 1 0 -1.2631732780000249 -0.08342777707644933 4.092254282280776 0 0 0
11 0 2 0 -1.8803417316592532 -0.7795450444046099 3.808682679218068 0 0 0
12 0 2 0 -0.36015414200124596 -0.4286067228978463 3.9820488601583333 0 0 0
13 0 1 0 -3.4059623204343636 4.891756525024316 1.3383210500328542 0 0 0
14 0 2 0 -2.9974463580689923 4.937972250002746 2.216805669861052 0 0 0
15 0 2 0 -2.7895532019646545 5.315030667325904 0.6961150383418978 0 0 0
16 0 1 0 3.4115134377431815 0.1615173175960707 2.7480346667394495 0 0 0
17 0 2 0 3.284680750124295 1.0593164147070628 2.38756662065154 0 0 0
18 0 2 0 3.9690930211685007 -0.3276928046839185 2.1499324789441294 0 0 0
19 0 1 0 1.893330919375399 6.2931045031356465 0.7893301408699223 0 0 0
20 0 2 0 2.8314848009735867 5.966521855071157 0.9657628567401183 0 0 0
21 0 2 0 1.523803471563841 5.876255538662339 -0.00261862083476503 0 0 0
22 0 1 0 1.1636844526577321 -1.2999101004273723 3.734438543052198 0 0 0
23 0 2 0 1.8876859266619623 -0.6915476931937903 3.388595798790266 0 0 0
24 0 2 0 1.5624456252967773 -1.8082296680406982 4.438988920171091 0 0 0
25 0 1 0 -4.057646949477791 0.6351745161894131 5.155223486365043 0 0 0
26 0 2 0 27.030441865615256 0.4417836167354725 4.224665416206791 -1 0 0
27 0 2 0 -3.6949904198586117 1.5406211435428245 5.097553166621263 0 0 0
28 0 1 0 2.7808741066035103 2.5134415958009733 1.4703324949703862 0 0 0
29 0 2 0 3.425764302617293 3.2608043165479006 1.434399228048791 0 0 0
30 0 2 0 1.8949860253660562 2.979815223473465 1.4694725011259218 0 0 0
31 0 1 0 4.677755471020028 -2.261143116044662 3.953740268275017 0 0 0
32 0 2 0 4.007576659988994 -2.491992282898874 4.618977403375893 0 0 0
33 0 2 0 4.212553150546622 -2.4413944869277993 3.128712208837803 0 0 0
34 0 1 0 -1.5105574922377056 2.4840096037371096 2.900307097554733 0 0 0
35 0 2 0 -1.181220747550957 1.589882249700529 3.157351767488829 0 0 0
36 0 2 0 -2.2113641133252075 2.742938999018082 3.4568731348557398 0 0 0
37 0 1 0 7.244516774254066 -3.4113238987148247 4.533970995062332 0 0 0
38 0 2 0 7.125859560702839 -2.788934147271176 5.266114471371701 0 0 0
39 0 2 0 6.367109170303561 -3.3589900865908517 4.220093183865781 0 0 0
40 0 1 0 8.058604313837682 3.8014825930807508 1.9703005734124703 0 0 0
41 0 2 0 7.244998124838663 3.448681087313769 2.344558161025429 0 0 0
42 0 2 0 7.853981678819839 4.359840568010987 1.255144511871811 0 0 0
43 0 1 0 4.0396578437396595 -12.122350067023882 16.39026578151997 0 0 -1
44 0 2 0 4.290006018621105 -13.08248062719702 16.37931474457369 0 0 -1
45 0 2 0 13.4328078171307 2.102250804372276 0.9310424603466897 0 0 0
46 0 1 0 6.415074086660888 -0.08770604745335975 4.038248525624983 0 0 0
47 0 2 0 5.821978861367014 -0.8521668518134571 4.177282876796615 0 0 0
48 0 2 0 7.30260612892026 -0.4365525201249434 3.886574956161127 0 0 0
49 0 1 0 4.2261941256684725 4.8719846594445295 1.328274347065216 0 0 0
50 0 2 0 4.5785047539412504 5.151723119417595 2.172144240710528 0 0 0
51 0 2 0 4.988918359216776 4.889488179107188 0.7457961765881466 0 0 0
52 0 1 0 11.437301689492926 0.09964800020164466 2.4643835139956978 0 0 0
53 0 2 0 11.312902387771038 0.9657426011308992 2.0927449463955337 0 0 0
54 0 2 0 12.197509311859903 -0.411281844773451 2.0436569864382017 0 0 0
55 0 1 0 9.835903077255418 6.059829402555421 0.9144173018625998 0 0 0
56 0 2 0 10.726257311753121 5.870916839625257 1.2841085708262672 0 0 0
57 0 2 0 9.703265234729548 5.407679493021372 0.19684285489994352 0 0 0
58 0 1 0 9.065602585397118 -1.1745408372142268 3.5275990257044607 0 0 0
59 0 2 0 9.761685985170107 -0.6280659310497443 3.1417787213521504 0 0 0
60 0 2 0 9.517037568689718 -1.7388483885723467 4.135893904685593 0 0 0
61 0 1 0 3.5063815698263054 0.6771413986538217 5.463466859760841 0 0 0
62 0 2 0 3.6926264277214678 0.30533514663568573 4.583566198351419 0 0 0
63 0 2 0 3.541696100645026 1.6533976819432628 5.299492962746013 0 0 0
64 0 1 0 10.74544822919866 2.722622867869092 1.3705627977332966 0 0 0
65 0 2 0 11.386144622212598 3.4476733884073054 1.351727831784391 0 0 0
66 0 2 0 9.870954805867164 3.1270486228866394 1.4653875576533648 0 0 0
67 0 1 0 12.715469738459309 -2.1692085168738844 4.378029996336717 0 0 0
68 0 2 0 12.040975789106904 -2.2866643140839735 5.060212243149957 0 0 0
69 0 2 0 12.255494283055429 -2.2188401237425097 3.526397470872641 0 0 0
70 0 1 0 5.789797327956122 2.434036820933004 2.8081984410452874 0 0 0
71 0 2 0 6.040151750236575 1.5059226260255896 3.1617816390929456 0 0 0
72 0 2 0 5.0598236437530275 2.776517366256006 3.343904196601023 0 0 0
73 0 1 0 15.085084872217603 -3.7328206688446532 4.677050046163546 0 0 0
74 0 2 0 15.306539298174012 -3.1640984869080935 5.405161470965382 0 0 0
75 0 2 0 14.21734439541541 -3.5384879400955165 4.281346582770605 0 0 0
76 0 1 0 15.77781783172058 4.1101628320800945 2.0090495427016304 0 0 0
77 0 2 0 15.019118093139902 3.6361147578111095 2.462954016278743 0 0 0
78 0 2 0 15.492356185830893 4.572954361340082 1.2069015347610643 0 0 0
79 0 1 0 21.68690802634718 2.2566701204743285 0.08411077747603939 0 0 0
80 0 2 0 21.425706278414847 1.3210495206099533 0.19187488002885547 0 0 0
81 0 2 0 21.115979027964368 2.661454723498472 0.7764361764090463 0 0 0
82 0 1 0 14.668889961008363 -0.06310646299594946 4.320806794818708 0 0 0
83 0 2 0 14.084899176317803 -0.8482356056224032 4.229859269555641 0 0 0
84 0 2 0 15.569344463845388 -0.4466234344489588 4.1403154904668895 0 0 0
85 0 1 0 12.349799900532696 4.9251414543201735 1.5616521250160273 0 0 0
86 0 2 0 12.69367442067147 5.261228639899745 2.384074536766094 0 0 0
87 0 2 0 13.0617110643071 4.892267142823347 0.9322438194757107 0 0 0
88 0 1 0 19.02734143297504 0.3761015014443454 2.70546430136931 0 0 0
89 0 2 0 18.94180629025138 1.305842613514986 2.498510773412043 0 0 0
90 0 2 0 19.58070885538317 -0.05091611330993184 2.0276694717985784 0 0 0
91 0 1 0 17.915976730207618 6.527447973608488 0.8194987780776926 0 0 0
92 0 2 0 18.545998556754736 6.035038318272809 1.3627127404389303 0 0 0
93 0 2 0 8.575080103366854 -8.05710543918921 16.408407915609253 0 0 -1
94 0 1 0 17.051058753377063 -1.4572325602953646 3.5134713162245528 0 0 0
95 0 2 0 17.656553061608406 -0.8936707091991265 3.0675839694625835 0 0 0
96 0 2 0 17.58350749713681 -2.071879934541088 4.0460179262418725 0 0 0
97 0 1 0 11.299516727308418 0.8481180828791413 5.234047958010795 0 0 0
98 0 2 0 11.421394466957036 0.622958300344457 4.3048471492919855 0 0 0
99 0 2 0 11.521767072428997 1.7861138181833995 5.289758888648447 0 0 0
100 0 1 0 18.085510867253593 2.71809505623732 1.5294019059394635 0 0 0
101 0 2 0 18.639673928443422 3.4913323226657322 1.3475248560119628 0 0 0
102 0 2 0 17.15776066006741 3.08272754914083 1.5368712189216545 0 0 0
103 0 1 0 20.397963670592688 -2.1353052352092665 3.846677300912285 0 0 0
104 0 2 0 19.776012463133544 -2.4395337727555533 4.506429367064147 0 0 0
105 0 2 0 19.98181425006984 -2.3217144884755085 2.996097769775283 0 0 0
106 0 1 0 13.741356640864373 2.4866149156719657 2.8053959245301296 0 0 0
107 0 2 0 13.578933180504404 1.5264585622462827 2.95452906690814 0 0 0
108 0 2 0 13.067146595562583 2.7342093009583763 3.480160870042718 0 0 0
109 0 1 0 13.439760519781988 17.450569483082155 4.338081076061011 0 -1 0
110 0 2 0 23.00363792517246 -3.320523180474857 5.069925605098526 0 0 0
111 0 2 0 21.81766093952262 -3.1808707358046187 4.218863612850829 0 0 0
112 0 1 0 23.581054841173227 4.192511443768196 1.814009631731774 0 0 0
113 0 2 0 22.85397794628204 3.5837975188591544 2.1228633810160753 0 0 0
114 0 2 0 23.155885094369587 4.924265552629856 1.3231344490089836 0 0 0
115 0 1 0 29.160498492419634 2.14836112935399 0.26194332843007634 0 0 0
116 0 2 0 28.894422879352597 1.1703182256343339 0.18874169589413684 0 0 0
117 0 2 0 -2.0557359461386007 2.2729395664106153 1.242016198828034 1 0 0
118 0 1 0 22.465396058609063 0.02688784425842483 4.002563511616213 0 0 0
119 0 2 0 21.913385674747598 -0.733483749178856 4.1468946143065395 0 0 0
120 0 2 0 23.344052282518454 -0.31629530995443966 4.136608783324757 0 0 0
121 0 1 0 19.973190157744554 4.7297778875792815 1.3803876551704537 0 0 0
122 0 2 0 20.326602498969564 4.841523070731161 2.2926952028133414 0 0 0
123 0 2 0 20.70985731109604 5.07027897737685 0.8075673912986542 0 0 0
124 0 1 0 26.682012830517632 0.14366762894625618 2.487115201396001 0 0 0
125 0 2 0 26.525932023049222 1.0232686132989885 2.0714436970058117 0 0 0
126 0 2 0 27.34701148771592 -0.30569568344643283 1.8881047910226072 0 0 0
127 0 1 0 25.7785247061997 6.640553854202666 0.9478684041496405 0 0 0
128 0 2 0 26.51328878756925 6.0871753701313835 1.294972290314121 0 0 0
129 0 2 0 25.505025807714553 6.071474884432407 0.24803287677965963 0 0 0
130 0 1 0 24.7674719250297 -1.3977131963941405 3.761088772864494 0 0 0
131 0 2 0 25.425620678589663 -0.9685413578156163 3.215984420182352 0 0 0
132 0 2 0 25.136193527230567 -1.9183022058008987 4.458326469814877 0 0 0
133 0 1 0 19.603916189477655 0.5299517238965832 5.335733506344091 0 0 0
134 0 2 0 19.53059041826643 0.11415218854188591 4.448881301460618 0 0 0
135 0 2 0 19.640303135461455 1.4392010141542126 4.997353226506863 0 0 0
136 0 1 0 26.121950466302174 2.6420844051986823 1.184118541845492 0 0 0
137 0 2 0 26.85205827610819 3.2913157406431015 1.1530441287464288 0 0 0
138 0 2 0 25.35657283114122 3.186735580234936 1.1323749970816985 0 0 0
139 0 1 0 28.403389611598957 -2.3201515319106445 3.7581926167598825 0 0 0
140 0 2 0 27.77070403936118 -2.2594520780956886 4.504304037558974 0 0 0
141 0 2 0 18.760732581205453 18.655921195090116 3.0020689340451425 0 -1 0
142 0 1 0 21.60044022356837 2.4721358239107905 3.0449321515783896 0 0 0
143 0 2 0 21.794960495391685 1.5686800283102915 3.3559790748322036 0 0 0
144 0 2 0 20.97073054584218 2.802662027424073 3.675296654418517 0 0 0
145 0 1 0 -3.5793323055106656 3.346838468463758 4.439394950603567 0 0 0
146 0 2 0 -3.3250685137829263 3.9415550998860205 5.181837297062536 0 0 0
147 0 2 0 -4.46035314359406 3.6598649890245203 4.075302742153369 0 0 0
148 0 1 0 -2.875330933948627 11.156335346108179 1.9049586853204705 0 0 0
149 0 2 0 -3.5177035010053155 10.56383454755338 2.3331436497535765 0 0 0
150 0 2 0 -3.398523423702026 11.561926867429875 1.2160370252233355 0 0 0
151 0 1 0 2.272275065730922 8.966602290138598 0.026657351726022106 0 0 0
152 0 2 0 1.9043101449384614 8.054626200569292 0.027742284368582733 0 0 0
153 0 2 0 2.3148526293113885 9.122523523684103 0.9805636054628516 0 0 0
154 0 1 0 -4.387359084068995 6.999741887632556 3.7383614730513446 0 0 0
155 0 2 0 -4.98312174334279 6.219696837152363 3.67852938877539 0 0 0
156 0 2 0 -3.476523610787216 6.696989647917922 3.7564958788417853 0 0 0
157 0 1 0 24.794786328669616 12.06069796776204 1.2968741187816368 -1 0 0
158 0 2 0 -5.8322825518962915 12.08190628521532 1.9815557396941121 0 0 0
159 0 2 0 25.354434985058422 12.076484344541338 0.49806216858205643 -1 0 0
160 0 1 0 0.14170700299610584 7.28936225886515 2.6163673916605137 0 0 0
161 0 2 0 -0.028056147026759293 8.161141907583259 2.2360149377304546 0 0 0
162 0 2 0 0.6490170031255531 6.871923503762181 1.938239861315865 0 0 0
163 0 1 0 -0.5448263370388773 13.693986756013466 0.6913804799710986 0 0 0
164 0 2 0 0.07611264930330086 13.235622468632881 1.2461029605455456 0 0 0
165 0 2 0 -0.9615782784227873 13.035108318101313 0.15728733282959373 0 0 0
166 0 1 0 -1.9772199401063384 5.899777661718664 3.5358212722605944 0 0 0
167 0 2 0 -1.2364499796377277 6.331074562074097 3.0287983166521184 0 0 0
168 0 2 0 -1.5293765001658728 5.4268341352949365 4.239458397358264 0 0 0
169 0 1 0 -7.288027317727343 7.775305745013586 5.206547708520081 0 0 0
170 0 2 0 24.00063315344147 7.693548755315421 4.199998979358155 -1 0 0
171 0 2 0 -7.127431139235242 8.763167619552243 5.315567019858523 0 0 0
172 0 1 0 -0.47780258567071243 9.711756342275455 1.2543331551898544 0 0 0
173 0 2 0 0.23158045180175912 10.374896411414996 1.4150227227933412 0 0 0
174 0 2 0 -1.2769191055370825 10.241683291994052 1.2987416078918617 0 0 0
175 0 1 0 1.745798785659325 4.77368957185328 4.20337769415898 0 0 0
176 0 2 0 0.9282945942289142 4.607569325963037 4.713262705800043 0 0 0
177 0 2 0 1.3656355778394038 4.742824240686524 3.3300810880583795 0 0 0
178 0 1 0 -4.949973247828703 9.32373704287258 2.6779620934718658 0 0 0
179 0 2 0 -4.655114729747539 8.410016114086774 2.8403115418979192 0 0 0
180 0 2 0 -5.717610648452441 9.567380396845026 3.1896790365959475 0 0 0
181 0 1 0 3.858617471839388 3.145746951548324 4.636883668355083 0 0 0
182 0 2 0 4.269425850482916 3.6755262580827033 5.3277983738374335 0 0 0
183 0 2 0 3.026805510147221 3.610556671273127 4.393683716331196 0 0 0
184 0 1 0 4.720124845679461 10.77686441147559 1.9107643293395205 0 0 0
185 0 2 0 4.0637867954137725 10.171044024759468 2.384361499159379 0 0 0
186 0 2 0 4.15327462409027 11.335492155855006 1.3481827479310635 0 0 0
187 0 1 0 10.455562776775862 8.77259959968865 0.20309203986621555 0 0 0
188 0 2 0 10.149656050134466 7.8766348151043175 0.1655535327067845 0 0 0
189 0 2 0 10.517046347449485 9.035791854252734 1.1304952245437363 0 0 0
190 0 1 0 3.595844118157098 6.606970881368193 3.6664296879396185 0 0 0
191 0 2 0 2.982156885168938 5.9418735565150165 4.013256545464192 0 0 0
192 0 2 0 4.535594057062105 6.297574839573775 3.706042394996652 0 0 0
193 0 1 0 1.4199868779792943 11.563491071100398 1.5976675331410954 0 0 0
194 0 2 0 1.8458850497101045 11.876633549650048 2.4357552442066006 0 0 0
195 0 2 0 2.089833184313904 11.875098250792371 0.9645997160015755 0 0 0
196 0 1 0 8.016808996133607 7.408083204143151 2.7352598691662457 0 0 0
197 0 2 0 7.74275025797653 8.318806631912924 2.500679849399862 0 0 0
198 0 2 0 8.744646141294115 7.14376104266026 2.2311138299220543 0 0 0
199 0 1 0 6.636696291823935 13.017080091487307 0.7675722139739265 0 0 0
200 0 2 0 7.377445906006956 12.647417209520967 1.2948440954173996 0 0 0
201 0 2 0 6.456135972797989 12.401413997977766 0.04434410525010156 0 0 0
202 0 1 0 6.130529263404062 5.572136869236334 3.599489633879001 0 0 0
203 0 2 0 6.800511088573888 6.109848510560727 3.171743338667479 0 0 0
204 0 2 0 6.6019781374658475 5.033096211785662 4.297250473853672 0 0 0
205 0 1 0 0.7558922692413064 7.737816156310907 5.308238406319211 0 0 0
206 0 2 0 0.626338688340426 7.462768475346648 4.3951280123812735 0 0 0
207 0 2 0 0.7304173646987344 8.710489716176761 5.172255639728218 0 0 0
208 0 1 0 7.230456124266884 9.753683422923304 1.3366821672328937 0 0 0
209 0 2 0 7.946707578343858 10.369037989992266 1.432184510228771 0 0 0
210 0 2 0 6.330476359606667 10.138892776797704 1.441171439155649 0 0 0
211 0 1 0 9.65785271804716 4.910179848032655 3.9476366891854466 0 0 0
212 0 2 0 9.208809880602857 4.819184961227621 4.787770528094891 0 0 0
213 0 2 0 9.053640986221904 4.545420346539636 3.2767525118941094 0 0 0
214 0 1 0 2.792090445702323 9.06546338509999 2.9053202909222526 0 0 0
215 0 2 0 2.836220032286456 8.16667540025257 3.198697402604741 0 0 0
216 0 2 0 2.129059756054414 9.487512541256537 3.504166673089735 0 0 0
217 0 1 0 11.972886129030522 3.458001928921515 4.7869921114813465 0 0 0
218 0 2 0 12.324026715987475 4.053468276248846 5.432187831811733 0 0 0
219 0 2 0 11.171838209836517 3.889898199458367 4.38656853826807 0 0 0
220 0 1 0 12.762006922812011 10.718509646842165 1.585980555848197 0 0 0
221 0 2 0 12.092906326988395 10.223608739218891 2.079885931897317 0 0 0
222 0 2 0 12.199763329625425 11.328763924998501 1.0147901990701063 0 0 0
223 0 1 0 18.191686481488127 9.216926323269588 0.34487207754763266 0 0 0
224 0 2 0 18.18259706702274 8.228858414219422 0.44445241884442377 0 0 0
225 0 2 0 18.050072164414125 9.664710792536184 1.1953587415526055 0 0 0
226 0 1 0 11.367582930814644 7.2187999656046316 4.137902690520327 0 0 0
227 0 2 0 10.901919768905033 6.359809717301681 4.128750554399204 0 0 0
228 0 2 0 12.246122097071583 6.932544128195143 3.8841898607103458 0 0 0
229 0 1 0 8.963922941297733 11.86353750306085 1.463290467836205 0 0 0
230 0 2 0 9.513496356119203 12.1022693976643 2.2791762373135844 0 0 0
231 0 2 0 9.637599510149172 11.814527026867612 0.7455491002379057 0 0 0
232 0 1 0 15.883117404064263 7.4553003649331675 2.961609553478782 0 0 0
233 0 2 0 15.597967691683634 8.28121081974754 2.515080225385564 0 0 0
234 0 2 0 16.558461261624636 7.0453351364321914 2.4054255704634495 0 0 0
235 0 1 0 14.57534083045612 13.243180153537999 0.9147051100099066 0 0 0
236 0 2 0 15.505367053081288 13.049967194395785 1.1150270118893137 0 0 0
237 0 2 0 14.464386346491354 12.584796372897864 0.20551925478129673 0 0 0
238 0 1 0 13.645929370441085 5.759080225990827 3.7493361079363536 0 0 0
239 0 2 0 14.43382186284041 6.204443416238535 3.4767595535426286 0 0 0
240 0 2 0 13.841657927913536 5.442239882831963 4.624622181928036 0 0 0
241 0 1 0 8.38056579403937 8.032002018943384 5.317788361328949 0 0 0
242 0 2 0 8.36963895996437 7.7013551228345545 4.387828969247092 0 0 0
243 0 2 0 8.515435266353911 8.994171880141428 5.230103180838598 0 0 0
244 0 1 0 15.483087803137602 9.772027313527799 1.5166618490862558 0 0 0
245 0 2 0 16.120170644386533 10.455514745578967 1.2900767823226167 0 0 0
246 0 2 0 14.580620701672258 10.174639054440465 1.5096248669848324 0 0 0
247 0 1 0 17.588685562472 4.937195617473827 3.886433157535983 0 0 0
248 0 2 0 16.943183954003032 4.725648505241612 4.558045067336197 0 0 0
249 0 2 0 17.12632642767853 4.8795799779994 3.058856497473251 0 0 0
250 0 1 0 10.805396609923653 9.292581593821609 2.905398409517446 0 0 0
251 0 2 0 10.996568241233987 8.514467579341035 3.4178586997519957 0 0 0
252 0 2 0 10.190490053759206 9.878195068068555 3.2984787305769747 0 0 0
253 0 1 0 19.586253897816594 3.214314448127139 4.772983381226654 0 0 0
254 0 2 0 19.77533835194537 3.7761316271805985 5.53623674859839 0 0 0
255 0 2 0 18.854779588128434 3.6352722471161654 4.256619630204197 0 0 0
256 0 1 0 20.801957306185813 11.314341259684008 1.5987839888596143 0 0 0
257 0 2 0 19.94442988688568 10.875160667975866 1.9223877704917767 0 0 0
258 0 2 0 20.473629621538926 12.088920233828567 1.0534871114718891 0 0 0
259 0 1 0 26.083005587697315 9.160849845727604 -0.0019365983589286987 0 0 0
260 0 2 0 25.971692762878085 8.17019997154197 -0.004293843362375302 0 0 0
261 0 2 0 26.20839015345007 9.266657079148112 0.9402697248938614 0 0 0
262 0 1 0 19.279026376411323 7.252717382789703 4.115880511442421 0 0 0
263 0 2 0 18.64978160711085 6.5214434366888945 4.177624276009424 0 0 0
264 0 2 0 20.125643957349634 6.829156511729856 3.874031562457508 0 0 0
265 0 1 0 17.30001364559478 12.170520117063845 1.2061063910896974 0 0 0
266 0 2 0 17.820808531425232 12.288114815077657 2.0430153902760226 0 0 0
267 0 2 0 17.882839938690292 12.464016719398762 0.5079442186933312 0 0 0
268 0 1 0 23.55887508907149 7.426951936421539 2.5516781474907613 0 0 0
269 0 2 0 23.23125433852946 8.242180610537181 2.232110590542703 0 0 0
270 0 2 0 24.323489704141256 7.103921861962645 2.037588789006077 0 0 0
271 0 1 0 22.539854084767942 13.497343718754541 0.6056101120284516 0 0 0
272 0 2 0 23.428966507174728 13.187885612345868 1.0064403679873988 0 0 0
273 0 2 0 13.059090930800103 -1.0154189514514158 16.208479673919605 0 0 -1
274 0 1 0 21.5123567960115 5.910553148249525 3.4189529995329684 0 0 0
275 0 2 0 22.200515871948003 6.467599129409623 2.9650207723490176 0 0 0
276 0 2 0 21.978713337179872 5.330258290641826 4.063471711572202 0 0 0
277 0 1 0 16.790562251233993 7.800237656488717 5.5308577953392595 0 0 0
278 0 2 0 16.453358925904446 7.478411268375966 4.6918533223896555 0 0 0
279 0 2 0 16.84061919308855 8.731601330231507 5.408460457300089 0 0 0
280 0 1 0 22.96990339929992 9.753369225453175 1.318322686151219 0 0 0
281 0 2 0 23.618549885169397 10.4838796458626 1.260389128390228 0 0 0
282 0 2 0 22.065019585100952 10.155235389695376 1.5113687117464278 0 0 0
283 0 1 0 25.282771737766975 4.833195736119222 3.8138349715589577 0 0 0
284 0 2 0 -6.377413821756234 4.85436685582666 4.713404284229488 1 0 0
285 0 2 0 24.554502756783943 4.643370962379603 3.221337808238148 0 0 0
286 0 1 0 18.616593171979666 9.907943800448178 3.0118963832485224 0 0 0
287 0 2 0 18.755287391714514 8.980482821024598 3.123786803771689 0 0 0
288 0 2 0 17.739308729548284 10.124111724499011 3.4517820708879183 0 0 0
289 0 1 0 -6.564113034065602 10.81453806400432 4.464327074567655 0 0 0
290 0 2 0 -6.151823850765914 11.303200530517953 5.218215602894228 0 0 0
291 0 2 0 -7.444784228948388 11.24226214420762 4.278517160349873 0 0 0
292 0 1 0 -5.834875636789375 18.047154400605812 1.7147402569109174 0 0 0
293 0 2 0 -6.557894721172305 17.560803116763296 2.132192827710726 0 0 0
294 0 2 0 -6.363702745109358 18.72327359048181 1.2097489328944582 0 0 0
295 0 1 0 -0.17929219637094734 16.473806409434268 0.16822386951913024 0 0 0
296 0 2 0 -0.17122500028079146 15.483371724675385 0.29943455941187896 0 0 0
297 0 2 0 -0.14578232804356706 16.772597856162342 1.072021691886618 0 0 0
298 0 1 0 -7.200732500522899 14.175599727442963 4.133851784886655 0 0 0
299 0 2 0 -8.016111500605026 13.631589047407008 4.038775690096376 0 0 0
300 0 2 0 -6.428634443124755 13.687760384906097 3.744462069261475 0 0 0
301 0 1 0 -9.617509519799695 18.97907249119688 1.5574798661515075 0 0 0
302 0 2 0 -9.143761569763125 19.20168692989123 2.4107133736521513 0 0 0
303 0 2 0 -9.07967452088953 19.324638803917686 0.8580018466744963 0 0 0
304 0 1 0 -2.642299432842736 14.533251563834085 2.5932002272027463 0 0 0
305 0 2 0 -2.941913764400087 15.400479742668047 2.3597695813681185 0 0 0
306 0 2 0 -2.3171593881552583 14.18612406431435 1.709745668204565 0 0 0
307 0 1 0 -3.9823358325125584 20.458498795537103 0.7011449739536906 0 0 0
308 0 2 0 -3.1636796921249175 20.05620092757465 1.0233771792664728 0 0 0
309 0 2 0 -4.356319228389445 19.784515157059737 0.05201532956616889 0 0 0
310 0 1 0 -4.691045933160968 12.941191813950345 3.438293988244904 0 0 0
311 0 2 0 -3.9125384281785873 13.577331509330094 3.3213681634994106 0 0 0
312 0 2 0 -4.342694773237687 12.470852773206156 4.202841471761158 0 0 0
313 0 1 0 -10.363753090936164 14.693627972410813 5.029117847040785 0 0 0
314 0 2 0 20.94971637605253 14.585583082265309 4.017771083681672 -1 0 0
315 0 2 0 -9.913038978454678 15.589682210435234 5.120390721195087 0 0 0
316 0 1 0 -3.312387102066071 16.98149901877558 1.6529795516758767 0 0 0
317 0 2 0 -2.8576889432486334 17.836828840820957 1.612618021707694 0 0 0
318 0 2 0 -4.249300622715657 17.126365236411722 1.420642278057677 0 0 0
319 0 1 0 -1.1692925734032764 11.937287532675025 3.9474574607195465 0 0 0
320 0 2 0 -1.7390554114679797 11.597403087044023 4.640279513805108 0 0 0
321 0 2 0 -1.705350860299791 11.746380220087127 3.198336304545727 0 0 0
322 0 1 0 -7.751311284882562 16.58075989363953 3.000301090970749 0 0 0
323 0 2 0 -7.499093903342889 15.801041321681954 3.4992129834277836 0 0 0
324 0 2 0 -8.449636906687136 17.023206398651354 3.497951704763187 0 0 0
325 0 1 0 1.1518841601632581 10.422728431268188 4.650719875316238 0 0 0
326 0 2 0 1.4872201034757064 10.943458100883275 5.4273524372069755 0 0 0
327 0 2 0 0.28703607149902677 10.76007278597457 4.387030783582536 0 0 0
328 0 1 0 2.162638908277766 18.17022206336204 1.855461636314682 0 0 0
329 0 2 0 1.545770140847989 17.542188022580824 2.3014212268789156 0 0 0
330 0 2 0 1.6693494864068494 18.56427114261892 1.1027548377874044 0 0 0
331 0 1 0 7.5292373708210825 15.744292648898075 0.005696742047066956 0 0 0
332 0 2 0 7.163288287234215 14.817983271906929 0.058128595012813936 0 0 0
333 0 2 0 7.309918566025719 16.023113999440874 0.9250945375914559 0 0 0
334 0 1 0 0.584325815880089 14.073693604595336 3.867215646897097 0 0 0
335 0 2 0 -0.0927073189854335 13.38715551890129 3.8878283028369878 0 0 0
336 0 2 0 1.4336329039764948 13.570905692198961 3.952389770440023 0 0 0
337 0 1 0 -1.6555308313313768 19.17111982655331 1.4922220900232357 0 0 0
338 0 2 0 7.898749588998667 -1.7436707219853211 2.309871340785284 0 1 0
339 0 2 0 -0.9321968618005537 19.211403890211884 0.8677332029018854 0 0 0
340 0 1 0 4.917519592217443 14.170957889764537 2.409411590182001 0 0 0
341 0 2 0 4.823916276402272 15.090442942704009 2.314455490219174 0 0 0
342 0 2 0 5.554316567047372 13.96689548610306 1.6989657866671477 0 0 0
343 0 1 0 4.197400311660477 20.52937831174379 0.8223225369832923 0 0 0
344 0 2 0 4.9984905616929485 20.039971220489946 1.031277781472013 0 0 0
345 0 2 0 3.7140046068260246 19.9512628218501 0.2287012512712175 0 0 0
346 0 1 0 3.0435944998918223 12.581331785362808 3.6624883047845134 0 0 0
347 0 2 0 3.8199080128903717 12.886621329780583 3.2410948492170424 0 0 0
348 0 2 0 3.361809982709982 11.963162946117416 4.386034061698917 0 0 0
349 0 1 0 -2.2696429328781194 15.154013917270728 5.281009740475653 0 0 0
350 0 2 0 -1.9873085926114635 14.832279992974213 4.406518312821747 0 0 0
351 0 2 0 -2.11134869114978 16.143094242972786 5.251093815269422 0 0 0
352 0 1 0 4.6255275545684045 16.982899441584472 1.6728005438440292 0 0 0
353 0 2 0 5.3201000409668815 17.587216836523623 1.4055386363803999 0 0 0
354 0 2 0 3.7933113372550427 17.376184249114267 1.5327954518445248 0 0 0
355 0 1 0 6.3728346934522895 11.768872049960896 3.8997571064635985 0 0 0
356 0 2 0 5.794209140426305 11.49704315427687 4.621580836350356 0 0 0
357 0 2 0 5.940312874637508 11.249162409339688 3.2090553603177514 0 0 0
358 0 1 0 0.14072895237052996 16.896322825139656 2.890471468819427 0 0 0
359 0 2 0 0.2544961683298601 15.976935196586114 3.214051895064369 0 0 0
360 0 2 0 -0.6025335637420524 17.28800924479534 3.4105558720737292 0 0 0
361 0 1 0 8.872373989331312 10.619030216277476 4.58300612309594 0 0 0
362 0 2 0 9.07791180762466 11.088841068047348 5.397344391791696 0 0 0
363 0 2 0 8.057065887449944 10.972493385029347 4.290787483533255 0 0 0
364 0 1 0 9.807595333588203 18.234857450389796 1.621491221343792 0 0 0
365 0 2 0 9.014559808834074 17.741647486710356 2.0188753981818857 0 0 0
366 0 2 0 9.680308344146315 18.619655738255553 0.7302972034741053 0 0 0
367 0 1 0 6.049314227952772 1.670266211106851 16.31493656612161 0 0 -1
368 0 2 0 5.628947823351018 0.8100902556353802 16.2722463570772 0 0 -1
369 0 2 0 15.379392957565607 15.87881805462823 0.8665026453088946 0 0 0
370 0 1 0 8.129738785310256 13.931173186756913 3.7321227170364346 0 0 0
371 0 2 0 7.402474527346744 13.296938031676165 3.8128659622980394 0 0 0
372 0 2 0 8.932728295060754 13.49989914638382 3.940127040878367 0 0 0
373 0 1 0 6.4713090343226725 19.150337946833922 1.1390180404595547 0 0 0
374 0 2 0 6.910181543035903 19.32680736146014 2.002998452766851 0 0 0
375 0 2 0 7.136857761390351 19.157329989364307 0.4818126444184572 0 0 0
376 0 1 0 12.579843900269259 14.323829693086745 2.574933679810019 0 0 0
377 0 2 0 12.41551233051412 15.220196357692949 2.2785856207300004 0 0 0
378 0 2 0 13.399955830474712 14.04591043666091 2.149951145769897 0 0 0
379 0 1 0 20.945904597201856 -0.5183310488279143 0.9615598305433758 0 1 0
380 0 2 0 21.85434483548914 -0.854164587495387 1.1741497300036632 0 1 0
381 0 2 0 11.586742332107917 20.147136111842812 0.1784038043601321 0 0 0
382 0 1 0 10.663685060927788 12.863880081026378 3.7016262179526276 0 0 0
383 0 2 0 11.245084863919542 13.558170082801054 3.257583662754947 0 0 0
384 0 2 0 11.193661739000593 12.456993960890212 4.424973675167092 0 0 0
385 0 1 0 5.6193032070684215 14.752007042671776 5.335215048486437 0 0 0
386 0 2 0 5.560164439555971 14.346103771634072 4.435237316587668 0 0 0
387 0 2 0 5.781890616675998 15.719527720144251 5.259831348781814 0 0 0
388 0 1 0 12.402141630489076 16.76979075866035 1.3029633020852616 0 0 0
389 0 2 0 13.01193733126447 17.54461964481179 1.3737960546470787 0 0 0
390 0 2 0 11.515848937424646 17.129178868309303 1.354257843447967 0 0 0
391 0 1 0 14.022138725993015 11.600453501668188 3.991563335780259 0 0 0
392 0 2 0 13.398605940598712 11.465847448735152 4.733882266127894 0 0 0
393 0 2 0 13.500577723515763 11.558104722432153 3.1833225630085464 0 0 0
394 0 1 0 7.736162337350799 16.56390177535033 2.7434396959166607 0 0 0
395 0 2 0 7.789897158585472 15.633326730042485 3.143728621967994 0 0 0
396 0 2 0 7.171981423639488 17.079790025417488 3.3008690294409466 0 0 0
397 0 1 0 16.40716523684146 10.408107803186544 4.694136053681747 0 0 0
398 0 2 0 16.59324888746704 10.960308089405382 5.44940306192108 0 0 0
399 0 2 0 15.533069449372913 10.760347542284157 4.234694347112218 0 0 0
400 0 1 0 17.645440540572523 17.847922007162047 1.6067800381170922 0 0 0
401 0 2 0 16.899577091793432 17.399286940882895 2.081866755217433 0 0 0
402 0 2 0 17.27018996940874 18.335489805094888 0.8498421184711009 0 0 0
403 0 1 0 22.76056542136689 16.161563652917515 0.15873458487832487 0 0 0
404 0 2 0 22.653144923116198 15.200958661542458 0.12874405233211977 0 0 0
405 0 2 0 22.98677448010312 16.294713816969335 1.071617267157931 0 0 0
406 0 1 0 15.83660203535952 13.963803104609013 4.194768523767556 0 0 0
407 0 2 0 14.986328586380106 13.456995925287766 4.109233021795156 0 0 0
408 0 2 0 16.552581073214284 13.490287765685737 3.808180845792098 0 0 0
409 0 1 0 14.181323121905555 18.984740052538164 1.380718483011108 0 0 0
410 0 2 0 14.688538117818624 19.32491689659274 2.163474974759024 0 0 0
411 0 2 0 14.779493054763496 19.06004529863241 0.6269891757725172 0 0 0
412 0 1 0 20.68135228612393 14.392989609164585 2.393186415889022 0 0 0
413 0 2 0 20.337606525352523 15.266560936643234 1.937534428940792 0 0 0