LAMMPS data file via write_data, version 23 Jun 2022, timestep = 5900000

2592 atoms
2 atom types

0 31.164278 xlo xhi
0 21.491243 ylo yhi
0 31.685344999999998 zlo zhi
-9.197045 -21.19022 -32.124252 xy xz yz

Masses

1 1.008
2 15.999

Atoms # full

9 0 2 0 13.217146698335222 15.162861010939595 0.12182787967346057 0 0 0
16 0 1 0 -0.25886015677030727 2.3231608717348102 15.647251639220379 0 0 0
17 0 2 0 0.6936879437577801 2.0677413525638872 15.573139195542911 0 0 0
28 0 1 0 7.899041845425025 -3.4565923683323057 16.439386572030067 0 0 0
29 0 2 0 7.843102382601 -2.5214189740457478 16.2354521166305 0 0 0
30 0 2 0 8.571224392232567 -3.880218241330132 15.906493543294186 0 0 0
52 0 1 0 6.522714008347525 10.358297798021763 2.014251255890288 0 0 0
53 0 2 0 6.046188726072937 9.952133826173457 1.277430110561976 0 0 0
61 0 1 0 -1.4814564025453616 11.246040691045526 2.492829863394062 0 0 0
62 0 2 0 -0.7001931845651055 11.725566622351504 2.1966280190666394 0 0 0
63 0 2 0 -2.1098459224973762 11.960320409073846 2.758604266386962 0 0 0
82 0 1 0 21.102935867493684 8.815252768221422 1.1080495031080315 0 0 0
83 0 2 0 21.655366593500283 8.261096663376325 0.5214904757763226 0 0 0
84 0 2 0 21.748965460271663 9.227379577079144 1.727566842352722 0 0 0
149 0 2 0 19.948102454716164 11.458861031027881 1.8728703946211496 0 0 0
150 0 2 0 20.78435725066408 12.787612642490181 2.0622411722079232 0 0 0
178 0 1 0 9.542557607297532 15.683527255787483 0.3623132058863088 0 0 0
179 0 2 0 10.419711065672333 15.519750058870995 0.05358314881375361 0 0 0
180 0 2 0 9.020451049193891 14.871610143037866 0.20049069279606224 0 0 0
193 0 1 0 11.938039401844573 4.838667310098308 1.5976653610135565 0 0 0
194 0 2 0 11.702854287200797 5.5638530791643985 2.214414381556181 0 0 0
195 0 2 0 11.844160121603291 5.304903000672273 0.7736917586656409 0 0 0
205 0 1 0 26.24247668998686 8.373859181683546 1.0561558288667812 -1 0 0
206 0 2 0 -4.331821682987785 7.6859731469537245 1.4004357402906147 0 0 0
207 0 2 0 25.55686718743438 7.8491978260698385 0.6930513749232338 -1 0 0
217 0 1 0 6.015530529888233 3.6667718972829264 0.828742924214564 0 0 0
218 0 2 0 6.693858165449262 4.184371900841765 1.2953586768343233 0 0 0
219 0 2 0 6.356666231750153 2.7534721881085553 0.717804790547475 0 0 0
223 0 1 0 10.642384106348413 8.736209041107822 1.626049026249095 0 0 0
224 0 2 0 10.813670126120286 8.09864971203762 0.8796800398404299 0 0 0
225 0 2 0 9.694261560901971 8.531329837651981 1.9186240438129172 0 0 0
229 0 1 0 13.274282903255981 -10.03537310697256 15.171175297598797 0 0 0
230 0 2 0 13.410859069069705 -9.10039344199281 15.103110405991636 0 0 0
231 0 2 0 13.82062282481253 -10.443396513867075 14.538932193330055 0 0 0
232 0 1 0 5.902140536193311 -12.590241522056372 15.42269113539954 0 0 0
241 0 1 0 9.864486353287539 0.27711766352167366 14.933873427569313 0 0 0
242 0 2 0 9.08344939031718 0.8362443518512972 14.817593297442196 0 0 0
243 0 2 0 9.945091918873123 0.30395920134256826 15.894550741556394 0 0 0
253 0 1 0 -12.926652376094037 -4.259539240857029 15.132162882775178 1 0 0
254 0 2 0 -12.901903112241502 -3.3683549126192602 14.717710179360928 1 0 0
259 0 1 0 -5.871042249120556 -6.915782268628462 15.421968955041862 0 0 0
260 0 2 0 -6.608071255904113 -7.042205635305004 16.08027888172235 0 0 0
283 0 1 0 -4.391854799085232 -4.613820714337312 15.272781262498256 0 0 0
284 0 2 0 -3.5663796514294734 -4.481444383408366 14.835898614394173 0 0 0
285 0 2 0 -4.716360891410553 -5.499446401230172 14.99058056209893 0 0 0
328 0 1 0 -6.039790156156373 -8.893554654641076 17.90295753754354 0 0 0
329 0 2 0 -5.072629514723112 -8.851694563759791 17.85143771693893 0 0 0
330 0 2 0 -6.344873784004689 -8.914628745455534 16.97437372265646 0 0 0
355 0 1 0 21.317278216511344 4.165692378500895 1.469989690324685 0 0 0
356 0 2 0 21.527931247961135 3.2089515651056653 1.512030192469397 0 0 0
357 0 2 0 22.255006980358896 4.362919693812397 1.7000146000079162 0 0 0
394 0 1 0 -2.0417559320023875 8.674549955484249 2.217098177990372 0 0 0
395 0 2 0 -1.8178929982468697 8.179500162922729 1.4222568445345383 0 0 0
396 0 2 0 -1.6836285371916508 9.543627499983618 2.053282417255796 0 0 0
397 0 1 0 13.367774860445662 -7.563342197371906 14.441083072907743 0 0 0
398 0 2 0 12.53517047596053 -7.232612739929511 13.997174012199132 0 0 0
399 0 2 0 13.942534502184188 -7.8288552057189245 13.750709698840696 0 0 0
436 0 1 0 -15.961896736548672 -24.106229188108244 30.573252152152456 0 0 -1
437 0 2 0 -15.174951887704928 -23.563203810532457 30.51757010441174 0 0 -1
438 0 2 0 -15.82086641918589 -24.88751659263164 31.06043441539332 0 0 -1
443 0 2 0 3.0929459375042754 -0.3968087356834715 15.225275808402806 0 0 0
454 0 1 0 12.745244823962652 -5.182646552430091 15.21292585270686 0 0 0
455 0 2 0 13.38388939008353 -5.723846313140388 14.729398566103736 0 0 0
456 0 2 0 12.454710707356075 -5.755432870166848 15.99643647166168 0 0 0
481 0 1 0 8.051042640006415 2.4719395814312897 15.321949962443195 0 0 0
483 0 2 0 7.086876996544367 2.4182979060715653 15.229007560355413 0 0 0
487 0 1 0 -6.304942047824632 1.8023550744603831 15.065119991078467 0 0 0
488 0 2 0 -6.06346227522694 2.0486281952135883 15.979116168302262 0 0 0
499 0 1 0 -3.364093436509446 2.0438585096546626 2.6665290016299834 0 0 0
500 0 2 0 28.12057409207026 1.6904480053007183 1.8053239523952442 -1 0 0
501 0 2 0 27.199970021851904 1.4418227555372614 3.026051072287677 -1 0 0
513 0 2 0 3.2380497751153223 4.461009112669748 2.0946148102270636 0 0 0
532 0 1 0 16.428436593057327 14.293620421244572 2.0336843230322312 0 0 0
534 0 2 0 16.108936511267494 14.144152859485223 1.1455720402147864 0 0 0
553 0 1 0 16.3838962882252 16.77404392872475 0.8180367520455253 0 0 0
554 0 2 0 15.990788777179608 15.998868193224146 1.1586319816117467 0 0 0
555 0 2 0 -4.484309396140329 -15.712798095334602 31.618573775492003 0 0 -1
558 0 2 0 10.557432072860205 -2.994737146859306 14.57138415858912 0 0 0
562 0 1 0 18.733382835764235 -11.958308911787793 15.913404828177649 0 0 0
563 0 2 0 18.684467463107698 -12.927151315982007 15.896273095336738 0 0 0
564 0 2 0 18.91089639504655 -11.76635866422302 14.970114182710752 0 0 0
565 0 1 0 -9.623959857926732 -10.022459326364785 14.709491442490547 0 0 0
566 0 2 0 -9.21469478483447 -10.286299559952994 13.847929754466772 0 0 0
567 0 2 0 -10.25193311671703 -9.301315606837253 14.556117186146574 0 0 0
594 0 2 0 -3.478150606805926 9.419655845797564 2.502274266926691 0 0 0
606 0 2 0 8.346706549222848 5.441872351889239 1.2261082242920867 0 0 0
613 0 1 0 4.010692957850758 9.439510874756607 0.7094122366125697 0 0 0
614 0 2 0 -16.905677870426125 -23.28191224078305 31.65642191260508 0 0 -1
615 0 2 0 3.1605064349200784 9.020687817065232 0.8701621159074362 0 0 0
625 0 1 0 19.21598931507682 2.691349266261521 2.540243289478576 0 0 0
626 0 2 0 18.46222415345693 2.206533889627474 2.784829849854777 0 0 0
627 0 2 0 19.076028680993073 3.5180657722662065 3.0255213293070864 0 0 0
628 0 1 0 5.640808249345813 1.9522891254234516 14.47726469875393 0 0 0
629 0 2 0 6.301759907638438 1.4428231975385515 13.992121009872836 0 0 0
637 0 1 0 0.6802771028914378 -5.785581384925775 14.895996110696682 0 0 0
639 0 2 0 0.8270871767514247 -6.675927042898662 15.191309826516333 0 0 0
652 0 1 0 2.452306033826779 11.269406004006079 1.5808464486103004 0 0 0
653 0 2 0 1.9409131271357516 12.02577846833656 1.8873900156056027 0 0 0
654 0 2 0 3.2626822810038103 11.541794856011377 1.9962418830898683 0 0 0
670 0 1 0 4.170262553454745 12.678946111400078 3.4634693324728976 0 0 0
671 0 2 0 4.438283853695028 13.520719794597788 3.098197012073346 0 0 0
672 0 2 0 4.644498295833497 12.526387423970498 4.273051943929631 0 0 0
682 0 1 0 -1.7773793224771166 3.9599108958051294 1.4214811409416042 1 0 0
683 0 2 0 -1.1145462104596222 4.344786386045765 2.008361910483562 1 0 0
684 0 2 0 -1.5198957935968824 3.005242726081591 1.2604215223058646 1 0 0
685 0 1 0 13.411023471154506 -2.7950893598879816 14.45590532911294 0 0 0
686 0 2 0 13.24123886626109 -3.6942421176948166 14.795625261926448 0 0 0
687 0 2 0 13.913964360828029 -2.361493389549363 15.171987509735448 0 0 0
700 0 1 0 -6.35563547940665 -10.504665769788204 15.274430308539623 0 0 0
706 0 1 0 -23.65135895678782 -23.77274687041919 30.96758685403705 0 0 -1
707 0 2 0 -23.582051558714355 -22.960729836910616 30.480059314093907 0 0 -1
708 0 2 0 6.586041016209027 -23.92056808984093 31.220134881367354 -1 0 -1
721 0 1 0 23.687860845149302 3.2209365261282867 1.7029077774235166 0 0 0
723 0 2 0 23.329112485113253 2.3473040470264066 1.9625605040918006 0 0 0
724 0 1 0 21.878029388132035 1.3950175626572807 1.354078892875865 0 0 0
727 0 1 0 -2.936573787062134 -8.002009390036637 15.71808908233046 0 0 0
728 0 2 0 -2.172304804580884 -7.515019340104267 16.06212795080092 0 0 0
729 0 2 0 -3.749439325755869 -7.472213550053999 15.8477308247702 0 0 0
733 0 1 0 16.989318553434238 4.451174494697282 2.563914187686185 0 0 0
734 0 2 0 17.4701530045157 4.025740629180142 1.8567128364819765 0 0 0
735 0 2 0 16.07081138114151 4.472195348372795 2.2655127822448127 0 0 0
751 0 1 0 -3.1656997718165125 6.266317291952042 1.7995902496246592 1 0 0
752 0 2 0 -2.635057183533778 6.599192614704768 2.544415901076084 1 0 0
753 0 2 0 -2.7946612574834897 5.3812831574110565 1.6665739721376598 1 0 0
764 0 2 0 -2.5546675037643487 1.9111912780127547 15.556489845167494 0 0 0
765 0 2 0 -2.4158769550308943 0.6421354967536779 16.30434870596262 0 0 0
784 0 1 0 -14.789682663012645 -1.514809341145856 15.429881715046974 1 0 0
785 0 2 0 -15.406431011269682 -0.8009619518038509 15.522094443338132 1 0 0
786 0 2 0 -13.889915797076732 -1.2098790037139047 15.166347320592626 1 0 0
814 0 1 0 9.376346279496572 -5.904912694247264 15.633986419918791 0 0 0
815 0 2 0 8.936860375780462 -6.768917145225428 15.871785666896386 0 0 0
816 0 2 0 9.996355510054723 -6.10720496159866 14.917729544977986 0 0 0
823 0 1 0 18.92215297324545 10.496417004108013 0.5885839011545614 0 0 0
824 0 2 0 18.260116484492254 10.67124414101139 1.2367576574895751 0 0 0
825 0 2 0 19.139680618298424 9.590015374479862 0.7418986255414656 0 0 0
856 0 1 0 -13.96620845355741 -8.122912471272942 16.878690712889917 1 0 0
857 0 2 0 -13.29114615269824 -7.616902604109612 17.339951850689918 1 0 0
858 0 2 0 -14.81467739610467 -7.7025863172537825 17.128638641423787 1 0 0
873 0 2 0 -12.39305785331108 -8.512609306497437 15.730816220792764 1 0 0
886 0 1 0 -1.4741113600491198 1.4583860573164007 1.0219160921650479 1 0 0
888 0 2 0 -0.8128194402141713 1.125413563396213 1.5852110788989746 1 0 0
907 0 1 0 1.670864005184191 5.2862631159992395 1.3299893526255775 0 0 0
908 0 2 0 1.293626325827069 6.027709840047946 0.9267980413002356 0 0 0
909 0 2 0 0.9735363680665292 4.89081902161231 1.8279807696614616 0 0 0
917 0 2 0 9.756929508402841 -13.344477245620144 15.522074451707395 0 0 0
920 0 2 0 10.015980732418363 -9.883257352392153 15.529344049541685 0 0 0
939 0 2 0 23.128247299033966 6.748595394748348 2.012954397386815 0 0 0
945 0 2 0 17.154670234808307 0.7530704017352208 1.6549040185501669 0 0 0
952 0 1 0 -6.638096694405702 10.395055157842473 2.2329287572030276 1 0 0
953 0 2 0 -6.671189908001011 11.34562383908941 2.437981385081122 1 0 0
954 0 2 0 -5.7791858656963875 9.986045553758036 2.25423822671734 1 0 0
955 0 1 0 -1.9244480706796452 -0.8555416649943837 16.297917454577327 0 0 0
956 0 2 0 -2.5221388963351803 -1.6101798382124937 16.274702221506608 0 0 0
957 0 2 0 -1.241548213854335 -0.9631936563654406 15.649355457433888 0 0 0
963 0 2 0 11.94335720361955 0.22035267136695857 2.1782916451349412 0 0 0
976 0 1 0 -6.392348772616685 -1.243942089319642 15.933659576133532 0 0 0
977 0 2 0 -6.2446020073941035 -0.6340906082456748 16.659174281292014 0 0 0
978 0 2 0 -5.673779471141277 -1.0733104917448504 15.275638740611669 0 0 0
997 0 1 0 2.2257715353795144 14.443284105295701 1.752573631129372 0 0 0
998 0 2 0 3.131351468590675 14.388631483637267 1.5203604274332954 0 0 0
999 0 2 0 1.928383415416572 15.288981080483195 2.139392833724894 0 0 0
1003 0 1 0 13.370936505705775 8.73109341718112 1.9685680975781885 0 0 0
1004 0 2 0 14.017964683632648 8.006269407074894 2.056709271652136 0 0 0
1005 0 2 0 13.269968691344062 8.914927178897326 0.9940781164010367 0 0 0
1006 0 1 0 13.869988048184837 1.237314727451844 1.295401220280891 0 0 0
1007 0 2 0 13.944019121955236 1.5961210383751951 2.216390166939843 0 0 0
1008 0 2 0 14.702858445779997 0.892124198042465 1.027541453670026 0 0 0
1028 0 2 0 4.801166168018768 1.142976904446831 1.512534691962574 0 0 0
1045 0 1 0 12.778071114180065 13.344245589502307 2.881112043032728 0 0 0
1047 0 2 0 12.241173261769625 12.885876947546553 2.202517074823916 0 0 0
1059 0 2 0 3.049774128778852 1.491223914901763 15.113558654245514 0 0 0
1063 0 1 0 -7.300170063270079 -3.574393790472257 15.867241550427506 0 0 0
1064 0 2 0 -6.581562980825252 -4.034689135060672 15.493054474784621 0 0 0
1065 0 2 0 -6.995536906252379 -2.680269854449275 16.077347946579433 0 0 0
1070 0 2 0 -8.241577096599256 1.4657209955120312 15.628041223933847 0 0 0
1071 0 2 0 -9.701146082643392 2.0345007424252337 15.38426862072982 0 0 0
1084 0 1 0 -3.5621622840215195 13.016293233810801 2.517059598345226 0 0 0
1085 0 2 0 -3.394863838473129 13.555765339401209 1.7064838892454963 0 0 0
1086 0 2 0 -4.004568365312502 13.670694997610527 3.0595447980278996 0 0 0
1123 0 1 0 2.6731810362581747 -4.861950472872804 13.71994583983027 0 0 0
1124 0 2 0 3.4932451230052077 -4.994948922231604 14.283270192549335 0 0 0
1125 0 2 0 2.0125692156497603 -5.56918810049185 13.995120254678579 0 0 0
1127 0 2 0 0.7956796142247118 -10.434967356301081 14.743666299223525 0 0 0
1132 0 1 0 4.928557124324701 15.28730495375154 2.858262571321622 0 0 0
1135 0 1 0 -7.809676945268224 -23.784024661192447 30.98268285570071 0 0 -1
1136 0 2 0 -8.171968902388919 -23.522971060890242 30.11105553761612 0 0 -1
1137 0 2 0 -7.530314204549503 -24.713046495632966 30.924633728189598 0 0 -1
1159 0 1 0 -5.5774467856315235 15.028398988124932 1.4593301482471879 0 0 0
1160 0 2 0 -5.2485510108452536 14.860954458590053 0.5921036808664164 0 0 0
1161 0 2 0 -6.500557140183667 14.813687020816051 1.6148033276914229 0 0 0
1177 0 1 0 -3.3350446816915174 -16.628452442815313 30.8302892929975 0 0 -1
1178 0 2 0 -2.9261257987171625 -17.071678120995376 31.607248648150932 0 0 -1
1179 0 2 0 -2.6095600585183156 -16.239100477770034 30.35175993921585 0 0 -1
1183 0 1 0 16.660052262000423 10.83737451222989 2.1540771645292196 0 0 0
1184 0 2 0 17.1350855923822 10.769726187746668 3.006585941431234 0 0 0
1185 0 2 0 15.742344272993401 11.210824483612797 2.3281705205851764 0 0 0
1195 0 1 0 -11.32968354872306 2.068953590194212 15.432890523016079 0 0 0
1197 0 2 0 -11.464136493377586 1.1766146754584828 15.780703510754702 0 0 0
1207 0 1 0 4.645515533290244 -4.45752406494757 15.234284173252936 0 0 0
1208 0 2 0 5.293107705731796 -5.027916065697603 15.723750239301395 0 0 0
1219 0 1 0 18.81827334787647 7.671777854192926 1.5025041024706192 0 0 0
1220 0 2 0 18.63142818910854 7.095566289848303 0.7392472132343345 0 0 0
1221 0 2 0 19.795090667758394 7.854347069699614 1.5661039577221958 0 0 0
1222 0 1 0 -8.31199195207045 15.55054226336478 1.544218494138534 0 0 0
1231 0 1 0 14.456037565901315 3.6900582093643015 0.8449633915916421 0 0 0
1232 0 2 0 14.202568283027496 3.9344278907943133 1.7406223648314514 0 0 0
1233 0 2 0 14.086593352248148 2.82708764645013 0.9078000687874166 0 0 0
1242 0 2 0 13.69842922161249 10.351587752994266 2.540977426875659 0 0 0
1244 0 2 0 2.4873956916493594 6.4852180585068435 2.248411201546078 0 0 0
1252 0 1 0 11.620744523758995 11.170440896397595 1.2195403636519848 0 0 0
1253 0 2 0 11.15115090803934 10.334064300473159 1.2214696191015924 0 0 0
1254 0 2 0 10.999052614674133 11.752080692517195 1.6552209864196592 0 0 0
1258 0 1 0 -2.6457023101963206 14.407601712888484 0.5966924234901195 0 0 0
1259 0 2 0 -2.7518099519423957 15.372426463325258 0.45559270807250096 0 0 0
1260 0 2 0 -24.008396042954857 -18.129951955633807 31.396638283931445 0 0 -1
1270 0 1 0 -16.820503529671033 0.1024433766555628 15.298453682650463 1 0 0
1271 0 2 0 -17.4348430369198 -0.22325310815771182 15.96817203953644 1 0 0
1281 0 2 0 -14.138792097539914 1.1856710422709629 15.712068736623419 0 0 0
1 0 1 0 12.69832900000062 0.6680660000000405 6.520694999999944 0 0 0
2 0 2 0 13.553905000001144 1.0794900000002352 6.351799999999955 0 0 0
3 0 2 0 12.845466000001078 -0.20301699999994938 6.828829999999859 0 0 0
4 0 1 0 7.733139000003421 -1.7867210000002256 14.433234999999849 0 0 0
5 0 2 0 7.545566000003127 -0.983590000000012 13.86691199999982 0 0 0
6 0 2 0 7.0314340000024504 -2.4527330000004177 14.173265999999968 0 0 0
10 0 1 0 7.850940000003173 1.7798010000003792 8.523775999999918 0 0 0
11 0 2 0 7.628259000002717 1.9202140000002634 7.59302699999992 0 0 0
12 0 2 0 8.06748600000114 2.688376000000181 8.75523999999992 0 0 0
13 0 1 0 -1.9991089999983171 6.327410000000571 4.070470999999982 0 0 0
14 0 2 0 -2.7307829999982354 6.837606000000799 4.439194000000004 0 0 0
15 0 2 0 -2.2399369999984358 5.380495000000357 4.0045899999999905 0 0 0
19 0 1 0 11.7572620000028 8.314345000000028 7.494629999999969 0 0 0
20 0 2 0 10.781774000003857 8.489800000000283 7.337957999999958 0 0 0
21 0 2 0 11.856953000002449 7.399423000001187 7.658817000000005 0 0 0
22 0 1 0 12.664512000003182 5.835387000000555 8.66210599999997 0 0 0
23 0 2 0 12.053290000003823 5.851732000000286 9.443715999999823 0 0 0
24 0 2 0 12.63204400000238 4.928574000000548 8.320609999999999 0 0 0
25 0 1 0 -1.5289369999984848 1.2546880000001348 8.999261999999915 0 0 0
26 0 2 0 -0.8513609999984348 1.00571800000003 8.368645999999966 0 0 0
27 0 2 0 -1.2048209999983763 1.9075420000002818 9.654089999999927 0 0 0
31 0 1 0 -3.9240480000003903 -7.154400000000971 10.221334999999877 0 0 0
32 0 2 0 -4.518637000000162 -7.824111000000936 10.498141999999795 0 0 0
33 0 2 0 -3.9954540000006795 -7.055680000000873 9.255276000000011 0 0 0
34 0 1 0 7.013672000000803 -3.575937000000449 7.984737999999886 0 0 0
35 0 2 0 6.9252490000006555 -4.471658000000082 8.39811499999995 0 0 0
36 0 2 0 7.485583000001082 -3.0973470000002585 8.642668999999978 0 0 0
40 0 1 0 10.775851000000715 -7.083786000001136 13.806281999999937 0 0 0
41 0 2 0 10.190106000000574 -7.768430000001302 14.103209999999907 0 0 0
42 0 2 0 10.513978000000515 -6.592405000000895 13.045735999999874 0 0 0
43 0 1 0 -10.581836999999993 5.684082000000439 11.415250999999941 0 0 0
44 0 2 0 -10.311784000000024 6.625135000000988 11.37194899999984 0 0 0
45 0 2 0 -9.975984000000013 5.175663000000393 10.875280999999832 0 0 0
46 0 1 0 11.168475000001663 4.939702000000562 5.321726000000003 0 0 0
47 0 2 0 10.984506000001026 4.131343000000631 4.807106999999971 0 0 0
48 0 2 0 10.3923440000016 5.160623000000747 5.870307999999995 0 0 0
54 0 2 0 5.985636000002872 11.08954600000002 2.3635049999999893 0 0 0
55 0 1 0 12.628496000000343 -2.4920800000003682 6.522737999999902 0 0 0
56 0 2 0 11.680061000000197 -2.7963160000004796 6.346912999999919 0 0 0
57 0 2 0 13.118735000000328 -3.0831100000004845 5.9691899999999105 0 0 0
64 0 1 0 -1.9764199999969456 7.482307000000773 9.583478999999947 0 0 0
65 0 2 0 -2.3334659999972818 7.378643000001087 8.721771999999955 0 0 0
66 0 2 0 -1.119935999996418 8.017403000001044 9.56300299999992 0 0 0
70 0 1 0 12.05712200000116 6.728442000000319 3.125482000000008 0 0 0
71 0 2 0 11.34265900000222 6.236701000000134 3.578028999999968 0 0 0
72 0 2 0 11.553424000001716 7.506998000000328 2.7681650000000113 0 0 0
79 0 1 0 -7.671355999999886 6.267148000000956 6.724577999999989 0 0 0
80 0 2 0 -8.241095 5.5704290000011145 6.390081999999928 0 0 0
81 0 2 0 -6.698616999999846 6.160003000001117 6.438310999999976 0 0 0
88 0 1 0 21.558411000000227 -1.6825220000002465 4.978406000000008 0 0 0
89 0 2 0 22.38455000000028 -1.4089750000000967 5.337041999999966 0 0 0
90 0 2 0 21.191961000000248 -2.500648000000312 5.418445999999945 0 0 0
91 0 1 0 11.783940000001095 -2.3261280000002085 10.017310999999898 0 0 0
92 0 2 0 12.407618000000976 -2.9064100000003785 9.56974999999992 0 0 0
93 0 2 0 11.14667500000074 -2.0037710000000724 9.356962999999828 0 0 0
94 0 1 0 8.373381000000297 -3.1370580000003514 10.545496999999823 0 0 0
95 0 2 0 7.451415000002342 -3.1112490000003055 10.871765999999827 0 0 0
96 0 2 0 8.78612700000062 -2.517743000000184 11.145356999999905 0 0 0
97 0 1 0 -9.823582000000023 -6.9455210000010945 14.310655999999936 0 0 0
98 0 2 0 -9.622638000000004 -6.0592790000009895 14.617787999999818 0 0 0
99 0 2 0 -10.66564900000003 -7.255719000001113 14.667796999999787 0 0 0
100 0 1 0 -8.715486000000036 -2.7341430000000297 12.337312999999925 0 0 0
101 0 2 0 -8.377206000000012 -1.9741450000001546 12.814392999999782 0 0 0
102 0 2 0 -8.404305000000019 -2.801843000000197 11.436130999999929 0 0 0
103 0 1 0 13.900428000002107 4.8701400000006085 5.856721999999986 0 0 0
104 0 2 0 14.163510000002168 5.545405000000663 5.211192999999951 0 0 0
105 0 2 0 12.937834000001889 4.914938000000707 5.8574809999999795 0 0 0
106 0 1 0 5.807994000004071 6.189821000000249 10.750343000000042 0 0 0
107 0 2 0 6.286315000004154 6.595201000000481 10.017335000000003 0 0 0
108 0 2 0 5.54421100000465 6.959737000000805 11.252047999999926 0 0 0
109 0 1 0 -0.003000999997453846 1.559134000000176 13.067408999999799 0 0 0
110 0 2 0 -0.26649599999750073 0.7471450000000406 13.550308999999954 0 0 0
111 0 2 0 0.7536330000029992 1.8808560000004242 13.586704999999908 0 0 0
112 0 1 0 6.023866000002384 5.858649000000486 3.4266059999999707 0 0 0
113 0 2 0 5.371515000001303 5.19616100000017 3.152121999999964 0 0 0
114 0 2 0 6.796087000002026 5.900692000000095 2.860903999999962 0 0 0
115 0 1 0 21.653072000000314 1.3057940000002217 7.239298999999981 0 0 0
116 0 2 0 22.08219500000028 2.003624000000146 6.670851999999894 0 0 0
117 0 2 0 20.738689000000438 1.398957000000042 7.028951999999967 0 0 0
118 0 1 0 17.939657000000363 12.78956300000038 4.013431000000006 0 0 0
119 0 2 0 18.36420600000166 11.918657000000133 3.9358339999999763 0 0 0
120 0 2 0 17.341492000000084 12.609499000000625 4.777165999999937 0 0 0
121 0 1 0 3.038452000002363 3.0446660000001513 4.9645369999999405 0 0 0
122 0 2 0 3.3574080000024056 3.6625930000005313 5.640115000000021 0 0 0
123 0 2 0 3.137753000002053 3.5759810000005725 4.123640000000002 0 0 0
124 0 1 0 18.341759000000216 5.257399000000692 5.591423999999968 0 0 0
125 0 2 0 17.589005000000196 5.833431000000847 5.335659999999989 0 0 0
126 0 2 0 19.094700000000092 5.640832000000814 5.029477999999987 0 0 0
127 0 1 0 -6.987057000000032 -6.504762000000483 8.925159999999929 1 0 0
128 0 2 0 24.649048000000114 -6.186010000000619 8.140424999999915 0 0 0
129 0 2 0 23.993885000000052 -7.439354000001016 8.779718999999888 0 0 0
131 0 2 0 -13.70178699999998 4.665942000000401 12.994957999999837 0 0 0
132 0 2 0 -15.031011999999986 5.580340000000529 12.82119499999996 0 0 0
133 0 1 0 -6.899598999998065 12.843135000000276 2.7702589999999825 0 0 0
134 0 2 0 -7.628186999998592 13.29246100000093 3.17698799999996 0 0 0
135 0 2 0 -6.167883999998476 12.966760000000914 3.3786089999999884 0 0 0
136 0 1 0 21.25138300000006 4.975975000000749 7.011315999999987 0 0 0
137 0 2 0 20.670250000000085 5.7201060000007535 7.218610999999955 0 0 0
138 0 2 0 20.67875100000014 4.267025000000628 6.6675759999999835 0 0 0
139 0 1 0 18.7440570000002 1.3672190000001638 9.897265999999973 0 0 0
140 0 2 0 18.353403000000085 2.192847000000242 10.23491099999999 0 0 0
141 0 2 0 18.587715000000586 1.3511970000002034 8.958922999999954 0 0 0
145 0 1 0 13.234233000003227 2.8998619999999935 12.83869600000006 0 0 0
146 0 2 0 14.108223000002983 2.4937680000002853 12.93492399999992 0 0 0
147 0 2 0 13.371787000003398 3.8157270000002743 13.084872999999888 0 0 0
148 0 1 0 20.772139000000294 11.836509000000165 2.27849299999999 0 0 0
152 0 2 0 -10.651221999999997 5.144335000000359 13.222656999999902 0 0 0
154 0 1 0 -6.722147000000113 -5.32386400000089 12.97798000000005 0 0 0
155 0 2 0 -7.2189350000003145 -5.608612000000749 12.20299600000008 0 0 0
156 0 2 0 -7.373676000000046 -5.440307000000956 13.627229999999864 0 0 0
157 0 1 0 12.440536000004009 5.830612000000727 12.44499999999986 0 0 0
158 0 2 0 13.360783000003922 5.821326000001253 12.113016999999786 0 0 0
166 0 1 0 7.5810220000018065 2.3424530000001242 5.6698659999999945 0 0 0
167 0 2 0 8.471634000000314 2.2069520000000162 5.4467239999999855 0 0 0
168 0 2 0 7.458765000002437 3.3340910000005843 5.559452999999934 0 0 0
169 0 1 0 -0.04319099999769094 5.64716400000083 7.0326809999999575 0 0 0
170 0 2 0 -0.976126999997633 5.2957680000009395 6.994151999999989 0 0 0
171 0 2 0 0.22580700000255405 5.335138000000994 7.920641999999954 0 0 0
173 0 2 0 -4.308813999997197 13.333898000000353 4.878888999999939 0 0 0
175 0 1 0 6.528745000000476 -5.720516000000304 9.79652599999997 0 0 0
176 0 2 0 6.1306920000003595 -6.4629840000008 9.265129999999886 0 0 0
177 0 2 0 5.806188000000643 -5.246182000000683 10.225053999999982 0 0 0
181 0 1 0 15.571064000003364 1.8023780000005178 12.363499999999878 0 0 0
182 0 2 0 15.452920000003104 1.4880090000004529 11.421299999999885 0 0 0
183 0 2 0 15.840684000002991 1.0344610000001762 12.923091999999949 0 0 0
187 0 1 0 9.573181000004494 12.50547100000022 2.6154949999999704 0 0 0
188 0 2 0 9.73608800000171 11.680449000000149 3.152491999999954 0 0 0
189 0 2 0 9.974491000002917 13.29899800000101 3.0509349999999738 0 0 0
196 0 1 0 13.733069000000581 -12.686602000001235 15.030304999999933 0 0 0
202 0 1 0 6.052110000001614 -3.649458000000031 13.652984999999976 0 0 0
203 0 2 0 6.371994000001772 -4.567614000000148 13.729251999999967 0 0 0
204 0 2 0 5.59361700000162 -3.6674140000003703 12.804797999999831 0 0 0
208 0 1 0 13.566802000000543 -5.8005230000005605 7.351737999999919 0 0 0
209 0 2 0 13.0287640000002 -6.170505000000445 8.054557999999957 0 0 0
213 0 2 0 1.987460000005727 12.267927000000226 5.465462999999962 0 0 0
214 0 1 0 12.28814900000055 -9.623000000000252 12.411076999999757 0 0 0
215 0 2 0 12.374177000000397 -9.461843000000407 13.365008000000016 0 0 0
216 0 2 0 13.155863000000576 -9.294371000000746 12.132206999999964 0 0 0
220 0 1 0 4.299034000004905 10.094211000000065 5.804453999999882 0 0 0
221 0 2 0 4.134846000003866 10.618177000000347 6.622613999999941 0 0 0
222 0 2 0 3.5582910000044023 9.992388000000133 5.24367999999993 0 0 0
226 0 1 0 4.6767460000001435 -10.56699300000074 13.764487999999947 0 0 0
227 0 2 0 3.874059999999975 -10.675717000000612 14.325338999999783 0 0 0
228 0 2 0 5.339944999999867 -11.077936000000587 14.254540999999929 0 0 0
235 0 1 0 13.338792000002408 -0.37720199999997384 11.01104799999995 0 0 0
236 0 2 0 12.792056000002091 -0.9822679999999977 10.41570699999984 0 0 0
237 0 2 0 13.625091000001852 0.3801519999999865 10.489305999999926 0 0 0
238 0 1 0 9.006928000002102 8.994608000000046 7.294080999999936 0 0 0
239 0 2 0 8.209780000001587 8.970542000000012 7.861016999999923 0 0 0
240 0 2 0 8.829249000002036 9.38104100000003 6.427287999999977 0 0 0
244 0 1 0 -4.511225999999455 -0.20108499999995644 14.217478999999951 0 0 0
245 0 2 0 -4.352021999999393 -0.41355699999992446 13.278730999999834 0 0 0
246 0 2 0 -3.6766979999979403 0.007419000000037812 14.697608999999796 0 0 0
247 0 1 0 9.250168000002963 4.1755620000003315 13.36293999999979 0 0 0
248 0 2 0 9.873178000002758 3.857019000000255 12.721394000000032 0 0 0
250 0 1 0 -0.24371999999698035 9.11040000000008 4.402378999999966 0 0 0
251 0 2 0 -0.47246699999630914 8.63315199999999 5.211161999999955 0 0 0
252 0 2 0 -0.5788299999969189 8.606013000000008 3.6503799999999744 0 0 0
255 0 2 0 -12.533864999999993 -4.854705000000315 14.525031000000064 1 0 0
256 0 1 0 7.374693000003367 0.3226080000000504 12.987733999999856 0 0 0
257 0 2 0 7.990629000003549 -0.13777100000001496 12.407654000000058 0 0 0
258 0 2 0 6.7421260000027505 0.7787230000000704 12.385689999999954 0 0 0
261 0 2 0 -6.302943000000253 -7.277950000001299 14.636369999999895 0 0 0
262 0 1 0 6.3120970000070304 11.056355999999994 4.389836000000021 0 0 0
263 0 2 0 6.846883000003753 11.525496000000064 5.116544999999996 0 0 0
264 0 2 0 5.534240000003851 10.699037000000093 4.787331999999942 0 0 0
265 0 1 0 8.637216000001636 4.686414000000047 9.621319000000014 0 0 0
266 0 2 0 7.966245000004343 4.431059000000124 10.299533999999934 0 0 0
267 0 2 0 9.318777000002338 5.190370000000394 10.097270999999878 0 0 0
268 0 1 0 7.902669000000349 -10.368597000000708 13.06326699999991 0 0 0
270 0 2 0 7.480966000000295 -9.858305000000577 12.414826000000001 0 0 0
271 0 1 0 2.459380000003776 4.008494000000306 13.567946999999858 0 0 0
272 0 2 0 3.2753860000043122 4.4479830000004466 13.804313999999879 0 0 0
273 0 2 0 1.9766980000040864 4.698372000000141 13.079910999999974 0 0 0
274 0 1 0 0.41818300000137243 3.7200270000005666 2.7436079999999916 0 0 0
275 0 2 0 0.6196180000020988 4.201287000000019 3.568948000000002 0 0 0
276 0 2 0 0.242676000001131 2.8390160000004303 3.0338789999999953 0 0 0
277 0 1 0 -1.4744859999994535 -5.641162000000856 13.41405499999987 0 0 0
278 0 2 0 -1.09531799999964 -5.991199000001018 12.604732999999896 0 0 0
279 0 2 0 -1.8647979999995528 -4.730628000000188 13.238331999999858 0 0 0
280 0 1 0 22.363702999999997 -9.029156000000576 11.232108000000082 0 0 0
282 0 2 0 -7.9426420000000135 -9.02376000000033 10.835928999999918 1 0 0
286 0 1 0 -1.5664710000003446 -10.501874000000804 14.424658999999833 0 0 0
287 0 2 0 -1.867241000000817 -11.422081000001077 14.545629000000043 0 0 0
288 0 2 0 -2.3954350000008597 -10.075603000000271 14.233135999999757 0 0 0
289 0 1 0 -9.120604999999987 4.087577000000106 9.615947999999879 0 0 0
290 0 2 0 -9.204390000000007 3.133629000000047 9.73665899999997 0 0 0
291 0 2 0 -9.618754999999995 4.411555000000201 8.878566999999954 0 0 0
292 0 1 0 1.9079280000009549 -4.616280000000546 11.058818999999835 0 0 0
293 0 2 0 2.4775130000008954 -4.570982000000641 10.269684000000009 0 0 0
294 0 2 0 1.7073940000007752 -5.525754000000798 11.20949600000003 0 0 0
295 0 1 0 -12.249287000000006 10.249860000000602 8.287952999999966 0 0 0
296 0 2 0 -11.289848999999972 10.304799000000582 8.068036999999984 0 0 0
298 0 1 0 -5.152372000000039 -3.135238000000175 12.993440999999947 0 0 0