LAMMPS data file via MDAnalysis

        1296  atoms
           0  bonds
           0  angles
           0  dihedrals
           0  impropers

           2  atom types
           0  bond types
           0  angle types
           0  dihedral types
           0  improper types

0.000000 31.164278 xlo xhi
0.000000 21.491243 ylo yhi
0.000000 37.685345 zlo zhi
-9.197045 -21.190220 -32.124252 xy xz yz


Masses

1 1.008000
2 15.999000

Atoms

1297 0 1 0.000000 -11.537005 -20.156010 23.905033
1298 0 2 0.000000 -11.258114 -19.644947 24.681170
1299 0 2 0.000000 -12.281522 -19.593353 23.539724
1300 0 1 0.000000 -10.556863 -12.363070 20.783516
1301 0 2 0.000000 -11.202080 -12.892629 21.257866
1302 0 2 0.000000 -11.049442 -11.853437 20.072699
1303 0 1 0.000000 -5.225522 -14.351281 19.370022
1304 0 2 0.000000 -5.414308 -15.329058 19.346413
1305 0 2 0.000000 -5.132024 -14.281235 20.326323
1306 0 1 0.000000 -11.891659 -16.445173 23.504133
1307 0 2 0.000000 -12.646129 -17.032253 23.660297
1308 0 2 0.000000 -11.165801 -17.082474 23.317244
1309 0 1 0.000000 -14.040942 -11.602441 20.831091
1310 0 2 0.000000 -13.621382 -11.319292 21.678129
1311 0 2 0.000000 -13.429210 -11.451536 20.083202
1312 0 1 0.000000 -7.779853 -16.273554 21.647387
1313 0 2 0.000000 -8.092628 -15.332726 21.409105
1314 0 2 0.000000 -7.051131 -16.467867 21.041000
1315 0 1 0.000000 -8.529314 -10.153350 20.021778
1316 0 2 0.000000 -7.758393 -10.565680 20.394291
1317 0 2 0.000000 -8.794246 -10.714836 19.285250
1318 0 1 0.000000 -9.638422 -17.877693 22.663647
1319 0 2 0.000000 -8.961474 -17.303638 22.336750
1320 0 2 0.000000 -9.258513 -18.445189 23.356674
1321 0 1 0.000000 -14.600639 -15.593756 24.556923
1322 0 2 0.000000 -14.643275 -15.870999 23.601936
1323 0 2 0.000000 -14.124966 -14.742419 24.548872
1324 0 1 0.000000 -8.279818 -13.748253 20.563515
1325 0 2 0.000000 -7.529438 -13.151930 20.595724
1326 0 2 0.000000 -9.033419 -13.100976 20.398581
1327 0 1 0.000000 -6.185917 -18.488369 23.390072
1328 0 2 0.000000 -6.948759 -18.720442 23.920815
1329 0 2 0.000000 -6.407379 -18.807034 22.503036
1330 0 1 0.000000 -12.352916 -13.823935 22.193253
1331 0 2 0.000000 -12.168200 -14.702659 22.542711
1332 0 2 0.000000 -13.081331 -13.499197 22.805971
1333 0 1 0.000000 -3.869026 -19.731522 24.001408
1334 0 2 0.000000 -3.443322 -19.198437 24.688936
1335 0 2 0.000000 -4.656788 -19.271725 23.721014
1336 0 1 0.000000 -3.061698 -12.459730 21.126442
1337 0 2 0.000000 -3.657640 -13.066077 21.613260
1338 0 2 0.000000 -3.505111 -12.212559 20.290071
1339 0 1 0.000000 2.628067 -14.674303 19.493605
1340 0 2 0.000000 2.369215 -15.647928 19.734156
1341 0 2 0.000000 2.711281 -14.235825 20.385876
1342 0 1 0.000000 -4.349773 -16.305334 23.718838
1343 0 2 0.000000 -5.044650 -16.908451 23.564409
1344 0 2 0.000000 -3.522767 -16.797377 23.476021
1345 0 1 0.000000 -6.302636 -11.753397 20.682430
1346 0 2 0.000000 -6.094286 -11.396837 21.543030
1347 0 2 0.000000 -5.784082 -11.233659 20.034136
1348 0 1 0.000000 0.230420 -15.992123 22.192726
1349 0 2 0.000000 0.205934 -15.149478 21.675179
1350 0 2 0.000000 0.700312 -16.603512 21.597912
1351 0 1 0.000000 -0.861567 -10.169406 20.345715
1352 0 2 0.000000 -0.043530 -10.643419 20.655039
1353 0 2 0.000000 -1.158907 -10.765052 19.617126
1354 0 1 0.000000 -1.790536 -17.661371 22.831150
1355 0 2 0.000000 -1.140632 -16.964392 22.760324
1356 0 2 0.000000 -1.590690 -18.177177 23.661638
1357 0 1 0.000000 -7.194445 -15.899572 24.451561
1358 0 2 0.000000 -7.312978 -16.191984 23.528601
1359 0 2 0.000000 -7.241624 -14.928442 24.418976
1360 0 1 0.000000 -0.472779 -13.601491 20.744596
1361 0 2 0.000000 0.050729 -12.835097 20.493586
1362 0 2 0.000000 -1.362039 -13.217788 20.863441
1363 0 1 0.000000 1.398872 -18.678778 23.207949
1364 0 2 0.000000 0.891465 -18.750069 24.018091
1365 0 2 0.000000 0.899648 -19.098967 22.461397
1366 0 1 0.000000 -4.886555 -14.047649 22.162655
1367 0 2 0.000000 -4.513798 -14.906094 22.443954
1368 0 2 0.000000 -5.604144 -13.795652 22.765705
1369 0 1 0.000000 3.794343 -20.053194 23.802601
1370 0 2 0.000000 4.154015 -19.519310 24.503288
1371 0 2 0.000000 2.959441 -19.607567 23.602974
1372 0 1 0.000000 5.174487 -12.370213 21.268559
1373 0 2 0.000000 4.466584 -12.984685 21.585371
1374 0 2 0.000000 4.813102 -11.815231 20.492752
1375 0 1 0.000000 10.546773 -14.725528 19.350142
1376 0 2 0.000000 10.346377 -15.679386 19.512579
1377 0 2 0.000000 10.416482 -14.337194 20.227535
1378 0 1 0.000000 3.449634 -16.532282 23.430723
1379 0 2 0.000000 2.790475 -17.225267 23.453785
1380 0 2 0.000000 4.263773 -16.940729 23.100464
1381 0 1 0.000000 1.372721 -11.474798 20.875338
1382 0 2 0.000000 1.909239 -11.465000 21.675968
1383 0 2 0.000000 1.970627 -11.198423 20.164209
1384 0 1 0.000000 8.001924 -16.164955 21.830280
1385 0 2 0.000000 7.852254 -15.247849 21.543993
1386 0 2 0.000000 8.541480 -16.537176 21.156651
1387 0 1 0.000000 7.001670 -10.302272 19.763723
1388 0 2 0.000000 7.870154 -10.555600 20.112249
1389 0 2 0.000000 6.742141 -10.919598 19.003689
1390 0 1 0.000000 5.756387 -17.817183 22.509901
1391 0 2 0.000000 6.350680 -17.150509 22.219488
1392 0 2 0.000000 6.329965 -18.343863 23.125578
1393 0 1 0.000000 0.423064 -15.398794 24.964119
1394 0 2 0.000000 0.458542 -15.675767 24.006836
1395 0 2 0.000000 0.815176 -14.518975 24.896786
1396 0 1 0.000000 7.420075 -13.575017 20.738859
1397 0 2 0.000000 8.122050 -12.905159 20.801380
1398 0 2 0.000000 6.527547 -13.139394 20.854876
1399 0 1 0.000000 9.496385 -18.603193 22.936718
1400 0 2 0.000000 8.830077 -18.686840 23.617409
1401 0 2 0.000000 8.934134 -18.935192 22.123907
1402 0 1 0.000000 3.111854 -14.046994 22.075016
1403 0 2 0.000000 3.210742 -14.960950 22.543198
1404 0 2 0.000000 2.387299 -13.598972 22.579899
1405 0 1 0.000000 11.754718 -20.030991 23.957165
1406 0 2 0.000000 11.878982 -19.592140 24.839348
1407 0 2 0.000000 10.998551 -19.461510 23.611855
1408 0 1 0.000000 12.872823 -12.289532 21.392740
1409 0 2 0.000000 12.261634 -12.998532 21.633181
1410 0 2 0.000000 12.451198 -11.897943 20.551407
1411 0 1 0.000000 18.249836 -14.534283 19.408998
1412 0 2 0.000000 18.358845 -15.452856 19.580151
1413 0 2 0.000000 18.173016 -14.191799 20.336433
1414 0 1 0.000000 11.204200 -16.393444 23.522642
1415 0 2 0.000000 10.549422 -17.066143 23.513376
1416 0 2 0.000000 12.101193 -16.744934 23.318913
1417 0 1 0.000000 9.210479 -11.535243 20.990059
1418 0 2 0.000000 9.638026 -11.114489 21.773096
1419 0 2 0.000000 9.920611 -11.494884 20.316908
1420 0 1 0.000000 16.027447 -16.020073 21.739994
1421 0 2 0.000000 15.942624 -15.241398 21.177792
1422 0 2 0.000000 16.652100 -16.555061 21.221104
1423 0 1 0.000000 14.646554 -9.967908 20.411667
1424 0 2 0.000000 15.577708 -10.241158 20.698601
1425 0 2 0.000000 14.404605 -10.684861 19.778679
1426 0 1 0.000000 13.871902 -17.182297 22.661612
1427 0 2 0.000000 14.702847 -16.806417 22.366495
1428 0 2 0.000000 14.048785 -17.861349 23.417837
1429 0 1 0.000000 8.228011 -15.810735 24.583853
1430 0 2 0.000000 8.180684 -16.039614 23.658260
1431 0 2 0.000000 8.516191 -14.910144 24.594110
1432 0 1 0.000000 15.322423 -13.433110 20.384466
1433 0 2 0.000000 15.974641 -12.767766 20.721952
1434 0 2 0.000000 14.496015 -13.037395 20.671326
1435 0 1 0.000000 17.301495 -18.532850 23.099373
1436 0 2 0.000000 16.644131 -18.572685 23.861059
1437 0 2 0.000000 16.792011 -18.841120 22.299351
1438 0 1 0.000000 10.794190 -14.007596 21.908123
1439 0 2 0.000000 10.954743 -14.846979 22.398996
1440 0 2 0.000000 10.288558 -13.463314 22.564138
1441 0 1 0.000000 -14.124023 -13.065105 24.137901
1442 0 2 0.000000 -14.060453 -12.434989 24.872391
1443 0 2 0.000000 -15.034318 -12.949434 23.814371
1444 0 1 0.000000 -13.503171 -5.338851 21.419643
1445 0 2 0.000000 -14.228717 -5.839026 21.748682
1446 0 2 0.000000 -13.930547 -4.741255 20.767225
1447 0 1 0.000000 -8.282108 -7.470487 19.471222
1448 0 2 0.000000 -8.593594 -8.385868 19.445688
1449 0 2 0.000000 -8.341064 -7.053913 20.327888
1450 0 1 0.000000 -15.185667 -9.433982 23.291756
1451 0 2 0.000000 -15.791014 -10.183182 23.368971
1452 0 2 0.000000 -14.344941 -9.843238 23.456409
1453 0 1 0.000000 -17.217945 -4.366801 20.909622
1454 0 2 0.000000 -16.694857 -4.286900 21.717638
1455 0 2 0.000000 -16.596367 -4.259468 20.215149
1456 0 1 0.000000 -10.482221 -8.907712 21.980127
1457 0 2 0.000000 -10.479253 -8.019794 21.581078
1458 0 2 0.000000 -10.024841 -9.444172 21.287352
1459 0 1 0.000000 -11.989162 -2.751541 19.865633
1460 0 2 0.000000 -11.115487 -3.046841 20.258688
1461 0 2 0.000000 -12.168439 -3.571832 19.303123
1462 0 1 0.000000 -12.704924 -10.270074 22.880177
1463 0 2 0.000000 -12.010296 -9.748423 22.482357
1464 0 2 0.000000 -12.203086 -10.875607 23.471180
1465 0 1 0.000000 -18.237068 -8.399432 24.735363
1466 0 2 0.000000 -18.146965 -8.906862 23.941631
1467 0 2 0.000000 -17.999779 -7.469563 24.461309
1468 0 1 0.000000 -11.100352 -6.493882 20.638790
1469 0 2 0.000000 -10.460278 -5.806860 20.663631
1470 0 2 0.000000 -11.909775 -6.078476 21.072412
1471 0 1 0.000000 -9.188507 -11.445887 23.030117
1472 0 2 0.000000 -9.807289 -11.814638 23.666290
1473 0 2 0.000000 -9.573359 -11.478352 22.103069
1474 0 1 0.000000 -15.890313 -7.071157 21.897575
1475 0 2 0.000000 -15.628712 -7.930651 22.327787
1476 0 2 0.000000 -16.379553 -6.558168 22.576410
1477 0 1 0.000000 -6.959210 -12.953359 23.895275
1478 0 2 0.000000 -6.842858 -12.513314 24.721788
1479 0 2 0.000000 -7.656560 -12.396036 23.387308
1480 0 1 0.000000 -6.081931 -5.196908 20.817337
1481 0 2 0.000000 -6.810286 -5.437943 21.391525
1482 0 2 0.000000 -6.449819 -4.556582 20.158279
1483 0 1 0.000000 -0.423185 -7.487123 19.315302
1484 0 2 0.000000 -0.582949 -8.451612 19.401636
1485 0 2 0.000000 -0.361044 -7.237437 20.251259
1486 0 1 0.000000 -7.544454 -9.332033 23.544571
1487 0 2 0.000000 -8.199830 -10.049304 23.463371
1488 0 2 0.000000 -6.668525 -9.808413 23.520765
1489 0 1 0.000000 -9.522655 -4.231784 20.429932
1490 0 2 0.000000 -9.033034 -3.751038 21.106123
1491 0 2 0.000000 -9.037340 -3.960137 19.645226
1492 0 1 0.000000 -3.142003 -9.149297 21.509819
1493 0 2 0.000000 -3.153107 -8.214734 21.196920
1494 0 2 0.000000 -2.496105 -9.631456 20.983461
1495 0 1 0.000000 -3.759005 -2.933578 20.231922
1496 0 2 0.000000 -2.872744 -3.173468 20.695438
1497 0 2 0.000000 -3.875482 -3.584883 19.508171
1498 0 1 0.000000 -5.067095 -10.591084 22.841022
1499 0 2 0.000000 -4.384703 -10.360999 22.213097
1500 0 2 0.000000 -4.594914 -10.976974 23.620754
1501 0 1 0.000000 -10.209484 -8.314157 24.694839
1502 0 2 0.000000 -10.197733 -8.570190 23.778515
1503 0 2 0.000000 -10.122748 -7.309023 24.542000
1504 0 1 0.000000 -3.572936 -6.522058 20.948530
1505 0 2 0.000000 -2.902546 -5.861916 20.945639
1506 0 2 0.000000 -4.468290 -6.166920 20.724154
1507 0 1 0.000000 -1.301889 -11.587983 23.276974
1508 0 2 0.000000 -1.888818 -11.821836 23.980263
1509 0 2 0.000000 -1.928144 -11.364143 22.578051
1510 0 1 0.000000 -8.279990 -6.661321 22.091347
1511 0 2 0.000000 -8.026971 -7.467371 22.607136
1512 0 2 0.000000 -8.872469 -6.081158 22.648327
1513 0 1 0.000000 1.113104 -12.988211 23.899239
1514 0 2 0.000000 1.368231 -12.282216 24.551767
1515 0 2 0.000000 0.204658 -12.747897 23.631992
1516 0 1 0.000000 2.143669 -5.758182 21.086147
1517 0 2 0.000000 1.484146 -6.432531 21.272932
1518 0 2 0.000000 1.686614 -5.073610 20.512974
1519 0 1 0.000000 7.272777 -7.420608 19.366112
1520 0 2 0.000000 7.091878 -8.359360 19.565947
1521 0 2 0.000000 7.532743 -7.083540 20.215971
1522 0 1 0.000000 0.448876 -9.471182 23.406925
1523 0 2 0.000000 -0.219296 -10.134623 23.255833
1524 0 2 0.000000 1.281308 -9.909019 23.291557
1525 0 1 0.000000 -1.551596 -4.260312 20.835318
1526 0 2 0.000000 -0.989683 -3.893185 21.564445
1527 0 2 0.000000 -1.000269 -4.324355 19.998909
1528 0 1 0.000000 4.962570 -9.331820 21.707067
1529 0 2 0.000000 4.802083 -8.460499 21.240234
1530 0 2 0.000000 5.679919 -9.639476 21.173660
1531 0 1 0.000000 4.086193 -3.223255 20.218845
1532 0 2 0.000000 4.806664 -3.631047 20.746164
1533 0 2 0.000000 3.940248 -3.782269 19.388279
1534 0 1 0.000000 2.896816 -10.771194 22.916733
1535 0 2 0.000000 3.620625 -10.363585 22.409637
1536 0 2 0.000000 3.283030 -11.295237 23.668018
1537 0 1 0.000000 -2.544168 -8.647982 24.399328
1538 0 2 0.000000 -2.509238 -8.887928 23.477074
1539 0 2 0.000000 -2.463018 -7.665490 24.359337
1540 0 1 0.000000 4.553817 -6.900167 20.499125
1541 0 2 0.000000 5.333093 -6.436545 20.848888
1542 0 2 0.000000 3.825011 -6.378239 20.821480
1543 0 1 0.000000 6.625035 -11.714983 23.549244
1544 0 2 0.000000 5.871621 -11.627733 24.209044
1545 0 2 0.000000 6.096601 -11.995443 22.786297
1546 0 1 0.000000 -0.404153 -7.135828 22.167608
1547 0 2 0.000000 -0.083669 -8.020020 22.312212
1548 0 2 0.000000 -1.238019 -7.024136 22.556211
1549 0 1 0.000000 8.929675 -12.952144 24.114553
1550 0 2 0.000000 9.109042 -12.374929 24.840448
1551 0 2 0.000000 8.086867 -12.604703 23.903049
1552 0 1 0.000000 9.458875 -5.480058 21.242119
1553 0 2 0.000000 8.778300 -5.978436 21.691206
1554 0 2 0.000000 8.926503 -4.890202 20.620523
1555 0 1 0.000000 5.640248 -20.909077 35.621532
1556 0 2 0.000000 5.749002 -21.825796 35.702034
1557 0 2 0.000000 5.807439 -20.637312 36.534904
1558 0 1 0.000000 7.925540 -9.300147 23.612097
1559 0 2 0.000000 7.341187 -10.040101 23.565786
1560 0 2 0.000000 8.796792 -9.630761 23.390379
1561 0 1 0.000000 6.270576 -4.432748 20.953012
1562 0 2 0.000000 6.772326 -4.261959 21.800409
1563 0 2 0.000000 6.773608 -4.102577 20.233952
1564 0 1 0.000000 12.581063 -9.043671 22.008377
1565 0 2 0.000000 12.486037 -8.202380 21.516369
1566 0 2 0.000000 13.354333 -9.477053 21.585567
1567 0 1 0.000000 11.557528 -3.266901 20.097532
1568 0 2 0.000000 12.385375 -3.633375 20.492277
1569 0 2 0.000000 11.295018 -3.804310 19.306007
1570 0 1 0.000000 10.523883 -10.413300 23.106138
1571 0 2 0.000000 11.278974 -9.831875 22.851347
1572 0 2 0.000000 10.883004 -11.180984 23.583853
1573 0 1 0.000000 5.050552 -8.692317 24.313412
1574 0 2 0.000000 5.081966 -8.987403 23.410349
1575 0 2 0.000000 5.161779 -7.700426 24.197384
1576 0 1 0.000000 11.985473 -6.470532 20.514820
1577 0 2 0.000000 12.434533 -5.668715 20.747093
1578 0 2 0.000000 11.011355 -6.289712 20.507891
1579 0 1 0.000000 -16.780270 -11.705830 23.477692
1580 0 2 0.000000 -17.396601 -11.719327 24.211985
1581 0 2 0.000000 -17.347750 -11.646140 22.694180
1582 0 1 0.000000 7.618255 -7.052539 22.125731
1583 0 2 0.000000 7.735675 -7.926695 22.548557
1584 0 2 0.000000 6.939532 -6.546962 22.701275
1585 0 1 0.000000 -17.604881 -5.863797 23.967197
1586 0 2 0.000000 -17.265556 -5.413946 24.768034
1587 0 2 0.000000 -18.483061 -5.502194 23.837109
1588 0 1 0.000000 -16.738810 1.817759 20.807032
1589 0 2 0.000000 -17.358213 1.280682 21.232893
1590 0 2 0.000000 -17.246538 2.447872 20.260477
1591 0 1 0.000000 -11.562939 -0.199596 19.489529
1592 0 2 0.000000 -11.757415 -1.144300 19.600964
1593 0 2 0.000000 -11.510275 0.212545 20.378817
1594 0 1 0.000000 -17.983906 -2.024671 23.407480
1595 0 2 0.000000 -18.577740 -2.731269 23.235039
1596 0 2 0.000000 -17.177120 -2.545000 23.438087
1597 0 1 0.000000 -20.243292 2.749680 20.543150
1598 0 2 0.000000 -19.839746 2.932730 21.460062
1599 0 2 0.000000 -19.577972 3.115915 19.926281
1600 0 1 0.000000 -13.847897 -1.786322 21.778366
1601 0 2 0.000000 -14.002897 -0.899950 21.384529
1602 0 2 0.000000 -13.181580 -2.141465 21.136679
1603 0 1 0.000000 -14.837666 4.386488 19.900417
1604 0 2 0.000000 -13.996204 3.867573 20.189224
1605 0 2 0.000000 -15.068882 3.998280 19.049910
1606 0 1 0.000000 -15.701077 -3.516527 23.083242
1607 0 2 0.000000 -15.106564 -2.786469 22.829336
1608 0 2 0.000000 -15.304166 -4.004678 23.771992
1609 0 1 0.000000 -21.265701 -1.409886 24.297407
1610 0 2 0.000000 -21.445610 -1.768696 23.411757
1611 0 2 0.000000 -21.182724 -0.413949 24.158791
1612 0 1 0.000000 -14.323518 0.821005 20.436781
1613 0 2 0.000000 -13.722176 1.569584 20.577932
1614 0 2 0.000000 -15.212458 1.237177 20.491198
1615 0 1 0.000000 -12.250000 -4.106419 23.596306
1616 0 2 0.000000 -12.884567 -4.316118 24.353193
1617 0 2 0.000000 -12.726400 -4.322114 22.786409
1618 0 1 0.000000 -19.055767 0.265440 21.962214
1619 0 2 0.000000 -18.469229 -0.417180 22.337507
1620 0 2 0.000000 -19.735439 0.319109 22.613400
1621 0 1 0.000000 -9.836830 -5.295992 23.751690
1622 0 2 0.000000 -9.562689 -4.836105 24.570782
1623 0 2 0.000000 -10.712310 -4.916846 23.533487
1624 0 1 0.000000 -9.017749 1.544708 21.016966
1625 0 2 0.000000 -9.796413 1.123383 21.456141
1626 0 2 0.000000 -9.427799 2.274975 20.470722
1627 0 1 0.000000 -13.131010 -14.267557 35.585693
1628 0 2 0.000000 -13.073332 -15.247293 35.586548
1629 0 2 0.000000 -12.877604 -14.144325 36.473106
1630 0 1 0.000000 -10.469499 -2.035865 23.527567
1631 0 2 0.000000 -11.009260 -2.842442 23.633194
1632 0 2 0.000000 -9.618514 -2.372478 23.111458
1633 0 1 0.000000 -12.626017 3.123308 20.592382
1634 0 2 0.000000 -12.196100 3.511326 21.421566
1635 0 2 0.000000 -11.894646 3.083914 19.934708
1636 0 1 0.000000 -5.799087 -1.987049 21.866539
1637 0 2 0.000000 -6.039279 -1.137818 21.415789
1638 0 2 0.000000 -5.046434 -2.452855 21.433638
1639 0 1 0.000000 -7.364129 4.263210 19.913651
1640 0 2 0.000000 -6.551159 3.708500 20.107895
1641 0 2 0.000000 -7.859266 3.641665 19.315250
1642 0 1 0.000000 -8.138456 -2.939075 22.564329
1643 0 2 0.000000 -7.284774 -2.506335 22.332632
1644 0 2 0.000000 -7.841662 -3.555230 23.271065
1645 0 1 0.000000 -13.397015 -0.946813 24.496597
1646 0 2 0.000000 -13.484396 -1.239367 23.583485
1647 0 2 0.000000 -13.185336 0.010799 24.402157
1648 0 1 0.000000 -6.453335 0.495983 20.931982
1649 0 2 0.000000 -5.862360 1.309299 20.881306
1650 0 2 0.000000 -7.374226 0.715654 20.918669
1651 0 1 0.000000 -4.654657 -4.492667 22.996191
1652 0 2 0.000000 -5.264022 -4.584566 23.718422
1653 0 2 0.000000 -5.151333 -4.790073 22.149944
1654 0 1 0.000000 -11.337261 0.240721 22.219976
1655 0 2 0.000000 -10.919828 -0.485306 22.779602
1656 0 2 0.000000 -11.786703 0.960606 22.674686
1657 0 1 0.000000 -2.592544 -5.954766 23.850042
1658 0 2 0.000000 -2.227679 -5.350260 24.508764
1659 0 2 0.000000 -3.194826 -5.481912 23.236879
1660 0 1 0.000000 -1.024169 1.744165 20.964449
1661 0 2 0.000000 -1.870299 1.335375 21.222124
1662 0 2 0.000000 -1.265743 2.485157 20.354244
1663 0 1 0.000000 4.403434 -0.509863 19.558430
1664 0 2 0.000000 4.437325 -1.504707 19.645657
1665 0 2 0.000000 4.363050 -0.192657 20.460360
1666 0 1 0.000000 -2.640613 -2.048421 23.339996
1667 0 2 0.000000 -3.202794 -2.802155 23.122425
1668 0 2 0.000000 -1.730602 -2.221384 23.197205
1669 0 1 0.000000 -4.994509 2.766329 20.354946
1670 0 2 0.000000 -4.402254 3.124975 21.032001
1671 0 2 0.000000 -4.399814 2.699677 19.583315
1672 0 1 0.000000 2.013616 -2.248676 21.786869
1673 0 2 0.000000 1.775310 -1.309980 21.533689
1674 0 2 0.000000 2.805936 -2.505420 21.274448
1675 0 1 0.000000 0.622763 4.181814 20.092728
1676 0 2 0.000000 1.128460 3.638514 20.701719
1677 0 2 0.000000 0.295809 3.677376 19.349756
1678 0 1 0.000000 -0.089411 -3.251897 23.154261
1679 0 2 0.000000 0.656241 -2.838928 22.757441
1680 0 2 0.000000 0.257396 -3.922140 23.806461
1681 0 1 0.000000 -5.837411 -1.295840 24.472054
1682 0 2 0.000000 -5.820040 -1.565482 23.524544
1683 0 2 0.000000 -5.629904 -0.317497 24.341167
1684 0 1 0.000000 1.565675 0.393536 20.880774
1685 0 2 0.000000 2.155405 1.132616 20.821074
1686 0 2 0.000000 0.717046 0.933243 20.891289
1687 0 1 0.000000 3.301187 -4.376827 23.414621
1688 0 2 0.000000 2.566250 -4.379666 24.076439
1689 0 2 0.000000 2.842824 -4.560789 22.582191
1690 0 1 0.000000 -3.346789 0.360229 22.010777
1691 0 2 0.000000 -3.232363 -0.523770 22.394361
1692 0 2 0.000000 -4.034818 0.714880 22.605610
1693 0 1 0.000000 5.646869 -5.970937 23.804335
1694 0 2 0.000000 6.050471 -5.435242 24.499161
1695 0 2 0.000000 4.849944 -5.477304 23.515800
1696 0 1 0.000000 6.593930 1.898687 21.041054
1697 0 2 0.000000 6.012851 1.344915 21.544844
1698 0 2 0.000000 6.054807 2.308786 20.332235
1699 0 1 0.000000 12.004472 -0.597434 19.416584
1700 0 2 0.000000 11.877358 -1.569952 19.579458
1701 0 2 0.000000 12.024175 -0.214527 20.312395
1702 0 1 0.000000 5.111052 -2.187576 23.102879
1703 0 2 0.000000 4.443766 -2.861421 23.262508
1704 0 2 0.000000 6.010659 -2.514758 23.093966
1705 0 1 0.000000 3.313103 2.677235 20.772472
1706 0 2 0.000000 3.723068 3.296419 21.425457
1707 0 2 0.000000 3.678689 2.914768 19.893051
1708 0 1 0.000000 9.627334 -2.111581 21.565620
1709 0 2 0.000000 9.418593 -1.308037 21.046835
1710 0 2 0.000000 10.271865 -2.640326 21.059320
1711 0 1 0.000000 8.727725 4.329840 20.028704
1712 0 2 0.000000 9.534345 3.802452 20.182287
1713 0 2 0.000000 8.349189 3.809069 19.292192
1714 0 1 0.000000 7.667806 -3.348272 23.036980
1715 0 2 0.000000 8.330989 -2.799795 22.597673
1716 0 2 0.000000 8.186744 -3.984070 23.573515
1717 0 1 0.000000 2.496764 -1.242584 24.529037
1718 0 2 0.000000 2.624042 -1.730944 23.697926
1719 0 2 0.000000 2.547740 -0.279655 24.341663
1720 0 1 0.000000 9.019874 0.706425 20.709955
1721 0 2 0.000000 9.562318 1.521933 20.633392
1722 0 2 0.000000 8.119893 1.031340 20.797226
1723 0 1 0.000000 11.239814 -4.509760 23.436281
1724 0 2 0.000000 10.542224 -4.583901 24.051800
1725 0 2 0.000000 10.768638 -4.775455 22.641476
1726 0 1 0.000000 4.709682 0.344469 22.200377
1727 0 2 0.000000 4.829259 -0.473795 22.697811
1728 0 2 0.000000 3.981670 0.926420 22.591137
1729 0 1 0.000000 -14.455815 -24.470562 29.228249
1730 0 2 0.000000 -13.998172 -23.992914 29.927246
1731 0 2 0.000000 -15.222895 -23.937828 29.021450
1732 0 1 0.000000 -13.622008 -17.665478 26.486223
1733 0 2 0.000000 -14.336192 -18.006180 27.025528
1734 0 2 0.000000 -14.074088 -16.940161 25.996641
1735 0 1 0.000000 -8.418616 -19.174404 24.856728
1736 0 2 0.000000 -8.811934 -20.034632 24.898579
1737 0 2 0.000000 -8.300740 -18.948664 25.778519
1738 0 1 0.000000 -14.922203 -20.948181 28.754093
1739 0 2 0.000000 -15.691497 -21.515621 28.704704
1740 0 2 0.000000 -14.150607 -21.482212 28.419228
1741 0 1 0.000000 -17.145365 -16.071177 26.234472
1742 0 2 0.000000 -16.483204 -15.970075 26.946257
1743 0 2 0.000000 -16.560923 -16.054922 25.463768
1744 0 1 0.000000 -10.439914 -21.077751 27.199158
1745 0 2 0.000000 -10.504824 -20.068092 26.901758
1746 0 2 0.000000 -9.727630 -21.447174 26.634266
1747 0 1 0.000000 -11.857632 -14.784815 25.657942
1748 0 2 0.000000 -11.037315 -15.108793 25.999043
1749 0 2 0.000000 -11.980865 -15.437620 24.871820
1750 0 1 0.000000 -12.637097 -22.565529 27.940075
1751 0 2 0.000000 -11.779947 -22.119585 27.637398
1752 0 2 0.000000 -12.352895 -23.061550 28.758989
1753 0 1 0.000000 -17.731556 -20.345860 29.921772
1754 0 2 0.000000 -17.807560 -20.516457 28.968452
1755 0 2 0.000000 -17.804388 -19.316244 29.913874
1756 0 1 0.000000 -10.990287 -18.473269 26.287310
1757 0 2 0.000000 -10.569536 -17.603884 26.121454
1758 0 2 0.000000 -11.907526 -18.273939 26.296106
1759 0 1 0.000000 -8.888617 -23.383348 28.684994
1760 0 2 0.000000 -9.487492 -23.345564 29.474842
1761 0 2 0.000000 -9.374488 -23.418921 27.899527
1762 0 1 0.000000 -15.822205 -18.581364 27.681793
1763 0 2 0.000000 -15.537191 -19.446159 28.109659
1764 0 2 0.000000 -16.618622 -18.251554 28.031641
1765 0 1 0.000000 -6.941034 -24.647507 29.679657
1766 0 2 0.000000 -6.538619 -23.959555 30.182510
1767 0 2 0.000000 -7.654683 -24.235682 29.072653
1768 0 1 0.000000 -5.904259 -16.991352 26.607508
1769 0 2 0.000000 -6.724347 -17.375925 26.919621
1770 0 2 0.000000 -6.126785 -16.547966 25.778534
1771 0 1 0.000000 -0.757717 -19.014904 25.089340
1772 0 2 0.000000 -0.738076 -19.945660 25.414289
1773 0 2 0.000000 -0.507822 -18.565676 25.916576
1774 0 1 0.000000 -7.364837 -20.782261 28.820225
1775 0 2 0.000000 -7.913359 -21.541712 28.709911
1776 0 2 0.000000 -6.485775 -21.093849 28.754665
1777 0 1 0.000000 -9.380259 -16.185051 26.182652
1778 0 2 0.000000 -8.830502 -15.900702 26.946976
1779 0 2 0.000000 -8.743695 -16.245647 25.441957
1780 0 1 0.000000 -2.838061 -20.693111 27.244453
1781 0 2 0.000000 -3.009593 -19.796244 26.883205
1782 0 2 0.000000 -2.232803 -21.249878 26.735336
1783 0 1 0.000000 -3.861874 -14.447523 25.699678
1784 0 2 0.000000 -3.091336 -14.989207 25.787930
1785 0 2 0.000000 -4.311764 -14.898801 25.011806
1786 0 1 0.000000 -4.877307 -21.999794 28.347698
1787 0 2 0.000000 -4.177809 -21.597210 27.799263
1788 0 2 0.000000 -4.417833 -22.665649 29.014908
1789 0 1 0.000000 -10.438262 -20.125328 29.805458
1790 0 2 0.000000 -10.200784 -20.568413 28.931263
1791 0 2 0.000000 -10.075331 -19.208572 29.788872
1792 0 1 0.000000 -3.446204 -18.240555 26.234491
1793 0 2 0.000000 -2.871049 -17.473198 26.089905
1794 0 2 0.000000 -4.354561 -17.906738 26.374813
1795 0 1 0.000000 -1.551964 -23.076025 28.810860
1796 0 2 0.000000 -2.284637 -23.219082 29.466072
1797 0 2 0.000000 -1.909274 -23.095085 27.943268
1798 0 1 0.000000 -7.886818 -18.470371 27.389313
1799 0 2 0.000000 -7.547674 -19.220556 27.882273
1800 0 2 0.000000 -8.586127 -18.021324 27.981426
1801 0 1 0.000000 0.656396 -24.734238 29.321680
1802 0 2 0.000000 0.725169 -24.132589 30.102137
1803 0 2 0.000000 -0.181543 -24.545460 28.979111
1804 0 1 0.000000 1.861487 -17.074718 26.597818
1805 0 2 0.000000 1.232173 -17.440350 27.239140
1806 0 2 0.000000 1.383870 -16.467552 26.012857
1807 0 1 0.000000 7.198127 -18.998163 24.536060
1808 0 2 0.000000 7.020776 -19.966469 24.756153
1809 0 2 0.000000 7.200717 -18.617851 25.440372
1810 0 1 0.000000 0.450024 -21.023247 28.573002
1811 0 2 0.000000 -0.222978 -21.706524 28.740322
1812 0 2 0.000000 1.232681 -21.580914 28.635067
1813 0 1 0.000000 -1.759405 -16.176153 26.355791
1814 0 2 0.000000 -1.529672 -15.799471 27.245832
1815 0 2 0.000000 -1.053093 -15.916397 25.790106
1816 0 1 0.000000 4.928864 -20.770781 27.299740
1817 0 2 0.000000 4.755871 -19.955120 26.904106
1818 0 2 0.000000 5.572608 -21.141687 26.666906
1819 0 1 0.000000 3.905161 -14.891195 25.669781
1820 0 2 0.000000 4.736773 -15.171106 26.045349
1821 0 2 0.000000 3.778247 -15.460085 24.874653
1822 0 1 0.000000 2.781578 -22.226807 28.232937
1823 0 2 0.000000 3.520292 -21.720894 27.967239
1824 0 2 0.000000 3.177725 -22.950527 28.840580
1825 0 1 0.000000 -2.379238 -19.925867 29.993570
1826 0 2 0.000000 -2.294410 -20.333761 29.090267
1827 0 2 0.000000 -1.985491 -19.052179 30.004108
1828 0 1 0.000000 4.277991 -18.356354 26.267422
1829 0 2 0.000000 4.758445 -17.516888 26.119909
1830 0 2 0.000000 3.387992 -18.073742 26.445269
1831 0 1 0.000000 6.249322 -23.524418 28.761183
1832 0 2 0.000000 5.648221 -23.696585 29.544350
1833 0 2 0.000000 5.712384 -23.650974 27.958920
1834 0 1 0.000000 -0.157139 -18.484646 27.677874
1835 0 2 0.000000 0.281178 -19.299316 27.879662
1836 0 2 0.000000 -0.742152 -18.341448 28.403019
1837 0 1 0.000000 8.917504 -24.680485 29.442959
1838 0 2 0.000000 9.171912 -23.938011 30.000389
1839 0 2 0.000000 8.065602 -24.272936 29.151802
1840 0 1 0.000000 9.647529 -17.283440 26.253160
1841 0 2 0.000000 9.046535 -17.950739 26.646458
1842 0 2 0.000000 9.050761 -16.799055 25.615063
1843 0 1 0.000000 14.961709 -18.942942 24.643295
1844 0 2 0.000000 14.759536 -19.868473 24.548035
1845 0 2 0.000000 14.909759 -18.758385 25.607231
1846 0 1 0.000000 8.038136 -21.322685 28.844799
1847 0 2 0.000000 7.321980 -21.961485 28.774071
1848 0 2 0.000000 8.804639 -21.876616 28.730175
1849 0 1 0.000000 6.150977 -16.280598 26.261795
1850 0 2 0.000000 6.636086 -16.176542 27.083761
1851 0 2 0.000000 6.897231 -16.143341 25.689108
1852 0 1 0.000000 12.684600 -20.836168 27.396349
1853 0 2 0.000000 12.612227 -19.886589 27.034006
1854 0 2 0.000000 13.212689 -21.351295 26.737762
1855 0 1 0.000000 11.468013 -14.701458 25.514652
1856 0 2 0.000000 12.227756 -15.193609 25.832291
1857 0 2 0.000000 11.194659 -15.309152 24.828602
1858 0 1 0.000000 10.440173 -22.456606 28.201668
1859 0 2 0.000000 11.068904 -21.715931 28.037968
1860 0 2 0.000000 10.905484 -22.935112 28.950668
1861 0 1 0.000000 5.262950 -20.343777 30.080587
1862 0 2 0.000000 5.265841 -20.410049 29.112335
1863 0 2 0.000000 5.240079 -19.376951 30.193302
1864 0 1 0.000000 12.172009 -18.306206 26.194344
1865 0 2 0.000000 12.819571 -17.591099 26.149673
1866 0 2 0.000000 11.333936 -17.849047 26.228134
1867 0 1 0.000000 14.379357 -23.218555 28.317839
1868 0 2 0.000000 13.794177 -23.087605 29.054138
1869 0 2 0.000000 14.073600 -23.798771 27.634342
1870 0 1 0.000000 7.499286 -18.726892 27.345041
1871 0 2 0.000000 7.777287 -19.537931 27.743391
1872 0 2 0.000000 6.834714 -18.343025 27.877378
1873 0 1 0.000000 -17.951908 -17.609451 29.263042
1874 0 2 0.000000 -17.856325 -17.042234 29.980158
1875 0 2 0.000000 -18.741777 -17.318336 28.813049
1876 0 1 0.000000 -16.771194 -9.909824 26.510433
1877 0 2 0.000000 -17.411037 -10.334751 27.083359
1878 0 2 0.000000 -17.250961 -9.234179 25.969822
1879 0 1 0.000000 -11.638650 -12.033265 24.974129
1880 0 2 0.000000 -11.591488 -12.946746 25.265312
1881 0 2 0.000000 -11.574464 -11.609152 25.835827
1882 0 1 0.000000 -18.401276 -14.253180 28.955601
1883 0 2 0.000000 -18.960117 -15.034874 28.852097
1884 0 2 0.000000 -17.509882 -14.576037 28.707018
1885 0 1 0.000000 -20.182922 -9.275043 26.342159
1886 0 2 0.000000 -19.711807 -9.138351 27.176271
1887 0 2 0.000000 -19.645340 -8.898327 25.672905
1888 0 1 0.000000 -13.914513 -13.794258 27.300568
1889 0 2 0.000000 -14.092627 -12.882526 27.061230
1890 0 2 0.000000 -13.244731 -14.260450 26.698803
1891 0 1 0.000000 -14.702990 -7.681012 25.453411
1892 0 2 0.000000 -13.908395 -8.098297 25.838043
1893 0 2 0.000000 -14.991940 -8.329522 24.809795
1894 0 1 0.000000 -15.756795 -15.438818 28.387661
1895 0 2 0.000000 -15.066311 -14.925359 27.899017
1896 0 2 0.000000 -15.355801 -16.027636 29.064421
1897 0 1 0.000000 -21.164593 -13.351564 30.084835
1898 0 2 0.000000 -21.406506 -13.445162 29.141184
1899 0 2 0.000000 -20.803991 -12.423243 30.196308
1900 0 1 0.000000 -14.223886 -11.021322 26.511784
1901 0 2 0.000000 -13.521488 -10.364428 26.327108
1902 0 2 0.000000 -15.061642 -10.513134 26.426140
1903 0 1 0.000000 -12.170006 -16.012896 28.759336
1904 0 2 0.000000 -12.849442 -16.109238 29.464222
1905 0 2 0.000000 -12.665792 -16.303173 27.957058