LAMMPS data file via MDAnalysis

         972  atoms
           0  bonds
           0  angles
           0  dihedrals
           0  impropers

           2  atom types
           0  bond types
           0  angle types
           0  dihedral types
           0  improper types

0.000000 31.164278 xlo xhi
0.000000 21.491243 ylo yhi
0.000000 37.685345 zlo zhi
-9.197045 -21.190220 -32.124252 xy xz yz


Masses

1 1.008000
2 15.999000

Atoms

1 0 1 0.000000 12.698329 0.668066 6.520695
2 0 2 0.000000 13.553905 1.079490 6.351800
3 0 2 0.000000 12.845466 -0.203017 6.828830
4 0 1 0.000000 7.733139 -1.786721 14.433235
5 0 2 0.000000 7.545566 -0.983590 13.866912
6 0 2 0.000000 7.031434 -2.452733 14.173266
10 0 1 0.000000 7.850940 1.779801 8.523776
11 0 2 0.000000 7.628259 1.920214 7.593027
12 0 2 0.000000 8.067486 2.688376 8.755240
13 0 1 0.000000 -1.999109 6.327410 4.070471
14 0 2 0.000000 -2.730783 6.837606 4.439194
15 0 2 0.000000 -2.239937 5.380495 4.004590
19 0 1 0.000000 11.757262 8.314345 7.494630
20 0 2 0.000000 10.781774 8.489800 7.337958
21 0 2 0.000000 11.856953 7.399423 7.658817
22 0 1 0.000000 12.664512 5.835387 8.662106
23 0 2 0.000000 12.053290 5.851732 9.443716
24 0 2 0.000000 12.632044 4.928574 8.320610
25 0 1 0.000000 -1.528937 1.254688 8.999262
26 0 2 0.000000 -0.851361 1.005718 8.368646
27 0 2 0.000000 -1.204821 1.907542 9.654090
31 0 1 0.000000 -3.924048 -7.154400 10.221335
32 0 2 0.000000 -4.518637 -7.824111 10.498142
33 0 2 0.000000 -3.995454 -7.055680 9.255276
34 0 1 0.000000 7.013672 -3.575937 7.984738
35 0 2 0.000000 6.925249 -4.471658 8.398115
36 0 2 0.000000 7.485583 -3.097347 8.642669
37 0 1 0.000000 14.461982 8.496117 11.248755
38 0 2 0.000000 14.938123 9.154202 10.775350
39 0 2 0.000000 13.507217 8.747088 11.234266
40 0 1 0.000000 10.775851 -7.083786 13.806282
41 0 2 0.000000 10.190106 -7.768430 14.103210
42 0 2 0.000000 10.513978 -6.592405 13.045736
43 0 1 0.000000 -10.581837 5.684082 11.415251
44 0 2 0.000000 -10.311784 6.625135 11.371949
45 0 2 0.000000 -9.975984 5.175663 10.875281
46 0 1 0.000000 11.168475 4.939702 5.321726
47 0 2 0.000000 10.984506 4.131343 4.807107
48 0 2 0.000000 10.392344 5.160623 5.870308
54 0 2 0.000000 5.985636 11.089546 2.363505
55 0 1 0.000000 12.628496 -2.492080 6.522738
56 0 2 0.000000 11.680061 -2.796316 6.346913
57 0 2 0.000000 13.118735 -3.083110 5.969190
64 0 1 0.000000 -1.976420 7.482307 9.583479
65 0 2 0.000000 -2.333466 7.378643 8.721772
66 0 2 0.000000 -1.119936 8.017403 9.563003
67 0 1 0.000000 3.613513 17.584532 2.916676
68 0 2 0.000000 3.128290 18.457825 2.926758
69 0 2 0.000000 4.378731 17.779467 3.484228
70 0 1 0.000000 12.057122 6.728442 3.125482
71 0 2 0.000000 11.342659 6.236701 3.578029
72 0 2 0.000000 11.553424 7.506998 2.768165
76 0 1 0.000000 -10.275085 14.146620 7.347923
77 0 2 0.000000 -9.606524 14.776981 7.720311
78 0 2 0.000000 -11.063016 14.678880 7.436905
79 0 1 0.000000 -7.671356 6.267148 6.724578
80 0 2 0.000000 -8.241095 5.570429 6.390082
81 0 2 0.000000 -6.698617 6.160003 6.438311
88 0 1 0.000000 21.558411 -1.682522 4.978406
89 0 2 0.000000 22.384550 -1.408975 5.337042
90 0 2 0.000000 21.191961 -2.500648 5.418446
91 0 1 0.000000 11.783940 -2.326128 10.017311
92 0 2 0.000000 12.407618 -2.906410 9.569750
93 0 2 0.000000 11.146675 -2.003771 9.356963
94 0 1 0.000000 8.373381 -3.137058 10.545497
95 0 2 0.000000 7.451415 -3.111249 10.871766
96 0 2 0.000000 8.786127 -2.517743 11.145357
97 0 1 0.000000 -9.823582 -6.945521 14.310656
98 0 2 0.000000 -9.622638 -6.059279 14.617788
99 0 2 0.000000 -10.665649 -7.255719 14.667797
100 0 1 0.000000 -8.715486 -2.734143 12.337313
101 0 2 0.000000 -8.377206 -1.974145 12.814393
102 0 2 0.000000 -8.404305 -2.801843 11.436131
103 0 1 0.000000 13.900428 4.870140 5.856722
104 0 2 0.000000 14.163510 5.545405 5.211193
105 0 2 0.000000 12.937834 4.914938 5.857481
106 0 1 0.000000 5.807994 6.189821 10.750343
107 0 2 0.000000 6.286315 6.595201 10.017335
108 0 2 0.000000 5.544211 6.959737 11.252048
109 0 1 0.000000 -0.003001 1.559134 13.067409
110 0 2 0.000000 -0.266496 0.747145 13.550309
111 0 2 0.000000 0.753633 1.880856 13.586705
112 0 1 0.000000 6.023866 5.858649 3.426606
113 0 2 0.000000 5.371515 5.196161 3.152122
114 0 2 0.000000 6.796087 5.900692 2.860904
115 0 1 0.000000 21.653072 1.305794 7.239299
116 0 2 0.000000 22.082195 2.003624 6.670852
117 0 2 0.000000 20.738689 1.398957 7.028952
118 0 1 0.000000 17.939657 12.789563 4.013431
119 0 2 0.000000 18.364206 11.918657 3.935834
120 0 2 0.000000 17.341492 12.609499 4.777166
121 0 1 0.000000 3.038452 3.044666 4.964537
122 0 2 0.000000 3.357408 3.662593 5.640115
123 0 2 0.000000 3.137753 3.575981 4.123640
124 0 1 0.000000 18.341759 5.257399 5.591424
125 0 2 0.000000 17.589005 5.833431 5.335660
126 0 2 0.000000 19.094700 5.640832 5.029478
127 0 1 0.000000 24.177221 -6.504762 8.925160
128 0 2 0.000000 24.649048 -6.186010 8.140425
129 0 2 0.000000 23.993885 -7.439354 8.779719
130 0 1 0.000000 -14.274635 5.369503 13.410560
131 0 2 0.000000 -13.701787 4.665942 12.994958
132 0 2 0.000000 -15.031012 5.580340 12.821195
133 0 1 0.000000 -6.899599 12.843135 2.770259
134 0 2 0.000000 -7.628187 13.292461 3.176988
135 0 2 0.000000 -6.167884 12.966760 3.378609
136 0 1 0.000000 21.251383 4.975975 7.011316
137 0 2 0.000000 20.670250 5.720106 7.218611
138 0 2 0.000000 20.678751 4.267025 6.667576
139 0 1 0.000000 18.744057 1.367219 9.897266
140 0 2 0.000000 18.353403 2.192847 10.234911
141 0 2 0.000000 18.587715 1.351197 8.958923
144 0 2 0.000000 -11.925950 3.734083 14.942502
145 0 1 0.000000 13.234233 2.899862 12.838696
146 0 2 0.000000 14.108223 2.493768 12.934924
147 0 2 0.000000 13.371787 3.815727 13.084873
148 0 1 0.000000 20.772139 11.836509 2.278493
151 0 1 0.000000 -10.480883 5.203542 14.137335
152 0 2 0.000000 -10.651222 5.144335 13.222657
153 0 2 0.000000 -9.502445 5.382329 14.132616
154 0 1 0.000000 -6.722147 -5.323864 12.977980
155 0 2 0.000000 -7.218935 -5.608612 12.202996
156 0 2 0.000000 -7.373676 -5.440307 13.627230
157 0 1 0.000000 12.440536 5.830612 12.445000
158 0 2 0.000000 13.360783 5.821326 12.113017
159 0 2 0.000000 12.473916 6.500660 13.155278
160 0 1 0.000000 -13.252204 8.098103 12.931985
161 0 2 0.000000 -12.770587 8.193200 13.788089
162 0 2 0.000000 -13.402913 7.126225 12.839506
163 0 1 0.000000 6.647049 15.566131 5.790645
164 0 2 0.000000 5.945281 15.440391 6.416957
165 0 2 0.000000 6.742947 14.754970 5.239075
166 0 1 0.000000 7.581022 2.342453 5.669866
167 0 2 0.000000 8.471634 2.206952 5.446724
168 0 2 0.000000 7.458765 3.334091 5.559453
169 0 1 0.000000 -0.043191 5.647164 7.032681
170 0 2 0.000000 -0.976127 5.295768 6.994152
171 0 2 0.000000 0.225807 5.335138 7.920642
172 0 1 0.000000 -3.937964 14.233315 4.893396
173 0 2 0.000000 -4.308814 13.333898 4.878889
174 0 2 0.000000 -2.972278 14.123753 4.801973
175 0 1 0.000000 6.528745 -5.720516 9.796526
176 0 2 0.000000 6.130692 -6.462984 9.265130
177 0 2 0.000000 5.806188 -5.246182 10.225054
181 0 1 0.000000 15.571064 1.802378 12.363500
182 0 2 0.000000 15.452920 1.488009 11.421300
183 0 2 0.000000 15.840684 1.034461 12.923092
184 0 1 0.000000 0.125405 9.042301 10.041194
185 0 2 0.000000 0.373960 9.854537 9.603923
186 0 2 0.000000 0.532311 9.111791 10.925406
187 0 1 0.000000 9.573181 12.505471 2.615495
188 0 2 0.000000 9.736088 11.680449 3.152492
189 0 2 0.000000 9.974491 13.298998 3.050935
196 0 1 0.000000 13.733069 -12.686602 15.030305
197 0 2 0.000000 13.753820 -12.730812 14.091784
202 0 1 0.000000 6.052110 -3.649458 13.652985
203 0 2 0.000000 6.371994 -4.567614 13.729252
204 0 2 0.000000 5.593617 -3.667414 12.804798
208 0 1 0.000000 13.566802 -5.800523 7.351738
209 0 2 0.000000 13.028764 -6.170505 8.054558
210 0 2 0.000000 12.962339 -5.908392 6.599573
211 0 1 0.000000 2.207056 13.028848 6.075375
212 0 2 0.000000 1.489739 13.257236 6.657780
213 0 2 0.000000 1.987460 12.267927 5.465463
214 0 1 0.000000 12.288149 -9.623000 12.411077
215 0 2 0.000000 12.374177 -9.461843 13.365008
216 0 2 0.000000 13.155863 -9.294371 12.132207
220 0 1 0.000000 4.299034 10.094211 5.804454
221 0 2 0.000000 4.134846 10.618177 6.622614
222 0 2 0.000000 3.558291 9.992388 5.243680
226 0 1 0.000000 4.676746 -10.566993 13.764488
227 0 2 0.000000 3.874060 -10.675717 14.325339
228 0 2 0.000000 5.339945 -11.077936 14.254541
233 0 2 0.000000 6.681123 -12.852219 14.924767
235 0 1 0.000000 13.338792 -0.377202 11.011048
236 0 2 0.000000 12.792056 -0.982268 10.415707
237 0 2 0.000000 13.625091 0.380152 10.489306
238 0 1 0.000000 9.006928 8.994608 7.294081
239 0 2 0.000000 8.209780 8.970542 7.861017
240 0 2 0.000000 8.829249 9.381041 6.427288
244 0 1 0.000000 -4.511226 -0.201085 14.217479
245 0 2 0.000000 -4.352022 -0.413557 13.278731
246 0 2 0.000000 -3.676698 0.007419 14.697609
247 0 1 0.000000 9.250168 4.175562 13.362940
248 0 2 0.000000 9.873178 3.857019 12.721394
249 0 2 0.000000 9.767183 4.729064 14.014860
250 0 1 0.000000 -0.243720 9.110400 4.402379
251 0 2 0.000000 -0.472467 8.633152 5.211162
252 0 2 0.000000 -0.578830 8.606013 3.650380
255 0 2 0.000000 18.630413 -4.854705 14.525031
256 0 1 0.000000 7.374693 0.322608 12.987734
257 0 2 0.000000 7.990629 -0.137771 12.407654
258 0 2 0.000000 6.742126 0.778723 12.385690
261 0 2 0.000000 -6.302943 -7.277950 14.636370
262 0 1 0.000000 6.312097 11.056356 4.389836
263 0 2 0.000000 6.846883 11.525496 5.116545
264 0 2 0.000000 5.534240 10.699037 4.787332
265 0 1 0.000000 8.637216 4.686414 9.621319
266 0 2 0.000000 7.966245 4.431059 10.299534
267 0 2 0.000000 9.318777 5.190370 10.097271
268 0 1 0.000000 7.902669 -10.368597 13.063267
269 0 2 0.000000 7.611774 -11.275333 12.958373
270 0 2 0.000000 7.480966 -9.858305 12.414826
271 0 1 0.000000 2.459380 4.008494 13.567947
272 0 2 0.000000 3.275386 4.447983 13.804314
273 0 2 0.000000 1.976698 4.698372 13.079911
274 0 1 0.000000 0.418183 3.720027 2.743608
275 0 2 0.000000 0.619618 4.201287 3.568948
276 0 2 0.000000 0.242676 2.839016 3.033879
277 0 1 0.000000 -1.474486 -5.641162 13.414055
278 0 2 0.000000 -1.095318 -5.991199 12.604733
279 0 2 0.000000 -1.864798 -4.730628 13.238332
280 0 1 0.000000 22.363703 -9.029156 11.232108
281 0 2 0.000000 21.782553 -9.350336 10.543089
282 0 2 0.000000 23.221636 -9.023760 10.835929
286 0 1 0.000000 -1.566471 -10.501874 14.424659
287 0 2 0.000000 -1.867241 -11.422081 14.545629
288 0 2 0.000000 -2.395435 -10.075603 14.233136
289 0 1 0.000000 -9.120605 4.087577 9.615948
290 0 2 0.000000 -9.204390 3.133629 9.736659
291 0 2 0.000000 -9.618755 4.411555 8.878567
292 0 1 0.000000 1.907928 -4.616280 11.058819
293 0 2 0.000000 2.477513 -4.570982 10.269684
294 0 2 0.000000 1.707394 -5.525754 11.209496
295 0 1 0.000000 -12.249287 10.249860 8.287953
296 0 2 0.000000 -11.289849 10.304799 8.068037
297 0 2 0.000000 -12.400262 9.938803 9.149563
298 0 1 0.000000 -5.152372 -3.135238 12.993441
299 0 2 0.000000 -5.546291 -2.354578 12.685376
300 0 2 0.000000 -5.863912 -3.800244 13.117237
301 0 1 0.000000 -4.406137 9.552101 11.452761
302 0 2 0.000000 -5.118509 9.490741 10.730763
303 0 2 0.000000 -4.733184 10.144797 12.206570
304 0 1 0.000000 8.689814 -6.231461 11.497957
305 0 2 0.000000 9.486278 -5.697209 11.389607
306 0 2 0.000000 8.086028 -5.758050 10.878302
307 0 1 0.000000 10.232053 1.337020 5.352010
308 0 2 0.000000 9.803996 0.586336 5.787753
309 0 2 0.000000 11.214589 1.201385 5.465624
310 0 1 0.000000 0.226033 -3.130839 4.303056
311 0 2 0.000000 -0.747534 -3.125776 4.312704
312 0 2 0.000000 0.595035 -3.001805 3.376232
313 0 1 0.000000 17.282904 9.348989 6.013195
314 0 2 0.000000 16.597504 9.976881 5.675817
315 0 2 0.000000 17.565252 9.752374 6.840603
316 0 1 0.000000 -10.098029 11.186559 11.691342
317 0 2 0.000000 -10.349996 11.143035 12.637008
318 0 2 0.000000 -10.441998 11.966365 11.258420
319 0 1 0.000000 11.349628 11.440813 9.390671
320 0 2 0.000000 10.415867 11.652354 9.581014
321 0 2 0.000000 11.348849 11.459945 8.402261
322 0 1 0.000000 2.949528 6.486477 6.170255
323 0 2 0.000000 2.264844 6.291437 5.531762
324 0 2 0.000000 2.730654 7.279754 6.615133
327 0 2 0.000000 5.976301 20.014582 2.529384
331 0 1 0.000000 9.052745 6.013752 6.989315
332 0 2 0.000000 8.672576 5.429165 7.650196
333 0 2 0.000000 9.068330 6.922727 7.351337
334 0 1 0.000000 10.094980 -4.934650 8.573482
335 0 2 0.000000 10.687356 -5.361081 9.218446
336 0 2 0.000000 9.674012 -4.200689 9.031743
337 0 1 0.000000 17.436544 12.438750 7.126187
338 0 2 0.000000 17.920359 11.841285 7.707435
339 0 2 0.000000 16.521292 12.254106 7.369843
340 0 1 0.000000 -4.628265 11.477277 4.723898
341 0 2 0.000000 -4.285558 11.005350 5.475971
342 0 2 0.000000 -5.550287 11.383089 4.860627
343 0 1 0.000000 18.804390 -0.610127 4.734476
344 0 2 0.000000 19.419552 -1.289019 5.065048
345 0 2 0.000000 18.455067 -1.068214 3.958380
346 0 1 0.000000 4.965725 4.592795 14.784240
347 0 2 0.000000 5.579587 5.146342 14.229299
349 0 1 0.000000 -6.872803 2.391484 6.009562
350 0 2 0.000000 -7.444448 2.981328 5.495601
351 0 2 0.000000 -6.886744 2.697098 6.991198
352 0 1 0.000000 25.392412 -5.087200 6.340663
353 0 2 0.000000 25.183399 -5.781225 5.703108
354 0 2 0.000000 25.589157 -4.282420 5.851656
358 0 1 0.000000 16.226074 -1.299046 5.707099
359 0 2 0.000000 16.179167 -1.252414 6.669836
360 0 2 0.000000 17.072775 -0.857766 5.484344
361 0 1 0.000000 5.343540 8.932868 11.833683
362 0 2 0.000000 4.591863 8.445494 12.146305
363 0 2 0.000000 5.066779 9.399078 11.008267
364 0 1 0.000000 25.836294 4.042493 2.942954
365 0 2 0.000000 25.995872 4.960237 2.647541
366 0 2 0.000000 26.702106 3.630016 2.807670
367 0 1 0.000000 15.004480 7.245667 7.808929
368 0 2 0.000000 15.065384 7.164174 6.799264
369 0 2 0.000000 14.285078 6.646214 8.131325
370 0 1 0.000000 -10.885900 -0.977661 11.921387
371 0 2 0.000000 -11.103614 -1.127696 10.949828
372 0 2 0.000000 -10.218693 -1.642253 12.194132
373 0 1 0.000000 15.473888 -1.277651 12.794776
374 0 2 0.000000 14.648507 -1.251862 12.273147
375 0 2 0.000000 15.296332 -1.096059 13.683798
376 0 1 0.000000 -4.296176 -1.321134 6.940662
377 0 2 0.000000 -4.359159 -0.383382 7.264547
378 0 2 0.000000 -3.512108 -1.838950 7.186928
379 0 1 0.000000 7.788214 -3.885453 4.934511
380 0 2 0.000000 7.254149 -3.894336 5.758867
381 0 2 0.000000 8.726425 -3.953779 5.297099
382 0 1 0.000000 10.644033 -1.231725 7.873454
383 0 2 0.000000 10.473180 -0.406436 8.333181
384 0 2 0.000000 9.777617 -1.347017 7.462749
385 0 1 0.000000 6.977616 4.332429 12.098995
386 0 2 0.000000 7.759788 4.767356 12.549657
387 0 2 0.000000 6.516806 5.131441 11.720495
388 0 1 0.000000 15.011532 5.808938 11.419963
389 0 2 0.000000 14.827486 6.780364 11.365907
390 0 2 0.000000 15.260391 5.523157 10.553991
391 0 1 0.000000 4.349181 12.095619 7.973936
392 0 2 0.000000 4.986532 12.734804 8.327509
393 0 2 0.000000 3.588474 12.575917 7.594072
400 0 1 0.000000 -5.130642 5.283833 5.543026
401 0 2 0.000000 -5.231345 5.997019 4.876459
402 0 2 0.000000 -5.255954 4.565334 4.900065
403 0 1 0.000000 1.280887 -2.710270 12.898373
404 0 2 0.000000 1.404774 -3.055655 13.809008
405 0 2 0.000000 1.479887 -3.383735 12.250143
406 0 1 0.000000 -5.780119 8.330326 9.370530
407 0 2 0.000000 -6.737960 8.304435 9.500331
408 0 2 0.000000 -5.675179 8.701063 8.453020
409 0 1 0.000000 0.944639 1.221992 7.236972
410 0 2 0.000000 1.864923 1.496281 7.462420
411 0 2 0.000000 0.588158 1.852221 6.585876
412 0 1 0.000000 19.529837 15.028621 4.038106
413 0 2 0.000000 19.610569 15.508932 3.204941
414 0 2 0.000000 18.850370 14.299353 3.946866
415 0 1 0.000000 16.002823 -4.092974 12.658993
416 0 2 0.000000 16.190622 -4.741740 13.392368
417 0 2 0.000000 16.001801 -3.229188 13.060896
418 0 1 0.000000 -1.931351 -2.747744 7.388125
419 0 2 0.000000 -1.126739 -2.169377 7.272168
420 0 2 0.000000 -1.938493 -3.078820 8.294637
421 0 1 0.000000 3.141280 2.720832 8.416494
422 0 2 0.000000 3.221889 2.481248 9.362614
423 0 2 0.000000 3.863472 3.324605 8.243608
424 0 1 0.000000 -4.238192 -6.712478 13.520434
425 0 2 0.000000 -3.277879 -6.449406 13.381129
426 0 2 0.000000 -4.721151 -6.176341 12.905379
427 0 1 0.000000 14.695041 -3.527131 4.713755
428 0 2 0.000000 15.022717 -4.429571 4.953260
429 0 2 0.000000 15.267655 -2.814282 4.965956
430 0 1 0.000000 22.602810 3.776474 4.165231
431 0 2 0.000000 22.903984 4.658998 3.931175
432 0 2 0.000000 21.712221 3.921358 4.488129
433 0 1 0.000000 20.963625 -4.155506 5.873130
434 0 2 0.000000 20.076437 -4.230374 6.296189
435 0 2 0.000000 21.637337 -4.262816 6.582658
439 0 1 0.000000 4.410823 0.821154 5.805976
440 0 2 0.000000 5.146709 0.476169 5.327065
441 0 2 0.000000 4.211980 1.771248 5.588862
442 0 1 0.000000 3.757297 0.151969 14.795516
444 0 2 0.000000 3.664731 -0.110768 13.844097
445 0 1 0.000000 -2.207326 5.508152 11.357554
446 0 2 0.000000 -3.125131 5.195071 11.443415
447 0 2 0.000000 -2.133323 6.237113 10.692871
448 0 1 0.000000 -9.665834 10.575048 7.559809
449 0 2 0.000000 -9.273936 9.743245 7.294435
450 0 2 0.000000 -9.732208 11.186090 6.743043
451 0 1 0.000000 -3.795392 -4.544934 11.136527
452 0 2 0.000000 -4.550945 -4.073547 11.524422
453 0 2 0.000000 -4.080078 -5.397562 10.779902
457 0 1 0.000000 0.425828 3.355328 5.497806
458 0 2 0.000000 0.285391 4.218609 5.937751
459 0 2 0.000000 1.337187 3.434769 5.146746
461 0 2 0.000000 -11.012474 7.525482 14.884200
463 0 1 0.000000 7.185806 -6.244169 13.633750
464 0 2 0.000000 7.554314 -6.201574 14.512985
465 0 2 0.000000 7.905666 -6.240519 13.034855
469 0 1 0.000000 -1.584923 8.362737 12.633949
470 0 2 0.000000 -0.761086 7.894264 12.839900
471 0 2 0.000000 -2.034145 7.683498 12.191352
472 0 1 0.000000 -2.798201 19.003300 2.250135
473 0 2 0.000000 -2.681062 18.055975 2.295053
474 0 2 0.000000 -3.578282 19.069611 2.812682
475 0 1 0.000000 -6.360593 3.567847 8.432984
476 0 2 0.000000 -5.852436 4.410491 8.281119
477 0 2 0.000000 -7.186595 3.827312 8.832427
478 0 1 0.000000 -0.570926 6.142796 14.826946
482 0 2 0.000000 8.426938 2.895006 14.537390
484 0 1 0.000000 19.241341 -6.436013 8.738110
485 0 2 0.000000 19.863111 -5.694880 8.825693
486 0 2 0.000000 19.430664 -7.071483 9.436553
489 0 2 0.000000 -5.570927 1.218332 14.863503
490 0 1 0.000000 22.501507 -1.812494 2.369989
491 0 2 0.000000 23.340868 -2.331549 2.314497
492 0 2 0.000000 22.129799 -1.809017 3.243829
493 0 1 0.000000 3.691808 -0.128392 8.396689
494 0 2 0.000000 4.507234 -0.063704 8.862057
495 0 2 0.000000 3.786834 0.336911 7.534665
496 0 1 0.000000 9.835183 13.706258 6.445841
497 0 2 0.000000 9.847657 14.174068 5.630059
498 0 2 0.000000 9.777987 14.297710 7.152531
504 0 2 0.000000 7.276402 15.452066 2.591301
505 0 1 0.000000 22.573223 9.828105 3.513149
506 0 2 0.000000 23.237356 9.941480 2.830069
507 0 2 0.000000 21.996315 10.604749 3.497535
508 0 1 0.000000 2.146917 -7.765030 14.189153
509 0 2 0.000000 3.086621 -7.583978 14.384542
510 0 2 0.000000 2.074109 -8.694864 14.327690
511 0 1 0.000000 4.020265 4.230266 2.606300
512 0 2 0.000000 4.210738 3.277192 2.533311
514 0 1 0.000000 -0.833507 3.205140 10.905220
515 0 2 0.000000 -0.738660 2.677284 11.714436
516 0 2 0.000000 -1.339169 3.987371 11.076187
517 0 1 0.000000 15.788713 -0.609097 8.408205
518 0 2 0.000000 15.324273 -1.482891 8.558679
519 0 2 0.000000 16.370064 -0.620256 9.195463
520 0 1 0.000000 -8.709347 14.500781 3.844394
521 0 2 0.000000 -9.620855 14.369113 4.118362
522 0 2 0.000000 -8.267291 15.126167 4.458456
523 0 1 0.000000 10.437749 6.437442 10.623638
524 0 2 0.000000 9.804995 6.914754 11.170140
525 0 2 0.000000 11.140582 6.245366 11.283807
526 0 1 0.000000 1.936460 10.677312 4.204527
527 0 2 0.000000 1.263756 10.026177 4.308109
528 0 2 0.000000 2.423940 10.457102 3.373641
529 0 1 0.000000 -5.268893 16.379978 3.763324
530 0 2 0.000000 -4.565154 15.736824 3.965248
531 0 2 0.000000 -5.299235 16.592842 2.864093
533 0 2 0.000000 16.543135 13.486524 2.457810
535 0 1 0.000000 1.291062 9.486189 12.906035
536 0 2 0.000000 1.724489 10.361252 12.727598
537 0 2 0.000000 0.923341 9.460701 13.783060
538 0 1 0.000000 21.341339 -4.569814 9.048208
539 0 2 0.000000 22.219666 -4.500850 8.632145
540 0 2 0.000000 21.499847 -4.896314 10.000340
541 0 1 0.000000 -9.587821 1.385548 9.921521
542 0 2 0.000000 -10.551808 1.238749 10.027520
543 0 2 0.000000 -9.487676 1.286198 8.953797
544 0 1 0.000000 15.870158 8.120187 2.702181
545 0 2 0.000000 15.579233 9.036120 2.605278
546 0 2 0.000000 16.710852 8.136223 2.233840
547 0 1 0.000000 -10.740403 7.432116 7.770283
548 0 2 0.000000 -10.851409 7.741768 6.846954
549 0 2 0.000000 -11.682223 7.515886 8.100341
550 0 1 0.000000 -2.358120 -3.482701 4.884198
551 0 2 0.000000 -2.080769 -3.444848 5.854775
552 0 2 0.000000 -2.308923 -4.406042 4.631197
556 0 1 0.000000 9.805718 -3.558604 14.659160
557 0 2 0.000000 9.117325 -2.929948 14.468789
559 0 1 0.000000 -13.962694 9.749947 10.879816
560 0 2 0.000000 -14.053614 9.018722 10.296233
561 0 2 0.000000 -13.637940 9.352324 11.695501
568 0 1 0.000000 13.385546 15.830954 3.640647
569 0 2 0.000000 13.699688 16.179108 2.831343
570 0 2 0.000000 12.835977 16.546190 4.014447
571 0 1 0.000000 -5.669628 -9.242718 11.520679
572 0 2 0.000000 -5.382126 -10.065836 11.149565
573 0 2 0.000000 -5.444671 -9.305215 12.458795
574 0 1 0.000000 -5.713280 9.506935 6.974992
575 0 2 0.000000 -5.939467 10.387639 7.219958
576 0 2 0.000000 -6.520341 9.114380 6.551303
577 0 1 0.000000 18.811144 1.070780 7.180122
578 0 2 0.000000 18.454651 1.813971 6.657677
579 0 2 0.000000 18.553074 0.197248 6.781138
580 0 1 0.000000 8.245872 -8.447342 9.712722
581 0 2 0.000000 7.673648 -9.295630 9.925339
582 0 2 0.000000 8.112659 -7.802421 10.401431
583 0 1 0.000000 28.644117 -1.650715 2.126879
584 0 2 0.000000 28.847977 -1.361086 3.069434
585 0 2 0.000000 28.280365 -2.572615 2.213588
586 0 1 0.000000 19.936369 5.512508 3.175824
587 0 2 0.000000 20.501600 5.137947 2.431374
588 0 2 0.000000 19.381514 6.179965 2.766068
589 0 1 0.000000 -4.274819 1.764736 5.215188
590 0 2 0.000000 -5.204010 1.902779 5.354750
591 0 2 0.000000 -3.873868 2.603427 4.884426
592 0 1 0.000000 -4.359616 9.641798 2.809805
593 0 2 0.000000 -4.237128 10.421086 3.369646
596 0 2 0.000000 9.740542 -1.730819 2.507371
598 0 1 0.000000 3.531998 -8.377462 11.281873
599 0 2 0.000000 3.911121 -8.212386 12.203750
600 0 2 0.000000 3.185672 -9.245169 11.388908
601 0 1 0.000000 -0.837153 -1.156966 13.253762
602 0 2 0.000000 -1.196658 -1.008535 12.386580
603 0 2 0.000000 -0.021815 -1.608177 13.190550
604 0 1 0.000000 8.262856 5.235115 2.155511
605 0 2 0.000000 8.619126 4.392879 2.524407
607 0 1 0.000000 -2.266109 3.728224 4.207734
608 0 2 0.000000 -2.203747 3.248141 3.362308
609 0 2 0.000000 -1.576081 3.232597 4.676041
610 0 1 0.000000 17.771708 7.236266 9.065784
611 0 2 0.000000 17.881140 6.387233 9.523973
612 0 2 0.000000 16.901875 7.148771 8.652855
616 0 1 0.000000 0.049752 1.118790 3.662545
617 0 2 0.000000 0.871765 0.544321 3.845093
618 0 2 0.000000 -0.728321 0.519148 3.824104
619 0 1 0.000000 15.025091 10.929209 5.339423
620 0 2 0.000000 14.438277 10.455809 5.916437
621 0 2 0.000000 14.522241 11.239253 4.571197
622 0 1 0.000000 -4.195693 -9.417906 13.930536
623 0 2 0.000000 -4.104332 -8.457644 14.019592
624 0 2 0.000000 -4.290277 -9.761673 14.820593
630 0 2 0.000000 5.116799 1.282191 14.914107
631 0 1 0.000000 12.088687 -6.520743 9.493960
632 0 2 0.000000 12.731700 -6.295772 10.174120
633 0 2 0.000000 11.715081 -7.418965 9.647179
634 0 1 0.000000 10.073404 10.398093 4.534634
635 0 2 0.000000 10.924049 10.066388 4.163385
636 0 2 0.000000 9.386004 9.696640 4.544393
638 0 2 0.000000 -0.155850 -5.885495 14.481645
640 0 1 0.000000 2.951197 5.833378 9.875016
641 0 2 0.000000 2.404828 5.149804 9.460411
642 0 2 0.000000 3.884381 5.584629 9.664271
643 0 1 0.000000 -6.001639 4.371706 13.812156
644 0 2 0.000000 -5.997078 3.603529 14.421097
645 0 2 0.000000 -5.156757 4.756318 14.044558
646 0 1 0.000000 3.219757 7.389017 12.524563
647 0 2 0.000000 2.471389 7.979393 12.754371
648 0 2 0.000000 3.039905 6.911095 11.690264
649 0 1 0.000000 12.764495 2.942475 8.266013
650 0 2 0.000000 12.398769 2.452601 7.556042
651 0 2 0.000000 13.407388 2.351924 8.719143
655 0 1 0.000000 -3.152148 10.948952 7.033697
656 0 2 0.000000 -2.373090 10.896316 6.444005
657 0 2 0.000000 -3.018947 10.310676 7.706551
658 0 1 0.000000 14.990860 1.575350 9.646116
659 0 2 0.000000 15.388511 0.955378 9.010188
660 0 2 0.000000 15.336837 2.434660 9.366905
661 0 1 0.000000 4.505019 4.459620 6.881703
662 0 2 0.000000 3.893975 5.195925 6.807454
663 0 2 0.000000 5.410316 4.771146 6.760136
664 0 1 0.000000 -2.267756 -0.273228 4.573823
665 0 2 0.000000 -1.980223 -0.648254 5.414320
666 0 2 0.000000 -3.140256 0.108596 4.757914
673 0 1 0.000000 -8.005356 -0.632805 13.901325
674 0 2 0.000000 -8.150759 0.254913 14.307921
675 0 2 0.000000 -7.912042 -1.316376 14.633437
676 0 1 0.000000 14.285830 -2.991319 8.841402
677 0 2 0.000000 13.781407 -2.729074 8.039813
678 0 2 0.000000 14.615143 -3.875639 8.587611
679 0 1 0.000000 5.734755 7.822670 6.123856
680 0 2 0.000000 5.406601 7.146901 5.534524
681 0 2 0.000000 5.214422 8.584714 5.947366
688 0 1 0.000000 2.893832 8.402842 8.109818
689 0 2 0.000000 2.680052 7.610892 8.718906
690 0 2 0.000000 2.097440 8.948426 7.972698
691 0 1 0.000000 8.367951 -1.369682 3.888734
692 0 2 0.000000 7.808261 -2.166748 3.827839
693 0 2 0.000000 7.896427 -0.685403 3.411051
694 0 1 0.000000 -8.286836 8.304371 13.476707
695 0 2 0.000000 -9.237051 8.401260 13.314688
696 0 2 0.000000 -8.017744 8.192522 12.545046
697 0 1 0.000000 11.662775 11.589372 6.730329
698 0 2 0.000000 11.353843 11.042142 5.998663
699 0 2 0.000000 11.144649 12.391278 6.556997
701 0 2 0.000000 -6.706033 -9.711474 14.871265
702 0 2 0.000000 -6.896277 -11.199658 14.907211
703 0 1 0.000000 7.108680 6.529100 14.405237
704 0 2 0.000000 7.496943 7.336775 14.819542
712 0 1 0.000000 -10.978334 1.892724 12.816182
713 0 2 0.000000 -10.221075 2.151220 13.328351
714 0 2 0.000000 -10.978663 0.979202 12.453308
715 0 1 0.000000 17.854620 3.245412 12.129822
716 0 2 0.000000 18.691816 2.755174 12.385702
717 0 2 0.000000 17.094595 2.655602 12.350117
718 0 1 0.000000 18.063927 -9.129095 10.442448
719 0 2 0.000000 17.474525 -9.753994 10.850475
720 0 2 0.000000 17.498205 -8.784237 9.710857
722 0 2 0.000000 24.484303 3.421990 2.110773
730 0 1 0.000000 1.180462 -2.713335 8.303432
731 0 2 0.000000 0.893459 -2.470728 7.382492
732 0 2 0.000000 1.060177 -1.998008 8.940626
736 0 1 0.000000 14.602677 5.582186 2.828496
737 0 2 0.000000 13.649749 5.827872 2.876492
738 0 2 0.000000 14.950155 6.452166 2.664242
739 0 1 0.000000 6.981619 1.370534 3.121576
740 0 2 0.000000 7.105367 1.534918 4.062272
741 0 2 0.000000 5.990178 1.373010 2.928355
742 0 1 0.000000 -5.562085 6.856788 3.391164
743 0 2 0.000000 -5.283277 7.728118 3.171716
744 0 2 0.000000 -6.538688 6.841698 3.271012
745 0 1 0.000000 7.814311 8.853917 4.575082
746 0 2 0.000000 7.090651 8.274585 4.839573
747 0 2 0.000000 7.269109 9.666883 4.430845
748 0 1 0.000000 10.220709 3.363301 3.190063
749 0 2 0.000000 11.012912 3.589406 2.708715
750 0 2 0.000000 10.328711 2.391181 3.272920
754 0 1 0.000000 6.876954 8.024381 8.584198
755 0 2 0.000000 6.516728 7.769979 7.712217
756 0 2 0.000000 6.281417 8.644839 8.967896
757 0 1 0.000000 18.408602 -7.294487 12.597689
758 0 2 0.000000 18.636814 -7.754238 11.764274
759 0 2 0.000000 18.912210 -6.486707 12.703863
760 0 1 0.000000 18.828377 9.884277 3.628401
761 0 2 0.000000 18.452826 9.504863 4.436861
762 0 2 0.000000 18.637177 9.281180 2.889027
766 0 1 0.000000 -7.410079 10.148078 11.315611
767 0 2 0.000000 -7.438724 10.159551 10.310579
768 0 2 0.000000 -8.223068 10.528045 11.629778
769 0 1 0.000000 16.065722 18.763586 2.368823
770 0 2 0.000000 16.471111 18.691906 3.269842
772 0 1 0.000000 18.266685 -4.545414 6.520242
773 0 2 0.000000 17.452324 -4.814205 6.039039
774 0 2 0.000000 18.230217 -3.596951 6.698896
775 0 1 0.000000 10.720621 14.536572 3.874514
776 0 2 0.000000 11.582524 14.398082 4.274075
777 0 2 0.000000 10.493761 15.514831 3.791953
778 0 1 0.000000 8.236320 7.590997 11.852829
779 0 2 0.000000 7.783236 7.210884 12.600985
780 0 2 0.000000 7.680130 7.331356 11.155356
787 0 1 0.000000 8.587752 7.813782 2.246585
788 0 2 0.000000 8.997138 6.972947 2.444812
789 0 2 0.000000 8.270155 8.224479 3.104313
790 0 1 0.000000 21.943832 -6.193952 11.543893
791 0 2 0.000000 22.331936 -7.015937 11.154507
792 0 2 0.000000 21.568680 -6.529207 12.326530
793 0 1 0.000000 -9.357739 -4.388638 14.245350
794 0 2 0.000000 -9.188055 -3.842864 15.019125
795 0 2 0.000000 -8.968595 -3.967399 13.470761
796 0 1 0.000000 -4.202370 1.223594 8.272318
797 0 2 0.000000 -4.450611 2.032186 7.784240
798 0 2 0.000000 -3.222552 1.228629 8.405927
799 0 1 0.000000 -7.299490 -3.993807 10.414411
800 0 2 0.000000 -7.400243 -4.899209 10.024264
801 0 2 0.000000 -6.621702 -3.553873 9.900731
802 0 1 0.000000 3.699460 -3.916132 8.932655
803 0 2 0.000000 3.691609 -4.658769 8.299848
804 0 2 0.000000 2.932911 -3.390120 8.744297
805 0 1 0.000000 17.444386 2.491543 4.740417
806 0 2 0.000000 17.247194 3.028403 3.930448
807 0 2 0.000000 17.602514 1.678649 4.209502
808 0 1 0.000000 16.505169 -5.130232 8.712781
809 0 2 0.000000 17.160418 -4.703393 9.282869
810 0 2 0.000000 17.000208 -5.308520 7.894386
811 0 1 0.000000 -7.144946 12.326649 5.773234
812 0 2 0.000000 -7.991251 12.243870 5.362418
813 0 2 0.000000 -7.250775 12.003168 6.666203
817 0 1 0.000000 15.641388 14.214944 4.641117
818 0 2 0.000000 15.013315 14.635987 4.044036
819 0 2 0.000000 15.107355 13.750328 5.310877
820 0 1 0.000000 4.780557 9.968947 9.534715
821 0 2 0.000000 4.535178 10.798206 9.129277
822 0 2 0.000000 4.079831 9.314397 9.328868
826 0 1 0.000000 -7.453241 -8.616646 13.681148
827 0 2 0.000000 -8.270578 -8.318003 14.041922
828 0 2 0.000000 -7.570735 -8.626880 12.747907
829 0 1 0.000000 -1.205288 -7.834108 10.321252
830 0 2 0.000000 -1.238571 -7.944519 9.354178
831 0 2 0.000000 -2.144557 -7.646649 10.520958
832 0 1 0.000000 26.118868 -2.760401 4.854143
833 0 2 0.000000 26.017406 -2.084778 5.557662
834 0 2 0.000000 27.093187 -2.848419 4.774118
835 0 1 0.000000 5.494141 -2.464953 10.752005
836 0 2 0.000000 4.929910 -2.754152 10.023797
837 0 2 0.000000 5.945913 -1.644084 10.465353