LAMMPS data file via write_data, version 29 Sep 2021, timestep = 400000

1920 atoms
2 atom types

-0.02965492547511772 24.754059925474202 xlo xhi
-0.07885087488624798 24.80325587488566 ylo yhi
-0.07460362149633326 22.866975621496774 zlo zhi

Masses

1 1.008
2 15.999

Atoms # full

4 0 1 0 2.841522815300223 1.6484273982000788 2.1268815010695254 0 0 0
5 0 2 0 3.163350615153367 1.800896318021292 3.059615788853966 0 0 0
6 0 2 0 3.418996834375586 2.197011191681981 1.616594833907456 0 0 0
17 0 2 0 1.0294129791958164 1.396675757314268 2.0320575074306015 0 0 0
387 0 2 0 3.7705580005127897 0.11431934139922312 1.3113135440784978 0 1 0
1455 0 2 0 1.4805297444080532 3.10411687416493 0.11090923934206484 0 0 1
11 0 2 0 2.7988460374277735 3.7875687865557324 3.7057803490618393 0 0 0
99 0 2 0 0.20487953693888752 3.944445218233996 4.129742646725608 1 0 0
16 0 1 0 0.0918451205463181 1.4737774286017244 1.9835004480812914 0 0 0
19 0 1 0 4.443768208128312 3.284125660554483 0.5505623339283195 0 0 0
2 0 2 0 5.198615667754345 1.5425796729978993 3.651804965575008 0 0 0
46 0 1 0 6.150819189964832 1.5916543287908285 2.0528134848541275 0 0 0
47 0 2 0 7.13017787669195 1.5804581588018254 2.056829476649619 0 0 0
48 0 2 0 5.884197995558861 2.234269324627952 1.3964669561549738 0 0 0
1 0 1 0 4.477646262035592 1.6745915540445409 4.27296422216926 0 0 0
386 0 2 0 5.1800662043225865 0.31403800140091453 1.3609478234407637 0 1 0
54 0 2 0 7.681274775864074 3.8670387210812986 0.7994518817445364 0 0 0
32 0 2 0 11.558589751060321 1.2836266937142713 3.283731612812364 0 0 0
34 0 1 0 8.851752698573048 1.5091567833933939 1.9962689509719973 0 0 0
35 0 2 0 9.376647809754033 1.4142896095410948 2.816345627886301 0 0 0
36 0 2 0 9.362756280414386 2.198094416075198 1.5497712143920732 0 0 0
49 0 1 0 10.641361673358716 3.277579962841613 0.8497437610890936 0 0 0
51 0 2 0 11.485770355550988 2.9186740101884747 1.19811650215323 0 0 0
416 0 2 0 9.954603619889406 -0.018889102991526657 1.3041769160227412 0 1 0
78 0 2 0 12.305545096667347 0.7045921918526055 1.5051222745799202 0 0 0
38 0 2 0 12.228008252950687 3.7516986778833212 3.936246907472756 0 0 0
31 0 1 0 10.92138394881197 1.1190153908494274 4.005238741061988 0 0 0
417 0 2 0 10.635465320823297 0.41999684301449086 0.030520776482786796 0 1 0
76 0 1 0 12.653313766251765 1.4364027576435174 2.0017929487595474 0 0 0
64 0 1 0 15.282252037804593 1.1680923719424816 2.1641845522053766 0 0 0
65 0 2 0 15.7626535045738 1.1182361849317917 3.0453996265175514 0 0 0
66 0 2 0 15.697762960025942 0.4611335784298155 1.650627612430782 0 0 0
77 0 2 0 13.592736176967913 1.131026842228098 2.09333351450837 0 0 0
80 0 2 0 16.336250154013133 2.7556048363068473 1.3806254028324951 0 0 0
75 0 2 0 14.263518244497833 3.245730871974046 4.285108435246069 0 0 0
61 0 1 0 16.78004251557752 1.3658581719139276 4.430171444058258 0 0 0
79 0 1 0 17.050606856196246 3.1729054325842174 0.85408894403551 0 0 0
62 0 2 0 17.621737878663186 1.3310246397508039 3.9914321645424105 0 0 0
106 0 1 0 18.593863233966257 1.390653165077233 2.3899636903521113 0 0 0
107 0 2 0 19.475495309245627 1.6746314927492303 2.759364342861386 0 0 0
108 0 2 0 18.052364878870613 2.0835826225850362 2.026204502457011 0 0 0
68 0 2 0 18.294498882654665 4.021333326767397 4.426369436179408 0 0 0
446 0 2 0 17.966824488632472 0.26151616334029604 1.0952453325957485 0 1 0
1545 0 2 0 19.81724610100398 3.2218331699966636 0.12349354715258676 0 0 1
81 0 2 0 16.86858367396074 2.772848029048658 -0.03129990612240349 0 0 0
18 0 2 0 24.53640245571957 0.7574763326792194 1.435675572078022 -1 0 0
92 0 2 0 23.688669247693323 1.2014069663141353 3.5923340489366398 0 0 0
94 0 1 0 21.308624024101096 1.1287723527573217 2.157257007870982 0 0 0
95 0 2 0 21.796779407315835 1.0749035181478093 3.03818596924985 0 0 0
96 0 2 0 21.61868863555867 2.017810599642206 1.8386618438270768 0 0 0
109 0 1 0 23.063133708325378 3.1043695645222424 0.5836529201742705 0 0 0
110 0 2 0 23.680478859770716 2.648493414545877 1.2295413245060949 0 0 0
476 0 2 0 22.510691949895854 0.08388818086498326 0.9821556663541144 0 1 0
91 0 1 0 22.997834033549886 1.2894054747031702 4.2448474206747475 0 0 0
111 0 2 0 23.250817950881775 4.045310285784477 0.6136265483331164 0 0 0
24 0 2 0 2.118170082216198 4.667134560621574 1.928205632934548 0 0 0
10 0 1 0 3.1200036851124113 4.647793572062397 3.4753750334972677 0 0 0
22 0 1 0 1.3201394130528026 4.545846489104429 1.4434253367537655 0 0 0
23 0 2 0 1.3855425459433788 5.2876346472687725 0.8770666040854265 0 0 0
126 0 2 0 2.0066649288562752 7.948667441216735 1.9535485851014691 0 0 0
124 0 1 0 2.9379046095340473 7.621248771895221 1.7427388852677976 0 0 0
27 0 2 0 3.8982561769974535 6.1760735572739565 1.0098423682489406 0 0 0
122 0 2 0 3.821984144906611 7.450921338043636 3.409309682780667 0 0 0
136 0 1 0 0.24767951432221802 8.061022932216027 2.0610491980983885 0 0 0
149 0 2 0 2.3059957330844196 5.945786071435762 4.357681578442868 0 0 0
98 0 2 0 0.022028304010587578 4.7429594964125075 2.8264492303777886 1 0 0
150 0 2 0 0.7834632585134421 6.043583337192725 4.282717393294741 0 0 0
137 0 2 0 0.08200886544211257 7.9815808618078385 3.0498707870505704 0 0 0
21 0 2 0 4.648456619625027 4.2442940128156295 0.5050356458732647 0 0 0
12 0 2 0 4.115218164315589 4.71466419996626 3.336142347911994 0 0 0
25 0 1 0 4.754212967197716 5.869766540567093 0.7127014964049188 0 0 0
8 0 2 0 6.392133619465146 4.1962855167604 3.090004520069197 0 0 0
7 0 1 0 5.945562023686886 4.377825462980829 3.912250820124478 0 0 0
168 0 2 0 5.99989599544378 6.855322802589112 1.7903665887981846 0 0 0
166 0 1 0 6.4741851859496995 7.571883285248353 2.1912446393172655 0 0 0
167 0 2 0 6.211982682381976 7.608456656857183 3.1310229716820723 0 0 0
52 0 1 0 7.591362433211039 4.563470068424892 1.4943625687604025 0 0 0
9 0 2 0 6.254694899974405 5.223441421974709 4.261911966189482 0 0 0
121 0 1 0 4.284582705841731 7.440219569006567 4.296582076388327 0 0 0
156 0 2 0 8.181892628306429 7.801426537153533 2.035503140292297 0 0 0
180 0 2 0 8.025560045082575 6.0527300326604685 4.275583125595971 0 0 0
1619 0 2 0 7.512431899406676 5.952530256465603 0.18708592403969554 0 0 1
26 0 2 0 4.848186119073885 6.499648874425405 -0.014188372382439925 0 0 0
42 0 2 0 8.990965783323992 4.169089176660601 4.328043963566176 0 0 0
53 0 2 0 8.46871179841058 4.616450144330041 1.9619186752469457 0 0 0
50 0 2 0 10.7188146915154 4.239087459444775 0.9672958168546109 0 0 0
41 0 2 0 10.301911923820713 4.725362675016915 3.6698503683275363 0 0 0
40 0 1 0 9.31314843361335 4.794408649404135 3.6199524995467485 0 0 0
55 0 1 0 10.880283903868573 5.9363908967622105 0.7242339566218668 0 0 0
56 0 2 0 10.160481634311369 6.481881648472339 1.1005624193294343 0 0 0
57 0 2 0 11.663250608980853 6.191797451840145 1.2279230868277164 0 0 0
154 0 1 0 9.145957970129633 7.704102342780967 2.1323186057701005 0 0 0
153 0 2 0 11.638700842048786 7.652255507493577 3.9751796910073276 0 0 0
152 0 2 0 10.099330150977352 7.786344623518926 3.604817027264557 0 0 0
151 0 1 0 10.751880475352147 7.695375361809974 4.319399126611848 0 0 0
37 0 1 0 12.093078710026662 4.5788985921967145 3.4506978152343124 0 0 0
39 0 2 0 12.715155793689789 5.208792578771814 3.8704163958842503 0 0 0
196 0 1 0 13.096274513649925 7.311565687943208 2.075531463063018 0 0 0
83 0 2 0 13.102051435597387 4.478691691476657 1.760228696513224 0 0 0
70 0 1 0 15.416216633462335 4.66994389982162 3.6189446179397726 0 0 0
72 0 2 0 15.004582563663709 4.859731161459908 2.7546172520061645 0 0 0
82 0 1 0 13.914628220257255 4.500967053091595 1.3061418396246354 0 0 0
84 0 2 0 13.874118026686538 5.260654115320454 0.7127346804829146 0 0 0
71 0 2 0 15.017841081618924 5.377437628273564 4.143150246041739 0 0 0
184 0 1 0 15.664755369876294 7.692374193935624 2.298216533851915 0 0 0
186 0 2 0 15.91030406380434 7.716186004291081 3.2610641820897905 0 0 0
198 0 2 0 13.97944228543381 7.70882623314264 2.1165221183244696 0 0 0
86 0 2 0 16.289491952993544 6.323361568980621 1.1453009419297062 0 0 0
197 0 2 0 12.671069875039246 7.845433694135092 1.4242816325187952 0 0 0
113 0 2 0 19.09748266744947 4.410872377492818 1.8694134243533298 0 0 0
87 0 2 0 16.991185582163876 4.9733406702962055 0.7270244196452865 0 0 0
85 0 1 0 16.98268657225377 5.905015713863931 0.6421205599566829 0 0 0
112 0 1 0 19.967482331410793 4.385784606864559 1.412764271162166 0 0 0
69 0 2 0 17.096700352735784 4.833984976106725 3.726893375680367 0 0 0
67 0 1 0 18.06940872157717 4.722640360218006 3.7633560327857283 0 0 0
226 0 1 0 18.66405617915324 7.533878739072575 2.22625717175719 0 0 0
228 0 2 0 18.29437010367966 6.87392185475812 1.5915636523013308 0 0 0
183 0 2 0 17.844620864017774 7.420810804693148 3.751584205670552 0 0 0
216 0 2 0 20.49588368119872 7.516393138210952 1.910688007286825 0 0 0
1679 0 2 0 20.11630884217354 5.738630645184535 -0.017052200110328215 0 0 1
240 0 2 0 19.131183797833643 5.976142393378684 4.435118475260978 0 0 0
138 0 2 0 24.672124445016124 7.198256489163097 1.70721997741363 -1 0 0
114 0 2 0 20.63449790769794 4.30970012764271 2.0936907882379474 0 0 0
97 0 1 0 24.42405279257866 4.666309151230774 3.730364343321149 0 0 0
102 0 2 0 22.696758993857088 4.3921865203640085 3.631079448432914 0 0 0
100 0 1 0 21.733636608075972 4.496369674517591 3.673830049165863 0 0 0
115 0 1 0 23.32015534722632 6.037408226540528 0.9324831644999085 0 0 0
116 0 2 0 22.48873003778366 6.348350266195629 1.3477126772526227 0 0 0
213 0 2 0 22.683411829298922 7.697026883307155 3.498216426178556 0 0 0
101 0 2 0 21.401580306763577 5.372487322086277 3.9872352457324647 0 0 0
214 0 1 0 21.458023751067426 7.680932830544665 2.016122988913691 0 0 0
211 0 1 0 23.304812804416905 7.769601597324045 4.2271939940938665 0 0 0
117 0 2 0 23.342185487147358 6.265453441000154 -0.04311388727220193 0 0 0
125 0 2 0 3.4477392186058187 8.401937268297853 1.6244300606730644 0 0 0
130 0 1 0 2.9154226303974298 10.797981228098815 3.6649855119380588 0 0 0
142 0 1 0 1.348334898305499 11.120562167175594 1.3927965102598852 0 0 0
143 0 2 0 2.0409548656784278 11.000159634834056 2.0706538791694737 0 0 0
144 0 2 0 1.6338147816428144 10.412076310910432 0.76630878168084 0 0 0
132 0 2 0 2.84393571274876 11.740284050281264 4.06741040320634 0 0 0
219 0 2 0 0.3040070158978345 10.974719352467663 2.8134053313091685 1 0 0
218 0 2 0 -0.0033952717169091276 10.31973470479441 4.18642486590363 1 0 0
135 0 2 0 2.019371944897418 9.601069998063283 4.4166434910906585 0 0 0
131 0 2 0 3.8479534460766147 10.62693248648313 3.6895649047770958 0 0 0
139 0 1 0 4.69656296396246 9.45829575781303 0.8745995981819358 0 0 0
127 0 1 0 5.652798782836594 10.744708305360097 3.3695944438162972 0 0 0
129 0 2 0 6.235681523731296 10.723302557888564 2.6152318893730353 0 0 0
140 0 2 0 5.438112678479835 9.196241212798515 1.4476923746024755 0 0 0
141 0 2 0 4.848707769430781 10.419927085188421 0.6997190349384885 0 0 0
172 0 1 0 7.583230440229371 10.714695300579951 1.4848050626681177 0 0 0
173 0 2 0 7.571913538667025 10.185748559674728 0.6819312211547508 0 0 0
128 0 2 0 5.963439692935833 10.091085918941415 4.042705069397138 0 0 0
145 0 1 0 4.442224092216889 12.208331405707016 0.7322868855175088 0 0 0
1740 0 2 0 7.685515887319043 11.905569026714838 0.20940561920156142 0 0 1
300 0 2 0 6.885878838848172 12.257467110081501 4.112194291127931 0 0 0
155 0 2 0 9.675249382070074 8.414481855833897 1.6557704500360222 0 0 0
174 0 2 0 8.331971349104794 10.504765193021022 2.157385578020394 0 0 0
160 0 1 0 9.362265024281713 10.586933696784355 3.758252969664029 0 0 0
161 0 2 0 10.308426019194453 10.450305428693081 3.5900340455449515 0 0 0
169 0 1 0 10.819686696838431 9.304993891742349 0.8023599394759611 0 0 0
171 0 2 0 10.83210499003906 10.319350571370613 0.8889299153402789 0 0 0
162 0 2 0 9.337760769904866 11.528070353289957 3.890644216134421 0 0 0
157 0 1 0 12.085054344790237 10.642504681123853 3.6111813357125846 0 0 0
175 0 1 0 10.948330804943215 12.151182558686408 0.9948563647494901 0 0 0
165 0 2 0 8.253157191676673 9.412988211940144 4.489144531899767 0 0 0
170 0 2 0 10.447916708735342 9.063088663129287 -0.06425514128959264 0 0 0
185 0 2 0 16.0880240249372 8.43491652988677 1.8282056363945418 0 0 0
159 0 2 0 12.651990774206938 10.684849637711894 2.7914556968677338 0 0 0
158 0 2 0 12.433627466986314 9.870557384320604 4.0945054292866105 0 0 0
190 0 1 0 15.608149030533072 10.803004240604395 3.7400067290376273 0 0 0
192 0 2 0 15.389184453269808 10.825373636799473 2.8138355665047388 0 0 0
202 0 1 0 13.762418216639372 10.672916575626163 1.5441553679540825 0 0 0
203 0 2 0 13.714310383834958 11.370353694377636 0.8673313238362754 0 0 0
204 0 2 0 13.92364908649543 9.913668197895642 0.9464966749087185 0 0 0
194 0 2 0 14.500581392165271 9.2777013351785 4.440767136389215 0 0 0
191 0 2 0 16.560548091849398 10.799298921427228 3.82379077394409 0 0 0
227 0 2 0 18.46131660340712 8.37296633499715 1.7883385206888152 0 0 0
200 0 2 0 17.08088332644253 10.352249242916358 0.6472798457605092 0 0 0
187 0 1 0 18.426506607251607 10.934189527288313 3.636493883949622 0 0 0
189 0 2 0 19.012512669774754 10.97091805095948 2.828014157425615 0 0 0
199 0 1 0 17.10737798158925 9.401426608636042 0.7770493900233842 0 0 0
232 0 1 0 20.253184391488045 10.66052770904706 1.3741145383970654 0 0 0
188 0 2 0 18.79958034725289 10.221827354274643 4.1970471709577435 0 0 0
205 0 1 0 17.113801267745604 12.133581047743466 0.7960369304608034 0 0 0
234 0 2 0 20.37513492980375 9.933607094387307 0.7504457922102828 0 0 0
215 0 2 0 21.655377549699924 8.353790377277221 1.342229625021105 0 0 0
233 0 2 0 20.97066635405419 10.442408928953213 2.025074909972975 0 0 0
217 0 1 0 24.642395996033663 11.099267269084482 3.6696948892093353 0 0 0
220 0 1 0 21.642992343672457 10.828871137191886 3.6036502168658697 0 0 0
221 0 2 0 22.57778138854322 10.941921198395367 3.518369692215848 0 0 0
229 0 1 0 23.026564304544767 9.46728401134038 0.5828918269104328 0 0 0
230 0 2 0 23.60402395571311 9.289593794429631 1.3285681123690756 0 0 0
231 0 2 0 23.200527453353867 10.426399614215393 0.4347466440299217 0 0 0
222 0 2 0 21.373284279689752 11.596977532665662 4.116702448574922 0 0 0
235 0 1 0 23.3977668005161 12.086227573817068 0.48512682026046827 0 0 0
237 0 2 0 22.548442706031775 12.236291230266172 0.8848354511233094 0 0 0
244 0 1 0 2.7042799976255734 13.737250031628394 2.149135968285527 0 0 0
245 0 2 0 1.7652353275475807 13.707060040120048 2.027404075177995 0 0 0
246 0 2 0 3.1566828871092536 12.991304882130077 1.6740653250408533 0 0 0
256 0 1 0 -0.015813913496971983 14.013528270023908 1.634388750357725 0 0 0
242 0 2 0 3.8386964236300973 14.153497973118084 3.631182075629586 0 0 0
260 0 2 0 3.883853908811122 15.050307426385077 1.2806442617777642 0 0 0
255 0 2 0 1.0098059710732175 15.838508010473234 4.475560591049707 0 0 0
251 0 2 0 2.796169481859886 16.49058356055975 4.261955144458217 0 0 0
147 0 2 0 5.1508186713695805 12.569873625528201 1.3295004852847503 0 0 0
259 0 1 0 4.648408102062647 15.40122404939667 0.7667169769785112 0 0 0
286 0 1 0 6.4185661125861415 13.728356975417114 2.12912107300049 0 0 0
287 0 2 0 6.041474068974341 14.049878033371145 2.9347327815623903 0 0 0
288 0 2 0 6.281951829242773 14.389253756158555 1.4079332908164184 0 0 0
248 0 2 0 6.231055502219067 16.21243350698481 4.186187198471699 0 0 0
241 0 1 0 4.603065391678948 14.117254942888447 4.200234762534019 0 0 0
276 0 2 0 8.152597511996133 13.724805324071458 2.0506872485576357 0 0 0
1725 0 2 0 7.954925779481128 15.36880134146871 0.2861222352690752 0 0 1
261 0 2 0 4.487496640500201 14.94598551155937 -0.04339828562631014 0 0 0
176 0 2 0 10.214575714950874 12.720153951296055 1.3578505210704575 0 0 0
272 0 2 0 11.574499322009329 13.673930285302433 4.113668880022222 0 0 0
274 0 1 0 9.067462322444392 13.90814956501322 1.9826939239829846 0 0 0
275 0 2 0 9.472959538772393 13.830828608544989 2.872819588848548 0 0 0
289 0 1 0 11.025729129422068 15.523125691520372 0.944002147583987 0 0 0
291 0 2 0 10.148694513594988 15.18639607940988 1.0495349911196639 0 0 0
317 0 2 0 12.092860285735014 14.592706041147107 2.176725443695783 0 0 0
318 0 2 0 12.295101445886349 13.14852126222804 1.748786711086338 0 0 0
281 0 2 0 8.822522693767295 16.17588733498483 4.164293385362878 0 0 0
271 0 1 0 10.654417398978442 13.671300363918402 4.4098531733060655 0 0 0
290 0 2 0 10.91502596339442 16.405142825055066 0.7010379033267363 0 0 0
177 0 2 0 11.072123717053952 12.525267575817127 0.0897224177836971 0 0 0
316 0 1 0 12.62474885315975 13.837138513602868 2.3992969341655095 0 0 0
304 0 1 0 15.309905522822548 13.87561134324792 2.2420591293348107 0 0 0
305 0 2 0 14.343542425306504 13.81011161444705 2.283518353513498 0 0 0
306 0 2 0 15.565806760648686 13.14418996681073 1.6177200421732978 0 0 0
302 0 2 0 16.362620277453942 14.020921295275667 3.7502333004665553 0 0 0
320 0 2 0 16.081817066150375 15.27433839346693 1.343536079914058 0 0 0
311 0 2 0 15.484397293435167 16.139065662328505 3.7832180012397147 0 0 0
1754 0 2 0 13.648243447352069 15.38663110915724 0.2525691994901927 0 0 1
207 0 2 0 17.724627992675032 12.706403961378141 1.2675222911824056 0 0 0
319 0 1 0 16.87966348328881 15.589669661871032 0.8743303204865002 0 0 0
346 0 1 0 18.779259347714923 13.85010881659288 1.918237543901471 0 0 0
347 0 2 0 18.210573342679723 14.563006428401689 1.5660803993591836 0 0 0
348 0 2 0 18.429114473518453 13.900623246861716 2.8746848241106537 0 0 0
301 0 1 0 17.229367394973714 14.121099732682936 4.14981651729749 0 0 0
335 0 2 0 20.42801671313973 13.937666451846827 1.9556756835119775 0 0 0
345 0 2 0 20.538433177994477 15.557023023757466 4.324050614235447 0 0 0
258 0 2 0 24.377707110693326 13.23855077116862 1.2242999746474568 -1 0 0
257 0 2 0 24.483974882268022 14.058730476820216 2.576238189575481 -1 0 0
332 0 2 0 22.528536605390183 13.905867666874366 3.573275182420598 0 0 0
334 0 1 0 21.357904633859878 13.70206624360733 2.0105996703045776 0 0 0
336 0 2 0 21.841263447022303 14.431640916634908 1.5159928008683745 0 0 0
349 0 1 0 22.9046563711166 15.471524722208585 0.5837306518359505 0 0 0
350 0 2 0 23.711173489394735 15.069381223728538 0.9785687793693663 0 0 0
351 0 2 0 22.964898808076672 16.446349090076446 0.599787719883667 0 0 0
331 0 1 0 23.316200568989373 13.962538011693965 4.121239488896953 0 0 0
264 0 2 0 1.1599654134174096 16.556021652065347 1.9095825144116332 0 0 0
262 0 1 0 1.9685472017156727 16.832687042349015 1.4556331257321458 0 0 0
263 0 2 0 2.6022621732031306 17.012902429084313 2.1586261123778105 0 0 0
250 0 1 0 3.223121474346694 17.105923688211647 3.6847945303480114 0 0 0
364 0 1 0 2.7930888233527 20.10292989829614 2.1463975299543683 0 0 0
366 0 2 0 1.8190073514532257 20.229012060156315 2.0804933037206013 0 0 0
338 0 2 0 0.14166071371422728 17.72743350616897 3.9904737224810134 1 0 0
267 0 2 0 3.915219481656726 18.426199397458426 1.2845202885771372 0 0 0
363 0 2 0 3.7479054910935514 20.152546292617636 3.5115710990378446 0 0 0
1829 0 2 0 1.5736231589792522 18.344102615750636 0.20005708343795386 0 0 1
376 0 1 0 0.1420224462633616 20.023812889888042 1.9283111904788934 0 0 0
365 0 2 0 3.18616424727032 20.516247382673612 1.369532131596814 0 0 0
252 0 2 0 4.211023930261085 16.983503328451334 3.717479491642542 0 0 0
266 0 2 0 4.7380734801976345 17.259071880142386 0.8614710331182558 0 0 0
249 0 2 0 6.198090332177566 16.939060256056173 2.7918309496913167 0 0 0
247 0 1 0 5.845733251677279 17.004206231787336 3.7455430381672103 0 0 0
265 0 1 0 4.673312829063316 18.195336780045906 0.7990002593215497 0 0 0
408 0 2 0 6.12805136352696 19.349561422768183 1.6260791248681508 0 0 0
406 0 1 0 6.274268324122859 20.18803053582539 2.096921912418591 0 0 0
292 0 1 0 7.477652784909991 16.87935344000148 1.4396578596235596 0 0 0
294 0 2 0 7.510046412232275 17.534730258972203 0.7255328261769335 0 0 0
361 0 1 0 4.5012756662094695 20.277530567026403 4.157472428593378 0 0 0
407 0 2 0 5.773872028434171 20.0518832315504 2.9257548247295144 0 0 0
395 0 2 0 8.094079783007263 20.19086940037662 2.032668419931979 0 0 0
293 0 2 0 8.166088572298614 17.174558724034718 2.082838419914446 0 0 0
278 0 2 0 11.036993538419836 17.01000499113922 3.498287503672205 0 0 0
280 0 1 0 9.28226611858366 16.894685569286253 3.619162393477959 0 0 0
295 0 1 0 10.845761724291265 18.24704606681508 0.736964400212431 0 0 0
296 0 2 0 10.211269401920175 18.877012703850255 1.0814743796416273 0 0 0
396 0 2 0 9.407491534688164 19.99043470243314 2.7598484755702226 0 0 0
393 0 2 0 11.556763258188662 20.382419685967932 3.455047009698934 0 0 0
394 0 1 0 9.015096546657015 19.950446211420548 1.9056750471060262 0 0 0
282 0 2 0 8.87048850086968 17.675273873402276 3.9363918409413223 0 0 0
437 0 2 0 12.246945368247433 19.495922875423922 1.4005930946959342 0 0 0
391 0 1 0 10.779254335092661 20.102756665640243 3.945997225702045 0 0 0
277 0 1 0 11.949616523290969 16.805440318760986 3.6796100709892703 0 0 0
279 0 2 0 12.328900586578094 17.686457636559226 3.9490067072174053 0 0 0
436 0 1 0 12.642253350721134 20.194612932245704 1.9694255501670894 0 0 0
324 0 2 0 14.447473830940748 17.09346621594149 2.1622696886040145 0 0 0
310 0 1 0 15.833039870335448 17.011346588214906 3.5284179470640793 0 0 0
322 0 1 0 13.719940799884462 17.15692100843615 1.578037646969954 0 0 0
323 0 2 0 12.911285888671092 16.984440580047995 2.1702081744650097 0 0 0
312 0 2 0 15.23333275503092 17.60397295797842 4.052860404329873 0 0 0
424 0 1 0 15.377210607925422 19.973961307106983 1.7284724104822726 0 0 0
425 0 2 0 14.388275329675311 19.831057613662928 1.7700288629400165 0 0 0
423 0 2 0 16.375660019207334 19.86881008119289 3.5907564488582087 0 0 0
1890 0 2 0 13.61176208736279 17.902687076692565 -0.012153671720230304 0 0 1
309 0 2 0 18.78850838652646 16.538295309804738 3.764240727310891 0 0 0
321 0 2 0 16.979283395418864 16.623383130037517 0.9455853864445904 0 0 0
326 0 2 0 16.535534964689464 18.903523759812636 0.9430344530946604 0 0 0
308 0 2 0 17.497088972579064 17.332827222955657 3.2900568640004333 0 0 0
353 0 2 0 19.59651829066932 16.888273531636358 1.8058160962086627 0 0 0
307 0 1 0 18.482580122902423 17.327819181209158 3.2584525147967134 0 0 0
325 0 1 0 17.249983485165068 18.349614331610482 0.6127168890385565 0 0 0
468 0 2 0 18.638084500060792 19.473865641084686 1.4514443253870448 0 0 0
467 0 2 0 18.703637773930954 20.18597627524737 2.8242335194866177 0 0 0
466 0 1 0 19.03681316597188 20.238705503950477 1.8588485347270705 0 0 0
354 0 2 0 20.182008128133585 17.559250807917437 0.6625750850911363 0 0 0
352 0 1 0 20.403743448604448 16.847443481978402 1.2262993905587511 0 0 0
421 0 1 0 16.988359108504003 20.193208165987443 4.255455443736007 0 0 0
480 0 2 0 19.670240013583733 18.232075720398136 4.130088046973785 0 0 0
378 0 2 0 24.708038660860918 20.136028063749784 2.867497801819348 -1 0 0
337 0 1 0 24.59135964455394 16.952774324844206 3.5575045147076385 0 0 0
455 0 2 0 20.737575720570728 20.390360721068156 1.774938082249358 0 0 0
339 0 2 0 23.630440057399483 16.904822304736676 3.745254455510547 0 0 0
342 0 2 0 21.703020575177455 16.637919892538342 2.5987239235586395 0 0 0
340 0 1 0 21.951406647265152 16.61135943700026 3.537056888693741 0 0 0
355 0 1 0 23.242138341815675 18.22006026487321 0.6941784005321481 0 0 0
356 0 2 0 23.993470966454037 18.70533081940266 1.0792718171952747 0 0 0
454 0 1 0 21.699149969599894 20.36279708172733 1.9716416252391231 0 0 0
456 0 2 0 22.060637401312146 19.54581775999361 1.5882344716254295 0 0 0
453 0 2 0 22.65752810271263 20.132705965577124 3.631055195563223 0 0 0
451 0 1 0 23.403248284681414 20.239662241344924 4.239172409137022 0 0 0
341 0 2 0 21.5969325073978 17.479135035983184 3.907574550427275 0 0 0
357 0 2 0 23.098050547169677 18.787960575929382 -0.06889296967713227 0 0 0
370 0 1 0 3.292361337657057 23.234014005215847 3.509221954177709 0 0 0
371 0 2 0 2.6836751281942854 23.20775538723113 2.745556369148638 0 0 0
382 0 1 0 1.5796213850616136 23.221947723548944 1.4860042683778065 0 0 0
383 0 2 0 1.5762000314497706 22.382582744857352 0.9909459854296288 0 0 0
384 0 2 0 1.6580165421701014 23.88990503126 0.7389533922866829 0 0 0
372 0 2 0 2.8418223113095267 23.91221971058274 4.072867154560521 0 0 0
374 0 2 0 2.1077905043339045 22.103623172050064 4.327599775442655 0 0 0
29 0 2 0 1.027677186039844 24.621732743208923 4.372185821399757 0 -1 0
385 0 1 0 4.576717122642024 24.67887057066389 0.8515952049786555 0 0 0
381 0 2 0 4.586139812539045 22.77295886975969 0.7446873116048324 0 0 0
367 0 1 0 6.0194857381319515 23.14918840333219 3.0164976319671655 0 0 0
368 0 2 0 5.03574871043415 23.337384549875317 3.0091910596943166 0 0 0
379 0 1 0 4.606922380642105 21.841415498763816 0.48361497261609676 0 0 0
380 0 2 0 5.150780065849101 21.410051264407883 1.1735236090904526 0 0 0
414 0 2 0 6.8713997279340395 23.0155934111934 1.4401041004097346 0 0 0
413 0 2 0 7.955342603755297 23.794805777212183 0.4669318672389825 0 0 0
369 0 2 0 6.208146188614315 22.355801489721152 3.5544856302752694 0 0 0
1845 0 2 0 7.750137634636027 21.694243274985205 0.03231830593160123 0 0 1
412 0 1 0 7.783991406228364 23.07965797206237 1.0595402396130653 0 0 0
60 0 2 0 6.85183097402531 24.274731271123386 4.030747831846643 0 -1 0
58 0 1 0 7.596253086553611 24.720225021547208 4.491606848901068 0 -1 0
415 0 1 0 10.702920434139703 24.634313356880632 0.7387888899391205 0 0 0
400 0 1 0 9.435199988932146 22.68792414251199 3.166196271675093 0 0 0
401 0 2 0 10.357274050539326 22.436959968497312 3.15855580894563 0 0 0
402 0 2 0 9.080901377433989 22.679752023755356 2.2783683430574153 0 0 0
409 0 1 0 10.764216165640526 21.759383207953668 0.5833241641073745 0 0 0
410 0 2 0 9.901250200539302 21.45556232189169 0.8633763299844152 0 0 0
411 0 2 0 10.683789035945988 22.76300559200144 0.5342008498325476 0 0 0
59 0 2 0 8.36818609370477 24.39867991952979 3.972797563665515 0 -1 0
405 0 2 0 8.332788918718462 21.780535695115447 4.332724094625312 0 0 0
397 0 1 0 12.274807031784576 22.88976428281466 3.4201389276077196 0 0 0
438 0 2 0 12.33229414351482 20.969240323604694 1.4242675409639645 0 0 0
426 0 2 0 15.530582280139006 20.90932086464067 1.6258609789844471 0 0 0
398 0 2 0 12.44808400150143 23.800731916159748 3.71252674235286 0 0 0
399 0 2 0 12.65316954477936 22.920647341965548 2.444108499443057 0 0 0
430 0 1 0 15.469073727680636 22.890703948602756 3.287126692158403 0 0 0
431 0 2 0 15.144487630533524 22.018644130549127 3.5779017658313856 0 0 0
442 0 1 0 13.716795305461718 23.333700145660814 1.3745865089624263 0 0 0
443 0 2 0 14.534228612187965 23.292750905974145 1.9626285882222954 0 0 0
444 0 2 0 13.737134178656937 23.906255380740518 0.5590173411126202 0 0 0
90 0 2 0 14.632529406555944 24.405506790168737 4.197580925138981 0 -1 0
432 0 2 0 16.44362522808279 22.80746659851645 3.2394851538856924 0 0 0
435 0 2 0 13.113334384485942 21.798142980106455 4.269263290654472 0 0 0
445 0 1 0 17.206300337227006 24.720460562527045 0.6249054854834776 0 0 0
447 0 2 0 17.27085740713386 23.729957904879996 0.6554203156085712 0 0 0
427 0 1 0 18.28785132330759 22.932290488608594 3.7048693037116505 0 0 0
428 0 2 0 18.847990309280267 22.299233992189208 4.1897924575161065 0 0 0
429 0 2 0 18.60043902442487 23.779326040021154 3.9582627740383307 0 0 0
439 0 1 0 17.17514592136652 21.80664671624912 0.6305318534411964 0 0 0
440 0 2 0 17.912336789577896 21.30509281826098 1.0442680529891446 0 0 0
474 0 2 0 19.25971222886211 23.07748169276482 1.9923927629501557 0 0 0
473 0 2 0 20.333895780991767 24.073636676987867 1.1896160167717915 0 0 0
472 0 1 0 20.101687211151503 23.124146949479368 1.4209725992763955 0 0 0
120 0 2 0 20.622610756183636 24.346828713487973 4.427296012499206 0 -1 0
1905 0 2 0 20.47106289052558 21.926996778593185 -0.0009770438731317305 0 0 1
459 0 2 0 24.737055678228767 23.512057036070892 2.673306390894031 0 0 0
458 0 2 0 24.6868648427782 22.729309190536362 4.083144258324385 0 0 0
457 0 1 0 24.254850653222977 23.47479517212166 3.5453230050871447 0 0 0
377 0 2 0 24.688567807591788 20.834717209280356 1.4790572283434045 -1 0 0
475 0 1 0 23.24637411092587 24.630554108572824 0.5491685565603877 0 0 0
460 0 1 0 21.467783920832467 23.154534260383834 3.6912730091463435 0 0 0
461 0 2 0 21.07045640059815 22.997303591556147 2.8190094831689714 0 0 0
462 0 2 0 22.420179099941404 23.30718714266306 3.6460582120889673 0 0 0
469 0 1 0 23.34398427970042 21.939510066874448 0.7036733028201111 0 0 0
471 0 2 0 22.63530952378443 21.588968123293796 1.256913266072864 0 0 0
477 0 2 0 23.168960639428953 23.65438232232077 0.549535659539553 0 0 0
465 0 2 0 20.818349618909615 21.53249334269291 4.31987357350225 0 0 0
13 0 1 0 1.5597569796251376 2.813702053765861 4.699177326976618 0 0 0
28 0 1 0 1.7554362909603516 0.15098607783932905 4.847096027092726 0 0 0
14 0 2 0 1.569853392391813 1.8171555117260316 4.822860129475088 0 0 0
15 0 2 0 1.7897287381036042 3.065240692610708 5.584469408453499 0 0 0
484 0 1 0 2.9833031696273826 1.5213453536772037 7.679122099456871 0 0 0
485 0 2 0 2.030547148784899 1.382524624355255 7.727239860979474 0 0 0
486 0 2 0 3.1266718465350034 2.245090069173145 7.088394952511501 0 0 0
496 0 1 0 0.04819546082097027 1.2494552926492437 7.9048686500671 0 0 0
866 0 2 0 4.081252220070195 0.23356777371544135 6.772028264492679 0 1 0
45 0 2 0 7.078264666669654 3.0278725238588033 4.733586735972946 0 0 0
3 0 2 0 4.597007348530165 0.9720449794660166 4.898593830842527 0 0 0
44 0 2 0 7.655773416786124 1.5776846500236443 5.006999749907863 0 0 0
500 0 2 0 4.602771410315355 2.972050018134619 5.386852645164441 0 0 0
499 0 1 0 4.5110762912425 3.3257599789244856 6.295887843022607 0 0 0
501 0 2 0 5.11866582370157 2.8524581649084015 6.901383944718118 0 0 0
526 0 1 0 6.361186871048353 1.7032848406535153 7.611261938441559 0 0 0
527 0 2 0 7.31175995702754 1.6971182765736739 7.681704490584298 0 0 0
528 0 2 0 6.038759147296557 1.6137221175972987 8.551238743378512 0 0 0
43 0 1 0 7.76510171672358 2.5228229540591864 5.201405996991064 0 0 0
534 0 2 0 7.933539532030385 3.606372053800963 6.4767004775699935 0 0 0
867 0 2 0 5.649166652258344 0.30855086117214425 6.71991130725063 0 1 0
33 0 2 0 11.024058804159672 1.8716881921943056 4.6049006949209526 0 0 0
514 0 1 0 9.227564436360158 1.686920563939059 7.756065326451254 0 0 0