LAMMPS (29 Sep 2021 - Update 2)
  using 1 OpenMP thread(s) per MPI task
echo both

include		in.partitions
variable        pid world 0
include		in.temp
variable        temperature equal 260
variable        tempDamp equal 0.100 # this is 0.1 ps
include		in.pressure
variable        pressure equal 7092.75
variable        pressureDamp equal 1.0 #this is 1ps
include		in.seed
variable        seed world 745823

units           metal
atom_style	full
include		in.box
read_data       iceVI.data
Reading data file ...
  orthogonal box = (0.0000000 0.0000000 0.0000000) to (24.724405 24.724405 22.792372)
  1 by 1 by 1 MPI processor grid
  reading atoms ...
  1920 atoms
Finding 1-2 1-3 1-4 neighbors ...
  special bond factors lj:    0        0        0       
  special bond factors coul:  0        0        0       
     0 = max # of 1-2 neighbors
     0 = max # of 1-3 neighbors
     0 = max # of 1-4 neighbors
     1 = max # of special neighbors
  special bonds CPU = 0.003 seconds
  read_data CPU = 0.113 seconds
include 	in.setup
variable	out_freq equal 500
variable	out_freq2 equal 500

timestep        0.0005

neigh_modify    delay 7 every 1

include         in.deepmd
# This is deepMD model

# create groups ###
#group ox type 2
#group hy type 1

mass 2 15.999
mass 1 1.008

pair_style      deepmd ../graph.pb
pair_coeff      * *

bond_style      none
angle_style     none
dihedral_style  none
improper_style  none
neigh_modify exclude none


neighbor        2.0 bin
neigh_modify    every 10 delay 0 check no

thermo          ${out_freq}
thermo          500
thermo_style 	custom step temp pe etotal epair emol press lx ly lz xy xz yz vol pxx pyy pzz pxy pxz pyz

restart 	${out_freq} restart.lmp.${pid} restart2.lmp.${pid}
restart 	500 restart.lmp.${pid} restart2.lmp.${pid}
restart 	500 restart.lmp.0 restart2.lmp.${pid}
restart 	500 restart.lmp.0 restart2.lmp.0


include         in.dump
dump            myDump all atom ${out_freq2} dump.water.${pid}
dump            myDump all atom 500 dump.water.${pid}
dump            myDump all atom 500 dump.water.0
dump            myDump2 all dcd ${out_freq2} dump.dcd
dump            myDump2 all dcd 500 dump.dcd
dump_modify     myDump append yes
dump_modify     myDump2 append yes


timer           timeout 03:55:00 every 1000
New timer settings: style=normal  mode=nosync  timeout=03:55:00

fix             2 all nph aniso ${pressure} ${pressure} ${pressureDamp}
fix             2 all nph aniso 7092.75 ${pressure} ${pressureDamp}
fix             2 all nph aniso 7092.75 7092.75 ${pressureDamp}
fix             2 all nph aniso 7092.75 7092.75 1
fix             3 all temp/csvr ${temperature} ${temperature} ${tempDamp} ${seed}
fix             3 all temp/csvr 260 ${temperature} ${tempDamp} ${seed}
fix             3 all temp/csvr 260 260 ${tempDamp} ${seed}
fix             3 all temp/csvr 260 260 0.1 ${seed}
fix             3 all temp/csvr 260 260 0.1 745823
velocity 	all create ${temperature} ${seed} dist gaussian
velocity 	all create 260 ${seed} dist gaussian
velocity 	all create 260 745823 dist gaussian

run             400000

CITE-CITE-CITE-CITE-CITE-CITE-CITE-CITE-CITE-CITE-CITE-CITE-CITE

Your simulation uses code contributions which should be cited:

- USER-DEEPMD package:

@article{Wang_ComputPhysCommun_2018_v228_p178,
  author = {Wang, Han and Zhang, Linfeng and Han, Jiequn and E, Weinan},
  doi = {10.1016/j.cpc.2018.03.016},
  url = {https://doi.org/10.1016/j.cpc.2018.03.016},
  year = 2018,
  month = {jul},
  publisher = {Elsevier {BV}},
  volume = 228,
  journal = {Comput. Phys. Commun.},
  title = {{DeePMD-kit: A deep learning package for many-body potential energy representation and molecular dynamics}},
  pages = {178--184}
}

CITE-CITE-CITE-CITE-CITE-CITE-CITE-CITE-CITE-CITE-CITE-CITE-CITE

Neighbor list info ...
  update every 10 steps, delay 0 steps, check no
  max neighbors/atom: 2000, page size: 100000
  master list distance cutoff = 8
  ghost atom cutoff = 8
  binsize = 4, bins = 7 7 6
  1 neighbor lists, perpetual/occasional/extra = 1 0 0
  (1) pair deepmd, perpetual
      attributes: full, newton on
      pair build: full/bin
      stencil: full/bin/3d
      bin: standard
Per MPI rank memory allocation (min/avg/max) = 9.089 | 9.089 | 9.089 Mbytes
Step Temp PotEng TotEng E_pair E_mol Press Lx Ly Lz Xy Xz Yz Volume Pxx Pyy Pzz Pxy Pxz Pyz 
       0          260   -333.91511   -269.42205   -333.91511            0    45349.205    24.724405    24.724405    22.792372            0            0            0     13932.89    46027.764    47375.334    42644.518   -806.37542   -394.03199   -354.33178 
     500    237.32529    -312.3386   -253.47001    -312.3386            0    977.22339    24.959536    24.996661    23.000861            0            0            0    14350.353    2929.8843    2301.8849    -2300.099   -1484.6201   -1773.4757    917.95133 
    1000     263.2628   -311.82916   -246.52676   -311.82916            0    6091.0688    24.887868    24.899544    22.921507            0            0            0    14204.379    5142.7164    3708.3309     9422.159    423.92812   -795.45482   -981.53208 
    1500    261.69947   -311.52667   -246.61206   -311.52667            0    11676.659    24.942214    24.844014    22.895293            0            0            0    14187.405     9840.446    12711.673    12477.859   -429.81873   -1971.9453    1192.3017 
    2000    257.51267   -308.29972   -244.42364   -308.29972            0    1212.4625    24.945275    24.959311    22.988408            0            0            0    14312.971   -348.04141    2040.4051     1945.024    1184.1125   -3658.5552   -1347.5008 
    2500    264.24722   -308.45133   -242.90475   -308.45133            0    8254.4569    24.822712    24.864501      22.9503            0            0            0    14165.025    8160.2719    8491.0546    8112.0442   -927.08913   -2271.4816    1042.6262 
    3000    266.17035   -310.15554   -244.13193   -310.15554            0    9295.5143     24.90166    24.928434    23.031977            0            0            0    14297.315    11610.827    8456.0185    7819.6971    372.06998    2191.8887   -1664.2635 
    3500    251.56488   -308.57796   -246.17724   -308.57796            0    4989.5953    24.908987    24.806987    22.946867            0            0            0    14179.257    1953.0042    7860.3306     5155.451    558.47376    721.99534      139.929 
    4000    259.04674   -311.12769   -246.87109   -311.12769            0    7538.5664    24.975455    24.892922    22.946417            0            0            0    14266.064    8914.6199    5675.9431    8025.1362     764.2651    2162.4417   -1909.0228 
    4500    266.28988   -312.52034   -246.46708   -312.52034            0    7737.9458    24.902305    24.908323    22.883359            0            0            0    14193.967     6596.845    9974.7901    6642.2023   -674.36152    140.47122    48.799747 
    5000    259.76737   -309.83065    -245.3953   -309.83065            0    4626.5927    24.823973     24.89398    23.009272            0            0            0    14218.982    5110.0112    6149.7661    2620.0007    37.411406    529.81941    760.20294 
    5500    257.48797    -310.5624   -246.69246    -310.5624            0    8690.1251    24.827437    24.872374    23.093265            0            0            0     14260.49    8686.4869    8354.0313    9029.8571    159.79376   -1078.5131   -1254.0154 
    6000    263.38249   -310.70437   -245.37229   -310.70437            0    7312.6237    24.896733    24.741237    22.906433            0            0            0    14109.812    6564.6535    8945.6205    6427.5969   -691.46242    1368.7704   -2131.9611 
    6500    252.85708   -310.47422   -247.75296   -310.47422            0    3093.1691     25.09515    24.948329    22.925287            0            0            0    14353.111    929.22911    3603.2508    4747.0274   -675.02498     -976.531   -590.05205 
    7000    265.82482   -309.46155   -243.52365   -309.46155            0    11950.627    24.779936    24.927714    22.807093            0            0            0    14088.105    14788.494    9959.1613    11104.227    527.73131   -688.71212   -260.73908 
    7500    256.66997    -309.0675   -245.40045    -309.0675            0    6080.6331    24.862658     24.99291    23.033302            0            0            0    14312.668    4652.3662    6352.8342    7236.6988   -1025.5646    857.58903    1245.8592 
    8000    256.63174   -309.64823   -245.99067   -309.64823            0    7785.4117    24.874928    24.749651    23.008025            0            0            0    14164.794    6491.5313    9574.2191    7290.4847    849.00677    29.164393    486.47306 
    8500    255.15506   -310.41684   -247.12557   -310.41684            0    6150.6526    24.954144    24.800559    22.995943            0            0            0    14231.654    3122.2688    6840.1177    8489.5713    901.65898    1956.9852    408.65394 
    9000    259.99405   -308.01904   -243.52746   -308.01904            0    6589.1876    24.843399    24.985718    22.937427            0            0            0    14237.953    7444.7191    6904.9785    5417.8652    2673.5855   -1341.3257   -318.33797 
    9500    259.01187   -308.39253   -244.14458   -308.39253            0    7684.6946    24.875928    24.988741    22.918633            0            0            0    14246.638      11013.9    3874.3026    8165.8817   -41.347468   -1264.5657    45.547221 
   10000     265.9586   -308.51472   -242.54363   -308.51472            0    7177.7309    24.949255    24.860394    23.002842            0            0            0    14267.474    6053.4339    9005.7532    6474.0056    -1595.597    445.38376    3114.5476 
   10500    270.58956   -307.42887   -240.30907   -307.42887            0    6099.0333    24.979981    24.874338     23.01494            0            0            0    14300.574    7205.0661    4067.6482    7024.3856    2339.4781   -934.32206   -852.82233 
   11000    264.72707   -309.10836   -243.44275   -309.10836            0    7841.0033     24.87334    24.929598    22.904442            0            0            0     14202.64    7048.0409    7610.3834    8864.5855    397.19501    1677.2371   -539.53432 
   11500    258.05529   -309.66045   -245.64978   -309.66045            0    8066.3445     24.90989    24.991999    22.911755            0            0            0    14263.666    6815.3921    8514.0829    8869.5584    1066.7728    2320.5238    32.927771 
   12000    267.44595   -309.65249   -243.31247   -309.65249            0    6394.0557    24.848753     24.79259    23.000616            0            0            0    14169.873    7534.6684    7321.0804    4326.4183    1230.3869   -199.56804   -323.50995 
   12500    266.65443   -309.59785   -243.45417   -309.59785            0    6506.1623    24.939781    24.813631    23.162982            0            0            0    14334.331    7807.0744     7807.385    3904.0273    1159.5194    1476.9937    992.10342 
   13000     258.5228   -306.23254   -242.10591   -306.23254            0      8942.35    24.885153    24.915356    22.968665            0            0            0    14241.088    11015.346    7350.6998     8461.004   -357.54957   -609.42636     854.8793 
   13500    260.83447   -310.25787   -245.55782   -310.25787            0    9040.2361    24.830147    25.013116    22.788491            0            0            0    14153.461    11097.567    6296.6203    9726.5213    824.15143   -692.00911   -2458.5378 
   14000    251.87303   -309.56553   -247.08837   -309.56553            0    4267.7374    25.010791    24.993505    22.894634            0            0            0    14311.603    3465.5746    3150.4407    6187.1967   -907.30773   -774.70016    524.83771 
   14500    253.76291   -311.17757   -248.23163   -311.17757            0    9016.9688    24.866633    24.726047    22.908362            0            0            0    14085.287    8923.0116    10609.689    7518.2057   -734.96251    1481.8603    -1537.735 
   15000    262.12776   -310.02699   -245.00614   -310.02699            0    5245.5517    24.890092    24.922397    23.086184            0            0            0    14320.839    5465.5331    4589.4717    5681.6504    413.75714    706.14026   -1449.2487 
   15500      265.206   -310.44318   -244.65877   -310.44318            0    7545.3903    24.806203    24.920746    22.963651            0            0            0    14195.878    7891.3696     5353.424    9391.3774   -151.76275   -1500.0791    1211.4719 
   16000    261.21778   -308.88315   -244.08803   -308.88315            0    7100.2765    24.918334    24.924977    22.870563            0            0            0    14204.653    4773.4835    6684.4201    9842.9258    148.69863    1854.7452    432.52451 
   16500    266.99601   -310.32371    -244.0953   -310.32371            0    6347.6358    24.999292    24.878918    22.917922            0            0            0    14253.924    5533.6006    7498.7463    6010.5605   -1219.2682    221.75878     1671.001 
   17000    256.35543   -308.50437   -244.91535   -308.50437            0    9625.2469    24.884367    24.854374    22.942727            0            0            0    14189.741    10990.552     9138.856    8746.3327   -18.299378   -1072.4388   -468.81336 
   17500    260.54596    -310.4715   -245.84301    -310.4715            0    5374.7874    24.860909    24.985758    22.996779            0            0            0    14284.879    4610.2641    5436.3815    6077.7165   -1186.4497   -530.74681    1546.2367 
   18000    250.33526   -309.83116   -247.73545   -309.83116            0    7575.5845    24.892683    24.858524    22.936717            0            0            0    14193.134    7992.2036    5160.6945    9573.8555    1632.3052   -2666.5623    1316.7958 
   18500    255.37286   -310.40946   -247.06416   -310.40946            0    8538.0146     25.01221    24.858141    22.873534            0            0            0    14221.781    8080.7806    7058.6326    10474.631    1399.6225   -408.65086    1457.8522 
   19000    260.55169   -310.60175   -245.97184   -310.60175            0    6778.0326    24.950159    24.890595    22.876931            0            0            0     14207.13    7186.4127     6277.352     6870.333    870.94784    -223.1603   -604.82349 
   19500    259.69783   -309.49058   -245.07248   -309.49058            0    9231.7324    24.758766    24.969512    23.036635            0            0            0    14241.577     10523.09    8711.6461    8460.4606    317.35938    1366.9273    1075.8263 
   20000    251.29416   -309.53922   -247.20565   -309.53922            0    8619.5528      24.7816    24.889048    23.084235            0            0            0    14238.135    9460.8246    8611.7932    7786.0406    733.00549   -1413.6227   -1624.3744 
   20500    257.41025   -310.68057    -246.8299   -310.68057            0    5339.9826    25.026095    24.745444    22.885148            0            0            0    14172.356    4772.9223    6330.7659    4916.2595   -1868.0229   -2092.7578    1601.7688 
   21000    257.29813   -310.03507   -246.21221   -310.03507            0    7979.8777     25.08719    24.941523    22.783519            0            0            0    14255.938    7998.4297    7579.7495     8361.454    1608.5027    707.82492    267.75317 
   21500    250.44544   -310.70504   -248.58199   -310.70504            0    7812.0059    24.796281     25.01828    22.846947            0            0            0    14173.338    7611.7177    6594.8808    9229.4191    30.966274   -1160.5287   -151.76473 
   22000    267.38426   -312.07156   -245.74683   -312.07156            0     8053.797    24.782342    24.909111    23.102425            0            0            0    14261.269    9437.1756    7255.2126    7469.0029    139.35069   -1459.0337   -777.37717 
   22500    267.26259   -311.20987   -244.91532   -311.20987            0    5893.9492    24.926044    24.773889    23.078897            0            0            0    14251.566    6868.8589    6177.3513    4635.6375   -740.14583    737.88127   -340.90656 
   23000    251.32411   -310.51072   -248.16972   -310.51072            0    6260.9532    24.938933    24.830499    22.933516            0            0            0    14201.492    5117.5838    6773.2471    6892.0286   -1551.5423    687.80711   -93.462488 
   23500    253.51397   -308.71821   -245.83402   -308.71821            0    6893.7059    24.890975    25.007082     22.90608            0            0            0    14257.905    7164.4816    5577.3164    7939.3197     1035.033    213.18247    2154.6261 
   24000    266.81435   -308.32408   -242.14072   -308.32408            0    8860.3617    24.856631    24.919405    22.903439            0            0            0    14186.676    9670.9938    7341.3807    9568.7105   -902.46227   -782.02555    188.49455 
   24500    259.45228   -309.90593   -245.54874   -309.90593            0    6081.0958    24.982566    24.869002    23.001265            0            0            0     14290.49    5024.0925     7290.927     5928.268    3172.9206    630.66927    1028.2439 
   25000    261.99547   -307.00345   -242.01541   -307.00345            0    9784.2221     24.85946    24.879758    22.898824            0            0            0    14162.862    8214.6152    10341.136    10796.916     78.55872   -750.36635   -1304.5847 
   25500    263.02304    -308.9084   -243.66548    -308.9084            0    6178.2094    24.906356    25.051601    23.032119            0            0            0    14370.755    6867.8591     5660.483    6006.2861    707.05666    1060.4479     174.5278 
   26000    268.68639   -306.87882    -240.2311   -306.87882            0    6886.1462    24.852387    24.807502    22.990125            0            0            0    14174.001     6699.008    7873.7332    6085.6975   -212.16923   -596.07883   -389.39137 
   26500    258.09002   -310.00314   -245.98386   -310.00314            0    6008.3537    25.067464     24.83639    22.997824            0            0            0    14318.107     3972.838    7547.8596    6504.3635   -1791.8386   -1442.9903   -18.233206 
   27000    266.26686   -309.70258   -243.65503   -309.70258            0    7234.4482    24.917079     24.96863    22.827957            0            0            0    14202.307    12343.194    3270.8224    6089.3278   -87.490424   -1578.4451   -422.67417 
   27500    258.10279   -309.66568   -245.64322   -309.66568            0    6868.8586    24.851655    24.984217    22.885134            0            0            0     14209.36    8328.1571    6193.4356    6084.9831   -338.21053   -454.10569    834.85743 
   28000    255.75834   -309.32055   -245.87964   -309.32055            0    5089.4682    24.917234    24.877527    23.060732            0            0            0    14294.867    6034.6049    6204.2002    3029.5996    19.829238   -1137.2072   -914.10857 
   28500     257.3911   -308.17809   -244.33217   -308.17809            0    6970.2068    24.911386    24.742007    23.009326            0            0            0    14181.974    8423.3399    8467.7435    4019.5368    358.48309     560.3646    -299.8292 
   29000    253.44537   -308.76972   -245.90254   -308.76972            0    7742.6147    24.960887    25.010165    22.930043            0            0            0    14314.673    6883.2639    6211.9832    10132.597    158.47569   -1497.0841    1304.0443 
   29500    269.09217   -309.87024   -243.12187   -309.87024            0    6110.9386    24.826777    25.033904    22.820739            0            0            0    14183.345     6528.474    5015.4622    6788.8797    838.32634    656.91913    841.67123 
   30000    260.80076   -305.33421   -240.64252   -305.33421            0    6089.2868     24.98508    24.908234    22.965855            0            0            0    14292.437    3457.4804    7263.8663    7546.5138   -296.73836    2070.4367    -62.54943 
   30500    269.18761   -309.51136   -242.73931   -309.51136            0    6373.8956    24.986087      24.7178    23.104532            0            0            0    14269.385    7101.9586    7103.9933    4915.7349    93.802703     696.7879    -260.0294 
   31000    271.03628   -309.65863   -242.42802   -309.65863            0    7668.1011    24.799463    24.844179    23.057923            0            0            0      14206.5    8120.8002    7303.5787    7579.9245   -248.86928    415.55249   -891.61274 
   31500    263.14599    -308.2576   -242.98418    -308.2576            0     5267.138     24.82533    25.126736    22.932775            0            0            0    14304.995    6806.4883    3520.8018    5474.1241   -1042.8799    136.86756    2506.8804 
   32000    263.26578   -310.16566   -244.86253   -310.16566            0    7482.9286    24.967513    24.876679    22.803146            0            0            0    14163.235    4480.3869    8158.1627    9810.2362    123.68507     1033.394    127.41401 
   32500    264.02565   -308.98716   -243.49554   -308.98716            0    5425.2014    25.034623    24.835638    23.005466            0            0            0    14303.668    4349.8691    7643.4224    4282.3128    349.75617   -627.19101   -2301.6294 
   33000     263.6605   -308.74727   -243.34623   -308.74727            0    8746.7507    24.795806    24.882206    23.039523            0            0            0    14214.795    8897.2679    6517.3241     10825.66    131.51607   -342.35993   -1305.5307 
   33500    253.40517   -309.82024   -246.96304   -309.82024            0    6791.8328    24.861604    24.881315    23.004745            0            0            0    14230.492    5018.6366    10336.695    5020.1664    453.35471    212.54611    -1442.196 
   34000    259.43262   -311.79801   -247.44569   -311.79801            0     6836.643     24.94678    24.844816    22.929204            0            0            0    14211.479    6956.1872    7259.4462    6294.2957    1123.9058   -79.848468    1311.2767 
   34500    253.44465   -311.48579   -248.61879   -311.48579            0    7011.4621    24.918417    24.881275    22.905602            0            0            0    14201.518    4901.2809    10903.218    5229.8872    1777.9684    39.260379    2294.8756 
   35000    250.56349   -310.50474   -248.35241   -310.50474            0     6575.929    24.830787    24.926644    22.964359            0            0            0    14213.749    8707.0938    7261.9588    3758.7345   -1140.7191   -1400.2721   -814.77775 
   35500    258.83918   -310.45226   -246.24715   -310.45226            0     7889.718    24.866984    24.890485    22.977466            0            0            0    14221.932    5785.8393    10961.102    6922.2129   -47.289253    644.98624    576.03803 
   36000    262.76599   -311.86275   -246.68359   -311.86275            0     6854.433    25.019356    24.848979    22.953306            0            0            0    14270.196    4339.0369    9535.4177    6688.8443    839.87892   -798.85426    1995.2699 
   36500    259.23942   -310.46055   -246.15615   -310.46055            0    7303.5229    24.939048    24.872293     22.79317            0            0            0    14138.405    9255.1213    6578.0004    6077.4471    129.81365    732.71897   -786.33013 
   37000    264.31426   -312.23552   -246.67231   -312.23552            0     5687.084    24.971345    25.156962    22.842246            0            0            0    14349.572    5164.9568     7015.428     4880.867    1627.2188    688.41501    1694.3235 
   37500    264.39845   -311.66961   -246.08552   -311.66961            0    8525.1324    24.796757    24.876711    22.896422            0            0            0    14123.927    10021.959    9107.4591    6445.9787    1779.7394   -941.67314    790.75809 
   38000    252.52254   -306.98761   -244.34934   -306.98761            0    7282.1819    24.949567    24.792714    23.160136            0            0            0    14326.107    6350.5144    8624.4901    6871.5411   -823.74075   -2292.6228   -503.02867 
   38500    258.88872   -308.29631   -244.07891   -308.29631            0    6611.7292    24.890809    24.814295    23.025444            0            0            0    14221.617    6642.6899    10238.647    2953.8508   -366.49661   -2134.5394    246.18425 
   39000    257.37268   -309.87303   -246.03168   -309.87303            0    7692.7455    24.883561    24.984947     22.86741            0            0            0        14217    8718.6085    7309.3787    7050.2493    1066.7186   -1356.8385    1134.4021 
   39500    264.89734   -308.85967   -243.15182   -308.85967            0    4332.1457    24.966893    24.965452    22.889437            0            0            0     14267.21    4706.2907    2464.1605    5825.9859    -565.1354     135.2383    864.31662 
   40000    261.92391   -311.68634   -246.71605   -311.68634            0    9577.2918    24.902675     24.85035    22.944625            0            0            0    14199.056    9389.8196    8852.5167    10489.539    818.90225   -607.13751   -1776.6015 
   40500    255.69533   -310.04701   -246.62172   -310.04701            0    6520.4562    24.927026    24.824612    23.053031            0            0            0    14265.302    5387.2271    6953.6941    7220.4473     235.0685    68.388292    1107.9636 
   41000    255.03853   -310.35913   -247.09677   -310.35913            0    6089.0718    24.842501    24.890233    22.970785            0            0            0    14203.655    5405.7941    7313.3426    5548.0789   -223.56253   -35.962273     521.7163 
   41500    261.53965   -310.37959   -245.50462   -310.37959            0    7420.1412    24.856321    24.950629    22.880416            0            0            0    14189.996    8846.1547     6094.335    7319.9339   -1296.8621   -1478.2122    734.01768 
   42000    272.22219   -312.74792   -245.22315   -312.74792            0    6631.7655    25.009267    24.915389     22.98221            0            0            0    14320.574    6031.5871    7920.3884     5943.321   -325.97156    557.55629   -1398.0734 
   42500    259.79692   -309.24568     -244.803   -309.24568            0    7627.6948    24.851674     24.73313     22.98741            0            0            0    14129.434    9791.7354    6944.1589    6147.1899   -445.91918    641.65815   -367.77395 
   43000    264.67493   -310.19036   -244.53768   -310.19036            0    5719.5066    24.911935    24.924339    23.125337            0            0            0    14358.835    7090.5578    2822.8527    7245.1091    787.88657    1247.1286     890.9174 
   43500    261.65087   -308.25408   -243.35152   -308.25408            0    11334.143    24.836573    24.920859    22.866166            0            0            0    14152.984    14293.238    10883.677    8825.5149    476.70004    940.67181   -132.74571 
   44000     258.9409   -311.17311   -246.94276   -311.17311            0     3856.116    24.995221    24.999021    22.837991            0            0            0    14270.457    2959.5116    2037.7503     6571.086   -1099.1872   -876.70605    1532.9013 
   44500    257.71123   -309.27228   -245.34695   -309.27228            0    6358.5833     24.93057     24.87672    22.905124            0            0            0    14205.547     8919.852     3186.587    6969.3108   -1308.2845   -1316.7926   -275.49929 
   45000    257.84355   -311.29726   -247.33911   -311.29726            0    8381.3585    24.855365    24.801698    23.065384            0            0            0    14218.777    7113.5706    8808.4824    9222.0224   -1511.4564   -67.915085    109.50151 
   45500    258.53237   -311.75971    -247.6307   -311.75971            0    7923.8946    24.826816    24.844182    23.077109            0            0            0    14234.006    8464.2889    8836.9367    6470.4582   -456.19085    163.00314    221.43003 
   46000    266.51447   -312.06395   -245.95497   -312.06395            0    8131.9086    24.871884    24.919669    22.888672            0            0            0    14186.378    8729.7698    8083.6686    7582.2874    -2541.173   -613.11638    809.50491 
   46500     261.5278   -309.80492   -244.93289   -309.80492            0    7780.6968    25.014508    24.994896     22.85229            0            0            0    14288.052    6762.6936    8111.8204    8467.5763   -862.37944    635.34028    1524.1929 
   47000    262.19232   -309.97973   -244.94287   -309.97973            0    7581.2507    24.965583    24.851567    22.877932            0            0            0    14194.243    7002.8036    9626.9232    6114.0253     24.26587    816.92138    665.64499 
   47500    262.60281   -308.34892   -243.21024   -308.34892            0    6690.5044    24.899681    24.856487    23.054932            0            0            0    14269.127    8360.9342     6709.181    5001.3978      651.879   -1022.9596    195.97663 
   48000    254.43542     -308.113   -245.00024     -308.113            0    7276.8429    24.784819    24.873139    23.079446            0            0            0    14227.931    7845.1037    7242.1433    6743.2817    855.53742     -721.739   -492.38896 
   48500    267.19234   -311.93265   -245.65554   -311.93265            0    6838.6921    24.862223    24.932087    22.927876            0            0            0    14212.236    7458.0183    5725.2708    7332.7872   -590.18092   -332.48725    2026.0018 
   49000    264.48766   -308.25348   -242.64726   -308.25348            0     3524.129    25.033998    24.981075     22.86508            0            0            0    14299.277    1177.5617     3808.893    5585.9323   -1767.2061    791.87609    441.29389 
   49500    275.38459   -307.58048   -239.27128   -307.58048            0    8899.8025    24.954889    24.838185    22.948362            0            0            0    14224.179    7118.0619    10199.296    9382.0495   -272.97001   -256.99489    1164.1877 
   50000    256.95212   -305.94482   -242.20779   -305.94482            0    5038.2339    24.866418    24.957223    23.143051            0            0            0    14362.502    4495.2457    5189.9282    5429.5279    -82.89362   -991.87914   -834.71018 
   50500    262.86734   -309.28956   -244.08526   -309.28956            0     7079.723    24.704518    24.836934    22.987401            0            0            0    14104.713     7840.324    6870.5761    6528.2689    1106.9904   -2463.3014    231.07933 
   51000    267.30477   -309.97236   -243.66736   -309.97236            0    4381.9517    25.062562    24.984198    22.968275            0            0            0        14382    2233.4845    6629.4544    4282.9162   -293.45525   -1001.9626   -27.773168 
   51500    260.78695   -308.37638   -243.68812   -308.37638            0    7294.9898    25.032427    24.855246    22.772292            0            0            0    14168.627    7150.6418    7098.1693    7636.1581    2416.0064    1510.5255   -604.07934 
   52000    253.71295   -310.33799   -247.40444   -310.33799            0    10036.709    24.874231    24.930912    22.943522            0            0            0    14228.133    8882.8479    9338.6228    11888.658   -365.38663   -1415.6057    125.46202 
   52500    266.02164   -309.09545   -243.10872   -309.09545            0    4971.8678    24.823502    24.979939    23.083591            0            0            0    14313.894    5381.1075      6750.38    2784.1159    693.57554   -2262.4478    1843.7743 
   53000    260.88668   -310.77281   -246.05981   -310.77281            0      7412.08    24.820679    24.847119    22.955035            0            0            0    14156.884    7094.5355    7645.8337    7495.8708    548.43692   -1393.2214    895.84285 
   53500     260.4453    -309.7176   -245.11408    -309.7176            0    6027.5873    25.020622    24.885668    22.963363            0            0            0     14298.25    4293.2884    7108.3999    6681.0737     296.6844    802.37014   -775.18238 
   54000    265.74086   -308.87123   -242.95415   -308.87123            0    7732.7208    24.891432    24.901893    22.922123            0            0            0    14208.135    7013.1783    6595.5982    9589.3861    106.96463   -536.58911   -2768.8905 
   54500    258.26676    -311.8729   -247.80977    -311.8729            0    7502.1539    24.809272    24.942978    22.995139            0            0            0    14229.785    6727.6155     6118.363    9660.4831     229.4616     484.1764     2156.366 
   55000    261.22511    -309.7114   -244.91446    -309.7114            0    7942.9231    24.882517    24.841329    23.051688            0            0            0     14248.59    9063.5125    7766.9369      6998.32   -986.18769    1048.8773    2004.4487 
   55500    259.89192   -310.80803   -246.34179   -310.80803            0    7845.6124    24.936601     24.90964    22.938438            0            0            0     14248.48    6605.9672    7679.5521     9251.318   -73.640165   -850.70116   -255.27537 
   56000      264.126   -308.35644   -242.83993   -308.35644            0    6323.5233    24.865519    25.068805    22.868987            0            0            0    14255.356    10713.414    2369.5424    5887.6137   -1497.1881    -611.8869      778.902 
   56500    262.52286   -309.97421   -244.85536   -309.97421            0    9993.9301    24.805172    24.995888    22.972619            0            0            0    14243.651    8546.9658    9476.1268    11958.698    461.17671   -3458.2913   -418.98645 
   57000    255.46983   -309.14367   -245.77433   -309.14367            0    7857.1812    24.937838    24.765358    23.068894            0            0            0    14247.222    5856.4745    8134.1489    9580.9203   -34.246838   -244.72578    47.723506 
   57500    260.65238   -309.56516   -244.91028   -309.56516            0    5010.7888    24.911228    24.811528    23.031708            0            0            0    14235.568    2550.1066    6869.9085    5612.3511    569.94194    1142.5648   -1008.1903 
   58000    261.99774   -310.69486   -245.70627   -310.69486            0    7646.3781      24.8201    25.084125    22.874923            0            0            0    14241.709    9121.0681    4620.5765    9197.4897    1083.8427   -457.64208    62.536865 
   58500    268.11417   -309.91788    -243.4121   -309.91788            0    7682.7214    24.875159    25.042675    22.788813            0            0            0    14196.075    8173.2847    6497.6127    8377.2667    159.51468   -1475.3655   -1530.1217 
   59000    266.43267   -311.39947   -245.31078   -311.39947            0    4676.0051    25.070917     24.81259    22.987961            0            0            0    14300.222    4717.0761    4881.3805    4429.5587   -23.224775     920.9355   -154.17218 
   59500    267.42741   -310.58745   -244.25202   -310.58745            0    7711.9102    24.921066    24.748024    23.063106            0            0            0    14224.104    6148.5165    8668.9834    8318.2308   -651.44373      568.577    347.33151 
   60000    259.68204   -310.76013   -246.34594   -310.76013            0    8488.5999     24.73675    24.995088    23.031113            0            0            0    14240.074    10462.131    7435.5141    7568.1545   -273.43154    2262.9838    13.624632 
   60500    258.41115   -309.39603   -245.29708   -309.39603            0    8844.7881    24.877612    25.062646     22.91068            0            0            0    14284.781    7877.0785    7542.7149    11114.571   -1349.1797   -666.52148   -313.17027 
   61000    259.47739   -309.60937   -245.24595   -309.60937            0    6615.5471    24.962134      24.9069    22.886368            0            0            0    14229.127    3382.4481    10321.796    6142.3973   -57.881708    1050.3673   -490.47001 
   61500    260.59578     -307.942   -243.30116     -307.942            0     5425.753    24.914066    24.839464    23.013242            0            0            0    14241.791     6310.069    5465.9759    4501.2142    227.41149    -13.24383   -541.63341 
   62000    261.86226   -308.25838   -243.30339   -308.25838            0    9398.8173     24.91729    24.919979    23.016724            0            0            0    14291.967    7937.4114    9608.9033    10650.137    773.60056   -2389.1658    4637.6146 
   62500    263.79825   -310.61753   -245.18231   -310.61753            0    9461.7454    24.929682    24.920035    22.843144            0            0            0     14191.27    8912.7059     7065.962    12406.568   -348.10329   -1384.1794   -2365.7426 
   63000    275.02185   -309.64011   -241.42088   -309.64011            0    7548.1006    24.981821    24.976124    22.957254            0            0            0    14324.157    6997.1953    6080.7593    9566.3472   -576.11987    1290.1663    2386.2831 
   63500    261.21064   -310.06615   -245.27279   -310.06615            0    6073.3511    24.852199    24.836638    23.076418            0            0            0    14243.805    5436.9124    5223.5589    7559.5821    1773.4137    204.01926   -1119.1852 
   64000    271.91978   -310.53309   -243.08333   -310.53309            0    8216.8689    24.792091    24.856919    23.085684            0            0            0    14226.668    8092.0987    7323.9542    9234.5538   -2009.9252   -593.92665    -2309.101 
   64500    260.44102   -310.29682   -245.69437   -310.29682            0    6354.4135    24.952136    24.964313    23.001178            0            0            0    14327.732    3517.7657    7573.4968    7971.9781   -1122.1344    2331.1246   -582.60201 
   65000    255.56069    -311.0705   -247.67861    -311.0705            0    7641.9761    24.899797    24.883719    22.840102            0            0            0    14151.717    6349.3493    5506.7263    11069.853   -212.16088    221.99497   -443.52882 
   65500    254.08422   -309.87163   -246.84598   -309.87163            0    4149.1154    24.929024    24.925223    22.995042            0            0            0    14288.233    4056.7106    1632.9672    6757.6685    90.047033    3110.4578   -824.72439 
   66000    269.41116   -308.91746   -242.08996   -308.91746            0    9444.8992    24.823911    24.868874    23.004627            0            0            0    14201.739    12540.392    8365.3479    7428.9574    761.36228   -492.14167    199.75546 
   66500    263.24826   -308.60239    -243.3036   -308.60239            0     6679.932    24.892929    24.973093    22.972692            0            0            0    14281.053    5094.5117    7474.8287    7470.4558   -710.59699    540.90816    -718.7952 
   67000    260.85346   -310.72777   -246.02301   -310.72777            0    7347.1529    24.919668    24.944951    22.868428            0            0            0     14215.47    6074.4946    6634.4624    9332.5018   -498.02086   -834.54503   -230.50948 
   67500     260.9092   -310.93264   -246.21405   -310.93264            0    7393.1238    24.947229     24.87955    22.943838            0            0            0    14240.685    6694.6282     7207.357    8277.3863     453.8806   -76.578939    2457.0958 
   68000    253.84562   -309.32874   -246.36228   -309.32874            0    9528.5462    24.885477    24.813553    23.080102            0            0            0    14251.896    10083.993    10171.711    8329.9351    -1903.021   -1085.8435    827.01279 
   68500    266.15272   -310.44243   -244.42319   -310.44243            0    7494.6324    24.837623    24.905335    22.998854            0            0            0    14226.846    8765.9705    4939.1377    8778.7889    799.78338    127.04856    667.29844 
   69000    251.35901   -310.21282   -247.86316   -310.21282            0    4975.5666    24.935906    25.007862    22.846933            0            0            0    14247.204    5345.3796    4210.0506    5371.2697   -929.88839   -87.793351    406.73009 
   69500    262.56007   -312.09836   -246.97027   -312.09836            0    7558.8451    25.025197    24.879907    22.828847            0            0            0    14213.801      5512.17    8189.3915    8974.9739    749.68588    621.06936    422.16007 
   70000    257.85461   -310.68531   -246.72442   -310.68531            0    6423.2329    24.861322    24.810315    23.046788            0            0            0    14215.656    7105.8826    7080.5776    5083.2386    943.60003   -1016.5253    2162.5231 
   70500    254.43761    -309.7966    -246.6833    -309.7966            0    5576.2456    24.782529     24.88441    23.173995            0            0            0     14291.37    4606.0734    7140.1051    4982.5584   -96.013878    -2770.345    1142.4942 
   71000     256.0182    -310.7278   -247.22243    -310.7278            0    6896.1698    24.846849    24.920994    22.900693            0            0            0    14180.296    7232.2815    7003.1426    6453.0853    2217.6343    835.49462     2365.172 
   71500    262.08074   -310.40339   -245.39421   -310.40339            0    5372.1442    25.129808    24.948347    22.802272            0            0            0    14295.821    3360.9928    7006.4737     5748.966   -777.77322    1196.3916     344.0464 
   72000    273.44704    -308.6947    -240.8661    -308.6947            0       9484.4    24.985424     24.85605    22.892202            0            0            0    14216.949    8859.2945    9268.4359     10325.47    289.95645   -1782.7819   -797.23752 
   72500    263.21891    -310.8839   -245.59239    -310.8839            0    6496.2434    24.775458    24.958078    23.114681            0            0            0    14292.912    5595.4773    7336.9402    6556.3125   -521.10335    937.52671   -743.05042 
   73000    257.08932   -309.83292   -246.06186   -309.83292            0    9910.0989    24.802653    24.912054    23.075523            0            0            0     14258.02    12888.486    7961.8366    8879.9745     267.6911   -2306.3303    1808.6481 
   73500    264.41186   -309.39971   -243.81229   -309.39971            0    7158.7055    25.009576    24.846649    22.882575            0            0            0    14219.327     5485.746    6599.4184     9390.952    1572.9597   -787.20979   -1598.3437 
   74000    264.66772   -310.39561   -244.74472   -310.39561            0    5331.7879    25.067945    24.922763    22.836333            0            0            0    14267.283    5340.8404     5799.836    4854.6872    987.47244   -1061.8852    1623.9592 
   74500    255.74193   -308.76186   -245.32502   -308.76186            0    8065.0305    24.759823    24.912196    22.951813            0            0            0    14157.173      8087.97    9027.1598    7079.9616    713.99512    2570.1895    1565.9494 
   75000    257.04389   -307.85541   -244.09562   -307.85541            0    5984.3711    24.819527    24.957319    23.156934            0            0            0    14344.073    5139.2816    7097.2022    5716.6296   -162.86572    2.1156253   -181.18935 
   75500    261.07528   -309.42495   -244.66517   -309.42495            0    9890.4895    24.924875    24.775335    22.948352            0            0            0    14171.115    10079.228    9514.1141    10078.126   -1903.7528    2517.5098   -519.31161 
   76000     258.0166   -309.94309   -245.94201   -309.94309            0     6999.338    25.056435    24.920615    22.890832            0            0            0    14293.534     8387.512    7563.1195    5047.3824    407.19238    -260.1405    533.94757 
   76500     251.0656   -312.48798    -250.2111   -312.48798            0     5122.812    24.859581    24.986307    22.843888            0            0            0    14189.461    5615.4288    3551.9385    6201.0687    1860.1421    823.37965    718.84064 
   77000    247.86598   -311.14583   -249.66262   -311.14583            0    5947.5572     24.83123    24.901314    22.958753            0            0            0    14196.092    6989.3177    5716.0019    5137.3521    498.14927   -1978.3744   -2215.4986 
   77500    258.66312   -310.81948   -246.65804   -310.81948            0    6130.1809    24.913471    24.856889    23.054679            0            0            0    14277.103    7995.1391    6541.2499    3854.1536    1913.8665    278.02885   -137.54551 
   78000    260.44634   -306.79189   -242.18812   -306.79189            0    5619.0037    24.901771    24.834619    22.977767            0            0            0    14210.048    7376.9764    5022.5739    4457.4608    1523.8564   -1566.4664    1389.0546 
   78500    261.09535   -311.03051   -246.26575   -311.03051            0    6923.8499    24.951815    24.952078    22.965176            0            0            0    14298.111    6858.5653    6839.7851    7073.1992    -1840.351    2049.4216    600.19641 
   79000    262.25874   -312.05653   -247.00319   -312.05653            0    8855.7863    24.882536     24.91268    22.874029            0            0            0    14179.398    11016.852    5460.2791    10090.228   -41.891183    2021.0908    381.69144 
   79500    255.63102   -308.78856   -245.37923   -308.78856            0    7262.0562    24.960173    24.856838    23.046018            0            0            0    14298.464    4625.5224    9203.0234    7957.6229    1173.8715    907.60697   -959.80464 
   80000     258.0256   -308.34279   -244.33948   -308.34279            0    6580.4672     24.92983    24.718835    23.078871            0            0            0    14222.039    5148.5364    5406.8515    9186.0138   -1966.0508   -209.08402    692.36062 
   80500    253.14569   -308.70437   -245.91153   -308.70437            0    7630.1958    24.814402    24.974695     23.06884            0            0            0    14296.501    9521.6203     5767.586    7601.3812    88.998812    1068.4619   -2673.0606 
   81000    257.36426     -308.286   -244.44674     -308.286            0    7350.7841    24.799262    25.057292    22.880937            0            0            0    14218.268     7160.375    7900.2331    6991.7442    -856.1777    324.25736   -259.83575 
   81500    264.08131   -312.47816   -246.97274   -312.47816            0    7799.9241    25.009694    24.853955    22.820622            0            0            0    14185.066    6670.9169    6343.6702    10385.185   -232.23643   -726.59001   -918.94379 
   82000    256.74384   -309.23711   -245.55174   -309.23711            0    7021.5201    25.070886    24.810566    22.987212            0            0            0    14298.572    5840.2372    7294.0813    7930.2417     974.7987    298.25447   -2071.6359 
   82500    271.33358   -309.37766   -242.07331   -309.37766            0    8036.2996    24.767708    24.872406    23.027703            0            0            0    14185.813    9572.0093    10357.478    4179.4116   -658.10445    2056.8559    449.30825 
   83000    266.92621   -310.62042   -244.40932   -310.62042            0    5705.5952    24.846416    25.030097    23.038808            0            0            0    14328.024    5483.9103    5385.7194     6247.156   -490.76961   -884.00085    816.14486 
   83500    262.46811   -309.99283   -244.88756   -309.99283            0     6281.895    24.880451    24.890514     22.91951            0            0            0     14193.76    6907.1953    7470.9317    4467.5581   -569.13499    2794.9251   -567.50623 
   84000    269.93578   -309.25325   -242.29562   -309.25325            0    7470.1951    24.987853    24.884215    22.924417            0            0            0    14254.473    7928.8912    6119.7971     8361.897    2027.8335   -1493.4126    641.14619 
   84500    262.77229   -310.21381   -245.03309   -310.21381            0    9128.5911    25.004706    24.858252    22.969829            0            0            0    14277.432     9823.298     7618.361    9944.1143   -1320.7831    -283.0032    1771.0435 
   85000    254.40335   -309.30008   -246.19528   -309.30008            0    8425.5341    24.865697    24.862942    22.963661            0            0            0    14196.925    9490.4795    7182.4506    8603.6722   -1049.7298   -1713.7582    1059.1824 
   85500    261.60057   -307.87478    -242.9847   -307.87478            0    5742.2687    24.836087    24.908129    22.996976            0            0            0      14226.4    7075.5499    6400.0909    3751.1654    603.92689   -694.11357   -429.33667 
   86000    264.96371   -310.15461   -244.43031   -310.15461            0    7953.2783    24.958808    24.860543    22.954071            0            0            0     14242.76      9360.66     4640.464    9858.7108    839.43375    -1195.029    2083.8374 
   86500    251.77458   -309.32917   -246.87643   -309.32917            0    5608.7282    24.964523    24.868877    22.889328            0            0            0    14210.602    3526.9367    4799.7385    8499.5095    1293.5532   -1550.4181    835.23574 
   87000    257.69399   -310.03838   -246.11733   -310.03838            0    7092.8369    24.879299      24.9354    22.914924            0            0            0    14215.852     9395.048    5418.1604    6465.3022    1759.0878   -1607.8351   -709.10286 
   87500    253.13781   -308.28868   -245.49779   -308.28868            0    6558.1217    24.888189    24.921593    22.971867            0            0            0    14248.377    4845.4481    8108.2044    6720.7127    1495.5772   -230.26765    1229.7285 
   88000    258.78263   -307.39573   -243.20465   -307.39573            0    9359.4112     24.86825    24.909051    22.946059            0            0            0    14213.811    10911.456    6419.3639    10747.413   -231.53422    1658.8399   -1787.0725 
   88500    258.22664   -309.96352   -245.91034   -309.96352            0     4377.247    24.973876     24.90544    22.942913            0            0            0    14270.157    4704.5567    3598.3552    4828.8292    1850.9826    52.329728   -650.65851 
   89000    254.73581   -312.23445   -249.04717   -312.23445            0    7375.4991    24.850848    24.779337    22.980421            0            0            0    14151.057    6232.2673    9657.9819    6236.2482   -585.72456    1047.3438   -367.98639 
   89500    249.78651   -311.77294   -249.81334   -311.77294            0    6214.4352    24.843404    24.909866    23.079826            0            0            0    14282.855    8931.1573    4241.1224    5471.0259    696.63784   -98.112819    306.43332 
   90000    252.22778   -311.13211   -248.56695   -311.13211            0    7399.0307    24.788419    24.895298    22.863618            0            0            0    14109.483     5692.855    5866.4342    10637.803    483.90596   -141.25203    241.28721 
   90500     255.8486   -309.30578   -245.84248   -309.30578            0    7598.3638    25.022451    24.936455    22.886449            0            0            0    14280.485    5099.8411    7951.5044     9743.746   -2796.2421    1158.5393   -1573.2248 
   91000    259.08952   -309.95994   -245.69272   -309.95994            0    8086.8313    25.006221    24.833803    22.916246            0            0            0    14230.979    8255.8307    7411.0402    8593.6231   -130.30037   -774.07703    4486.8522 
   91500    250.68624   -309.61821   -247.43543   -309.61821            0    10476.223    24.749226    24.862778    22.999517            0            0            0    14152.397    9341.7273     10627.07    11459.873   -1430.1672   -321.13289    2023.8203 
   92000    254.29928    -309.1675    -246.0885    -309.1675            0    2576.5583    24.842452    24.978676    23.100086            0            0            0    14334.332    4064.0478    2450.4438    1215.1834   -420.90589   -948.45985    484.35932 
   92500    263.72963   -310.26104   -244.84285   -310.26104            0    9671.4987    24.876527    24.833833    22.919331            0            0            0    14159.093     9136.464    9204.3112    10673.721    281.40389    534.03099   -219.11178 
   93000    261.03722   -309.97458   -245.22424   -309.97458            0    8382.4755    24.990712    24.937636    22.922669            0            0            0     14285.62    7918.0161     9932.295    7297.1153   -1137.4568    -2476.528    1718.3315 
   93500    254.00842   -309.75562   -246.74878   -309.75562            0    6629.7531    24.861728    24.946934     22.93096            0            0            0    14222.329    9123.6398    4018.0575    6747.5619   -327.21478    1717.5241    1790.6516 
   94000    267.36583   -313.13704   -246.81688   -313.13704            0    7538.4176     24.78304    24.866737    22.997842            0            0            0    14172.957    8268.9467    8620.8764    5725.4297    1808.4135    1967.5086    432.47558 
   94500     260.3448   -311.34598    -246.7674   -311.34598            0    4373.3869    24.943442    24.772766    23.105506            0            0            0    14277.309    4558.0971    4374.6251    4187.4386   -2619.1408    474.50793   -1615.6752 
   95000    258.79141   -311.42505   -247.23179   -311.42505            0    10200.025    24.883775    24.769174    22.959609            0            0            0    14151.167    9845.8544    10642.607    10111.615    1549.9826    1123.9548    685.69596 
   95500    263.61885   -310.80044   -245.40973   -310.80044            0     7617.508    24.892348    25.033411    22.940436            0            0            0    14295.112    6757.5169    7194.7108    8900.2963   -1256.0274   -621.09202   -1959.2217 
   96000     253.7364   -308.48038   -245.54101   -308.48038            0    8233.4236    24.826141    24.913191    22.923453            0            0            0    14178.119    7915.9345    7853.9887    8930.3478    1282.2873   -136.72087   -778.82912 
   96500    257.72599   -310.45067   -246.52168   -310.45067            0    6177.1983    24.978029    24.754404    23.033751            0            0            0    14242.142    7303.2878    8239.7599    2988.5471    -190.9739     977.9111    1094.7524 
   97000    257.66473   -309.88943   -245.97564   -309.88943            0    6783.5774    24.967876    24.749032     23.03459            0            0            0    14233.782    6895.3905    7722.8337     5732.508    94.452571    407.01037   -4197.3952 
   97500    260.52759   -310.63349   -246.00957   -310.63349            0    7852.9183     24.79419    24.958111    22.888465            0            0            0    14163.752    11651.349    4592.5432    7314.8622    1425.2151    78.703116      1199.41 
   98000    256.44414   -310.38896   -246.77793   -310.38896            0    5509.4994    24.922268    25.039345    22.891529            0            0            0    14285.168    3437.5429    7419.6085    5671.3469   -1010.6048    580.32063   -469.47837 
   98500    249.22279   -308.89026    -247.0705   -308.89026            0    10235.323    24.945761     24.76457    22.888892            0            0            0    14140.095    9561.3382    12552.194    8592.4364     349.3805    421.27476   -14.673287 
   99000    255.62364   -309.29053   -245.88303   -309.29053            0    8210.1776    24.952433    24.840596    23.014783            0            0            0    14265.328    7151.9904    11998.458    5480.0841   -851.11657    -4568.923   -996.73808 
   99500    271.42185    -309.8061   -242.47985    -309.8061            0    6234.7519    24.826383    24.935448    22.972548            0            0            0    14221.316    4872.3386    6171.0629    7660.8542    1167.6222    49.613133    1338.3899 
  100000    264.67166   -310.96859   -245.31673   -310.96859            0    7433.8018    24.912945    24.949931    22.914473            0            0            0    14243.092    7592.4684    8195.7494    6513.1877    1222.3974    266.28261     1774.363 
  100500    257.71182   -309.35482   -245.42935   -309.35482            0     7194.089     24.97468    24.880652     22.90306            0            0            0    14231.648    7037.6819    10986.761    3557.8238    373.29075    168.71172    2547.8931 
  101000    259.30682    -310.0544   -245.73328    -310.0544            0    6124.9818    24.906148    24.877294    22.901579            0            0            0    14189.763    6346.0397    5391.5472    6637.3584   -1886.3127    186.77256   -492.62481 
  101500    262.66476   -310.60644   -245.45238   -310.60644            0    6367.0374    24.930256    24.996358    22.949075            0            0            0    14301.074    6299.5866    6386.9368    6414.5888   -747.98262   -1090.1963     113.6274 
  102000     262.7074   -309.00789   -243.84326   -309.00789            0    8559.2801    24.840398    24.810415    22.891877            0            0            0    14108.277    8200.9918    8819.7339    8657.1146   -267.15359    1183.8369   -424.32748 
  102500    249.04321   -309.35773   -247.58251   -309.35773            0    4582.5475    25.054126    24.885236    23.034999            0            0            0    14361.811     2868.966     5511.765    5366.9116   -857.23769   -432.65291    851.66865 
  103000     253.0398    -309.0756   -246.30902    -309.0756            0    10417.977    24.750539    24.911412    22.939196            0            0            0     14143.64    11455.529    8014.1889    11784.212   -919.30512    2308.5454    51.295055 
  103500    255.61346   -310.32688   -246.92191   -310.32688            0    5846.8194    24.849684    25.025524    22.958856            0            0            0     14277.57    7092.9188    3892.4461    6555.0934     -743.121    2687.3304   -118.11012 
  104000    266.80002   -310.92246   -244.74265   -310.92246            0    6804.0559    25.004578    24.835894    22.942934            0            0            0    14247.815    4199.6881    10031.937    6180.5427    1325.9678    -2166.838    -3880.568 
  104500     257.4192   -311.41345   -247.56056   -311.41345            0    7916.3621    24.959521    24.761333    22.929575            0            0            0    14171.188    6973.7874    6359.1713    10416.128   -1151.8154   -1321.5187    1509.4313 
  105000    257.05491   -307.28593    -243.5234   -307.28593            0    4707.5497    24.942904    24.968731    23.016056            0            0            0     14334.23    5835.5664    4518.2365    3768.8463    1037.7596    1091.1884   -1102.2418 
  105500    266.42956   -308.11378   -242.02587   -308.11378            0    6676.3258    24.808189    24.916225    22.871268            0            0            0    14137.335    4521.4461    8054.4338    7453.0974    190.24517   -735.10108     37.33758 
  106000    255.34448   -308.94808   -245.60983   -308.94808            0    6501.7868    24.967673    25.002635    22.976579            0            0            0    14343.305    7098.5932    7213.8326    5192.9347   -119.43156    1784.3183   -395.97864 
  106500    260.50896   -307.77729   -243.15798   -307.77729            0    7925.8599    24.892517    24.836106    22.949004            0            0            0    14187.836    7628.3704    7454.9682    8694.2411   -1115.6782   -312.86022    616.49466 
  107000    261.70213   -310.63994   -245.72467   -310.63994            0    7774.1713    24.925717    24.891203    23.043833            0            0            0    14297.111    3832.4254    9497.6578    9992.4307   -798.32543    -637.8914    1697.1804 
  107500    269.73734   -309.48068   -242.57227   -309.48068            0    7769.1994    24.841469    24.878716    22.941334            0            0            0    14178.291    9268.1826    7098.2253    6941.1905    957.21552    1156.3893   -1246.0616 
  108000    269.68698   -310.74193   -243.84601   -310.74193            0    6003.8529    24.920109    25.001737    22.912834            0            0            0     14275.75    5791.3625    5096.7529    7123.4433   -1654.3977   -158.82015   -1542.6494 
  108500    253.76877   -306.73537   -243.78797   -306.73537            0    6926.0893    24.926894    24.946042    22.887011            0            0            0    14231.769    4522.4495    8973.5939    7282.2245   -51.191213    467.59344   -526.58221 
  109000    249.72664    -307.6176   -245.67285    -307.6176            0    7370.8114    24.858672    24.918945     22.98029            0            0            0    14235.184    9326.5808    6495.6956    6290.1579    999.92009    1002.3727    434.55217 
  109500    259.05949    -309.5017   -245.24194    -309.5017            0    7068.2462    24.884148    24.823736    23.158147            0            0            0    14305.193    6231.7634    8786.3492     6186.626    1032.7232    770.79321    237.86677 
  110000    257.76774   -308.43827   -244.49893   -308.43827            0    5812.0963    24.897276    24.777626     23.04705            0            0            0     14217.62    4450.9765    6881.2209    6104.0917   -295.69786    4049.2999   -401.34225 
  110500     256.0606   -310.64217   -247.12628   -310.64217            0    7952.2425    24.919289    25.004883    22.848676            0            0            0    14237.099    6936.7045    5698.4496    11221.573   -331.02088    -1664.447    1224.3261 
  111000    256.14931   -309.02173   -245.48383   -309.02173            0    7015.7628    24.870953    25.027955    22.855272            0            0            0      14226.7    6694.5811    7469.2694    6883.4381   -1064.9107   -941.63929    1930.3961 
  111500    258.44672   -309.43845   -245.33068   -309.43845            0     5459.221    24.893708    24.865679    23.035623            0            0            0    14259.027    6866.3656    3925.5825    5585.7149    976.54897    42.863255   -1428.1565 
  112000    251.42391   -308.62979   -246.26404   -308.62979            0    7027.5894    24.956164    24.748011    23.047676            0            0            0      14234.6    6632.1049    8200.6876    6249.9758   -377.61365   -443.87924    2326.8874 
  112500    255.98633    -310.2749   -246.77743    -310.2749            0    8014.8471    24.901644    24.928649    22.906315            0            0            0    14219.424    6528.3934    6648.7736    10867.374    70.052544    1204.5699   -287.77409 
  113000    262.49662   -310.98135     -245.869   -310.98135            0    7495.9955    24.803359    25.055334    22.887139            0            0            0     14223.36    8673.2284    5822.8441     7991.914    105.21822   -1034.0289    218.97655 
  113500    259.06893   -308.78356   -244.52146   -308.78356            0    8057.2737    24.986046    24.840468    23.006938            0            0            0    14279.602     5265.403    10807.261    8099.1576   -1912.5257   -366.80417    879.24029 
  114000    260.75491   -310.86389   -246.18358   -310.86389            0    6134.7844    24.988051    24.724108     22.95204            0            0            0    14179.937    5797.4227    7098.1345     5508.796    1240.2376   -1986.6417    781.38183 
  114500    260.01083   -308.46075   -243.96501   -308.46075            0     7061.457    24.924061    25.018835    22.937736            0            0            0    14303.306    5173.7898    8075.2791    7935.3021    259.58504    2458.4305    1693.9407 
  115000    266.49543   -308.87269   -242.76845   -308.87269            0    9238.3718    24.805387    25.034912    22.916132            0            0            0    14230.934     9241.892    8848.2393    9624.9841    855.85752     2380.964   -934.85329 
  115500    261.19432   -310.50155   -245.71224   -310.50155            0    7104.5161    24.936148    24.855864    22.944151            0            0            0    14221.003    7746.9107     7618.024    5948.6136    295.57723   -1253.4305    120.94377 
  116000    262.90639   -313.77072   -248.55673   -313.77072            0    5799.7246    25.015018    24.819786    22.982825            0            0            0    14269.287    5943.0398    6794.7744    4661.3596   -219.26153   -1015.8149    570.14668 
  116500    263.95135   -310.23272   -244.75953   -310.23272            0    8675.3977    24.816907    24.881572    22.935425            0            0            0     14162.25    10291.843    7326.3006    8408.0494    1329.9807    -1436.052    613.91005 
  117000    257.92034   -311.94941   -247.97221   -311.94941            0    4977.5453    24.832302    25.007892    22.998842            0            0            0    14282.362    5685.0924    3226.1563    6021.3871   -2833.5815   -311.84738   -916.69565 
  117500    253.45479   -310.51285   -247.64334   -310.51285            0     6510.542     24.91803    24.885057    22.861682            0            0            0    14176.223    6134.7981    8115.5808    5281.2471   -323.35706    425.86936    1376.3857 
  118000    253.18491    -310.9142   -248.11163    -310.9142            0    8185.1613    25.009418    24.875968    22.922281            0            0            0    14260.719    8233.2427    9086.6444    7235.5968   -78.128435   -1607.5775    874.31152 
  118500    254.91717    -308.6384   -245.40614    -308.6384            0    6801.2942    24.819117    24.890909    23.020657            0            0            0     14221.48    8019.1241    7441.4363    4943.3221    250.96387   -626.86295    517.42439 
  119000    256.00046   -309.70832   -246.20735   -309.70832            0     8524.505    24.740914    24.909779    23.082506            0            0            0    14225.534    10190.267    10495.258    4887.9898    26.641589    1115.4246   -12.332461 
  119500    256.88138   -308.72458    -245.0051   -308.72458            0    9640.6271    24.948677    24.944983    23.013277            0            0            0    14322.182    7089.2524    10766.822    11065.807   -192.98841    793.80034    1327.4984 
  120000    265.61033   -309.98059   -244.09589   -309.98059            0    9166.9438     24.99935    24.809172    22.815763            0            0            0    14150.637    7302.8782     9081.888    11116.065    548.98521    181.92358   -2610.9426 
  120500    256.71311   -309.29401   -245.61627   -309.29401            0    7398.9627    24.946755    24.934919    22.974353            0            0            0    14291.089    6792.3647    7003.1132    8401.4102   -834.21413    640.54054   -555.00622 
  121000    255.02942   -308.89013   -245.63003   -308.89013            0    8451.8309    24.704932    24.962656    23.094608            0            0            0    14242.461    10860.927    8482.4113    6012.1543     1512.298    1046.4559    578.17205 
  121500    257.45236   -310.61797   -246.75685   -310.61797            0    8372.9734    24.922517    24.815234    23.009079            0            0            0    14230.151    8444.1549    8430.7295    8244.0359    332.86799   -1202.1159    464.83339 
  122000    258.34081   -309.30078   -245.21928   -309.30078            0    7073.9721    25.045182    24.873821    22.888974            0            0            0     14259.13    6913.2873    7184.9164    7123.7126     296.9841   -16.816272    1909.0272 
  122500    258.72293   -307.85615   -243.67987   -307.85615            0    10067.584    24.841569    25.007875    22.865462            0            0            0    14204.822    9929.1708    9662.9781    10610.604   -890.72255    915.49978     375.3669 
  123000    263.33201   -311.29248   -245.97292   -311.29248            0    7599.7263    24.854635    24.946333    23.049827            0            0            0     14291.63    10058.979    7223.8819     5516.318    1065.2923   -2105.0315    1116.8501 
  123500    257.49364   -309.17421   -245.30286   -309.17421            0     8099.013    24.882857    24.753595    23.041052            0            0            0     14191.91    7003.4755    8351.9949    8941.5686   -665.07155    1784.8804   -1953.0826 
  124000    260.86188   -309.42749   -244.72064   -309.42749            0    4066.1794    24.967944    24.895409    22.959045            0            0            0    14271.048    2688.6526    4354.3634    5155.5223    1216.3494   -2903.7613    1303.7191 
  124500    257.04808    -307.1986   -243.43777    -307.1986            0    8165.7653    24.913554    24.981977     22.87012            0            0            0    14234.131    10253.802     6682.123    7561.3711   -1953.0434    568.00693   -678.24985 
  125000    270.42391   -308.38554   -241.30683   -308.38554            0    7032.6573    24.867444    24.920804    22.947379            0            0            0    14220.873    8557.7519    4860.1496    7680.0703   -147.07357   -66.292651    2891.8619 
  125500    258.79211   -309.18821   -244.99477   -309.18821            0    4786.7608    24.932265    24.861882    23.095944            0            0            0    14316.322     6844.373    4663.7776     2852.132   -82.014484   -84.744514    589.34996 
  126000    263.59345   -308.43856   -243.05415   -308.43856            0    9439.0899    24.913112    24.738653    23.028141            0            0            0    14192.631    8180.1044    11415.356    8721.8094    737.25791   -1096.1119   -3109.5646 
  126500    259.10873   -311.38362   -247.11164   -311.38362            0    8142.4694    24.929685    24.956793     22.90914            0            0            0    14253.265    8233.6312     7522.381     8671.396    1709.8267   -840.30516   -1195.4231 
  127000    256.33656   -308.37424   -244.78989   -308.37424            0    8695.4409    24.920575    25.053746    22.775587            0            0            0    14220.023    8563.9734    5874.5495      11647.8    1940.9477   -540.27716    1246.7778 
  127500    258.91265   -309.86873   -245.64539   -309.86873            0    7005.2631    25.007749    24.847114    22.927499            0            0            0    14246.469      5026.92    6523.7109    9465.1584    929.82718    1716.8555   -1039.4613 
  128000      260.306   -310.13998   -245.57102   -310.13998            0    4908.5852    24.939601    24.717535    23.194557            0            0            0    14298.179    2430.2563    5469.3871    6826.1122    711.31675   -64.676186   -529.30516 
  128500    260.12972   -309.05407   -244.52883   -309.05407            0     7554.351     24.73366    24.872391    23.073919            0            0            0    14194.735    7554.4876    8142.8501    6965.7155    1257.3394   -219.80525    2110.6245 
  129000    260.98163   -309.40369   -244.66714   -309.40369            0    5315.9385    24.914336    25.085546    22.869121            0            0            0    14292.966    5008.8359     4657.653    6281.3268   -1623.3516    60.891136    249.10962 
  129500    257.26438   -307.74313   -243.92864   -307.74313            0     7288.563    24.998538    24.922596    22.817465            0            0            0     14215.93    6857.1481    7933.2331    7075.3078      -2064.5    1973.1807    735.41619 
  130000    255.57801   -309.44165   -246.04547   -309.44165            0    7976.3514    25.012686    24.791634    23.030543            0            0            0    14281.363     5028.426    10140.764     8759.864   -1888.8121     548.0945    1413.8329 
  130500    259.41601   -308.49868   -244.15048   -308.49868            0    6058.0406    24.844792     24.86241    23.068754            0            0            0    14249.602    7154.4257     7798.983     3220.713   -399.65354    999.60616    2002.6582 
  131000    256.66295   -312.11634   -248.45104   -312.11634            0    5176.6975    24.822868    24.983651    23.011942            0            0            0    14271.221    5917.5654    5101.0693    4511.4576    1425.0123    2671.1232   -410.78354 
  131500    249.62889   -310.06645   -248.14595   -310.06645            0    7268.7384    24.968514    24.869819    22.862574            0            0            0      14196.8    3543.9196    9580.0592    8682.2365   -1616.3052    -1522.745    1442.8259 
  132000    258.58427   -310.54888   -246.40699   -310.54888            0    7932.1449    25.043408    24.899391     22.89446            0            0            0    14276.197    8084.9369    6267.5759    9443.9219    1819.9868   -806.52519   -2090.4747 
  132500    266.03189   -308.83698   -242.84771   -308.83698            0    6161.2133    24.904596    24.931907    22.976054            0            0            0     14266.27    6158.0234    5540.8157    6784.8007    1364.5475    497.98481   -922.27254 
  133000    260.90046   -307.99688   -243.28047   -307.99688            0    7070.8476     24.77649    24.966586    23.094919            0            0            0    14286.155    7291.5882    7702.1169    6218.8378    1610.8663   -438.74637   -978.65085 
  133500    255.81442    -308.7727   -245.31787    -308.7727            0    8620.3897     24.90091    24.898909    23.031009            0            0            0    14279.352    8964.4266     11371.94    5524.8024   -417.62724   -355.11171    405.16728 
  134000    256.36175   -310.49276   -246.90217   -310.49276            0    8159.8474    24.981773    24.794181    22.864511            0            0            0    14162.338    7535.8146    9952.9274    6990.8003    643.57335   -772.90641    1440.1656 
  134500    262.09111    -309.2305   -244.21874    -309.2305            0    6871.4034     24.96648     24.97524    22.942408            0            0            0    14305.597    7826.2524    6195.6278      6592.33   -1500.5678    399.73289     417.4908 
  135000    257.55098   -311.68876   -247.80319   -311.68876            0    6189.3044     24.74112    24.887748    23.052359            0            0            0    14194.508    7569.3421    5649.6704    5348.9008    1230.1374    1438.5738   -2182.2254 
  135500    260.04055   -310.67104   -246.16792   -310.67104            0    7992.2348    24.859477    24.842288    23.124617            0            0            0    14280.984    9144.2571    5484.6516    9347.7957   -1943.0505   -888.60441    808.17741 
  136000    259.90109   -309.58245   -245.11393   -309.58245            0    7441.1933    25.023321    24.800608    22.912667            0            0            0    14219.454     6359.981    7563.5805    8400.0184    405.04429    52.432626   -236.80023 
  136500    255.39262   -308.16436   -244.81417   -308.16436            0    8345.6621     25.00064    25.004316    22.700774            0            0            0    14190.796    8187.9715    6781.6243    10067.391     1038.384   -1768.3681    69.369408 
  137000    261.41655   -309.83536   -244.99093   -309.83536            0    6132.7773    24.890722    25.093457    22.924767            0            0            0    14318.678    4999.9591    5513.3585    7885.0143    137.76239    402.32832   -2337.5716 
  137500    273.45355   -310.51022   -242.68001   -310.51022            0    13830.973    24.766845     24.75972    23.082455            0            0            0    14154.626    14498.586    15492.094    11502.237   -660.59736    -2143.987    191.92486 
  138000    264.80876   -309.76479   -244.07892   -309.76479            0    6992.4828    24.997217    24.792212    23.163646            0            0            0    14355.352    4338.1852    8275.1153    8364.1481    815.89373   -1102.8101   -605.38202 
  138500    258.05204   -308.97623   -244.96636   -308.97623            0    5505.3957     24.89627    24.837024    22.906072            0            0            0    14163.953    4928.3669    7530.9165    4056.9036   -1573.8374   -2132.4019    1706.0198 
  139000    253.90536    -312.6611   -249.67982    -312.6611            0    5826.9965    24.922903    25.005578    22.846116            0            0            0    14237.964    6139.7768     5492.031    5849.1818     1843.493    2324.1092    1749.9732 
  139500     257.4374   -309.13878   -245.28137   -309.13878            0    10007.744    24.895947    24.952221    22.843499            0            0            0    14190.591    10832.614    9354.0739     9836.545   -1680.8411   -1244.4159   -1393.9531 
  140000    261.35174   -309.21392   -244.38556   -309.21392            0    6960.6451    24.925153    24.907721    23.008091            0            0            0    14284.085    4679.1294    8733.2952    7469.5106   -1163.2056    1463.8379    69.981997 
  140500    267.60629    -309.0813    -242.7015    -309.0813            0    7556.4326    24.869141    24.803305    23.019885            0            0            0    14199.515    9988.7167     7136.459    5544.1222   -638.23228   -781.80947    843.77621 
  141000    259.85412   -310.52337    -246.0665   -310.52337            0    4922.8458    24.939312    24.908916    22.958883            0            0            0    14262.316    4239.7753    4997.5775    5531.1847   -134.08573    1367.2884   -913.99209 
  141500     255.4374   -308.92837   -245.56707   -308.92837            0    7083.1854    24.901131    24.901152    22.859843            0            0            0    14174.631    7761.8133    8328.1451    5159.5979    1054.6353   -265.18409    989.60715 
  142000    260.21672    -310.3613   -245.81448    -310.3613            0    7950.7475    24.917984    24.947336    22.949541            0            0            0    14266.291    8584.8791    5197.0451    10070.318    17.694995    901.86512    -90.71955 
  142500    265.27701   -308.83864   -243.03662   -308.83864            0    6033.5704    24.853012    24.912809    23.086588            0            0            0    14294.254    8222.2457    4772.5555    5105.9099    1124.2493    90.325508    1142.7876 
  143000    266.17679   -310.91496   -244.88975   -310.91496            0    5577.9068    24.859376    24.806891    23.002397            0            0            0    14185.206    6650.9854    5350.2433    4732.4916    855.51754   -178.13309   -1585.7389 
  143500    265.13051   -310.19968     -244.434   -310.19968            0    3845.9263     25.09503    24.904805    22.946561            0            0            0    14341.298    5142.9835    2761.4224    3633.3728    561.82496    -786.7407    1094.1697 
  144000    270.77433   -311.21155   -244.04592   -311.21155            0    6647.2142    24.914975    24.933806    22.783379            0            0            0    14153.608    5834.0781    7495.4177    6612.1469   -17.647629    1622.4161    3149.3368 
  144500    258.91674     -308.841   -244.61664     -308.841            0    2604.1849    24.890138    25.039891    23.008629            0            0            0    14340.044    4320.7811    2725.0008    766.77279   -377.67113   -1240.1136     1949.199 
  145000    262.73448   -309.98164   -244.81029   -309.98164            0    6686.3474    24.838611    24.793911    23.035725            0            0            0    14186.466    7601.3791    9200.4207    3257.2425     853.1188   -217.72193    2752.8874 
  145500    254.06781   -308.57038    -245.5488   -308.57038            0    6297.9072    24.979397    24.859496     23.02112            0            0            0    14295.545    8370.8717    6186.6578    4336.1922    134.87733   -324.34353    1695.4502 
  146000    261.21357   -310.38398    -245.5899   -310.38398            0    10119.848    24.882576    24.969133    22.853458            0            0            0     14198.77    10744.248     7580.408    12034.888    1230.9757   -18.472008    510.64013 
  146500    256.88004   -310.38949   -246.67034   -310.38949            0    8628.9654    24.851121    25.007502    22.882984            0            0            0    14220.962     10136.19    8336.0209    7414.6853   -901.77901   -6.3491733     1399.805 
[...]
  365000    269.88321   -311.18994   -244.24535   -311.18994            0    7117.2606    24.779355    24.868815    22.917579            0            0            0    14122.573    7330.2287    5516.2486    8505.3044   -66.580956     408.8972    1606.9286 
  365500    259.00346   -309.51468   -245.26882   -309.51468            0    8824.1562    25.071133    24.776249    23.034328            0            0            0    14308.202    8062.9804    9604.6863    8804.8018    1173.9988   -2737.9106    786.61488 
  366000    266.08972   -308.37218   -242.36857   -308.37218            0    6497.4452    24.929429    24.860623    22.976563            0            0            0    14239.981    5651.2067    6333.0186    7508.1101    1569.0359    1924.1831    2149.9665 
  366500    263.74791   -310.90021   -245.47748   -310.90021            0    10012.546    24.845704    24.974831    22.963554            0            0            0    14249.281    12427.854     8553.945    9055.8409    63.072218    633.70029   -497.36138 
  367000    257.29629   -310.79968   -246.97727   -310.79968            0     5677.398    24.874597    24.924143    22.938777            0            0            0    14221.538    5353.2075    7345.3778    4333.6088   -621.14492   -1299.9468    1723.4951 
  367500    257.62052   -309.08256   -245.17973   -309.08256            0     7923.697    25.002913    24.871548     22.93368            0            0            0    14261.564    9556.3449    10530.786    3683.9601   -1202.9494    1082.9692    817.63725 
  368000    263.99915   -309.63674   -244.15169   -309.63674            0    9066.6861    24.886874    24.865665    22.952548            0            0            0    14203.695    8905.1551    8815.3608    9479.5425    724.53568   -773.84267    2138.7875 
  368500    257.00604    -310.0275   -246.27709    -310.0275            0    3689.4174    24.845389    24.965137    22.959756            0            0            0    14241.214    4858.8807    3911.0099    2298.3618   -340.41017    3741.9441    1043.9125 
  369000    267.30803   -310.43781     -244.132   -310.43781            0    7680.0157    24.957513    24.907371    22.921377            0            0            0    14248.525    6926.8998    5592.6097    10520.538      734.183   -452.40056    1193.3936 
  369500    262.32001    -309.3055   -244.23696    -309.3055            0    9035.5566       24.977     24.82698    22.918285            0            0            0    14211.709    7336.5965    11309.819    8460.2542   -1415.0666   -971.53056    1125.9061 
  370000    262.68479   -309.52667   -244.36765   -309.52667            0    7934.5423    24.933243    24.963739    23.025202            0            0            0    14331.506    10051.081    4188.4032    9564.1428     1300.445    -806.0483    1114.4368 
  370500    254.36018   -310.03393   -246.93984   -310.03393            0    10297.485    24.690957    24.894346    22.982161            0            0            0    14126.335    8713.5396    12630.768    9548.1473    1272.9359   -1158.7506   -1763.2598 
  371000    251.46565   -310.25504   -247.87893   -310.25504            0    2173.6557    24.961615    24.945059    23.030246            0            0            0     14340.22    1904.9202     3818.985    797.06188   -1118.0911    365.96249    972.60015 
  371500     262.2068   -310.56547   -245.52502   -310.56547            0    11236.222    24.954851     24.75251    22.834831            0            0            0    14104.965    9909.2775     12922.53    10876.857    349.50143   -489.88868   -2394.7752 
  372000    258.05177    -308.7892    -244.7794    -308.7892            0    6035.2278    25.011645    24.970508    23.000461            0            0            0    14365.017    6471.4667    6073.1785    5561.0382    321.21148   -2727.3714   -15.372025 
  372500    256.60149   -310.03371   -246.38365   -310.03371            0    8215.5787    24.783422    24.901859    22.952833            0            0            0    14165.416    10158.676    7268.9409    7219.1196   -265.62739    886.06062   -773.92959 
  373000    253.89097    -313.9117   -250.93399    -313.9117            0    6035.6637    24.884005     24.85927    22.988872            0            0            0    14220.875    5868.3405    4646.6285    7592.0222   -513.04571    293.10304    1177.3989 
  373500    260.37108   -309.52469   -244.93959   -309.52469            0    7917.0818    25.002742    24.833056    22.959249            0            0            0    14255.271    7101.1124    8460.4655    8189.6675    422.61224    806.27503   -1196.7302 
  374000    260.35486   -309.47594   -244.89486   -309.47594            0    7935.5154    24.934987    24.924928    22.900976            0            0            0     14233.02      6102.71    6474.0046    11229.832   -388.99081    1156.9701   -388.53131 
  374500    266.29727   -308.42572   -242.37062   -308.42572            0    6268.8387     24.90595    24.999172    22.925806            0            0            0    14274.252     8552.535    4830.6233    5423.3578   -847.16388   -382.46527    331.69664 
  375000    265.32176   -309.68152    -243.8684   -309.68152            0    6441.7786    24.911871    24.899828    22.994259            0            0            0    14263.369    3378.5194    6796.3611    9150.4552    916.52184    1445.4384    1392.0653 
  375500    259.41189   -309.43138    -245.0842   -309.43138            0    6042.7346    24.923618    24.834997    23.007679            0            0            0    14241.247    6628.4089    6889.3164    4610.4785   -915.72983   -86.985403    998.89543 
  376000     260.1983   -307.69988   -243.15763   -307.69988            0    6707.3425     24.90572    24.956453    23.011104            0            0            0    14302.745    4685.5627    8707.3317    6729.1331   -436.50708    218.71991   -787.73456 
  376500    257.21403    -308.6857    -244.8837    -308.6857            0    7354.3673    24.855061     24.94914    22.924625            0            0            0    14215.844    10034.194    5347.1519    6681.7559    -483.6244   -1238.0669    571.73907 
  377000      255.879   -311.74997   -248.27913   -311.74997            0    6358.2599    24.947783    24.844097    23.051061            0            0            0    14287.166    6406.6251    6495.5824    6172.5722    6.1287049    -2504.999    460.43725 
  377500    256.99724   -310.98657   -247.23835   -310.98657            0    6695.9925    24.920056    24.756461    23.062966            0            0            0     14228.29    3902.4039    10104.376    6081.1972   -952.46193   -1299.4396    489.79474 
  378000    256.35747   -308.86986   -245.28034   -308.86986            0    7917.2609    24.905021    24.966166     22.92371            0            0            0     14253.57    6554.6745    9638.2804    7558.8279   -1943.5387    -1581.539   -740.17645 
  378500    256.34299   -308.89769   -245.31175   -308.89769            0    8991.4486    24.880681    25.076884    22.807248            0            0            0    14230.125    10954.755    7402.8712    8616.7193    342.36341   -1280.3344    1157.1971 
  379000    261.12503   -310.71654   -245.94442   -310.71654            0    6680.5173    24.937075    24.906689    22.903955            0            0            0    14225.645    5858.0242    8076.6173    6106.9104    1080.9513    -744.3869    407.53718 
  379500    257.90739    -311.5267   -247.55272    -311.5267            0    9455.3332    24.930117    24.762955    23.144727            0            0            0    14288.243    10884.193    10223.045    7258.7619    399.50524   -1615.8883    748.69449 
  380000    252.56121   -311.85573   -249.20787   -311.85573            0    5466.5035    24.766413      24.7985    23.062665            0            0            0    14164.394    6235.5471    7275.3453    2888.6182   -260.93984    397.79206    2701.8749 
  380500    261.88577   -310.65292    -245.6921   -310.65292            0    5276.0865    24.879908    25.076223    22.902722            0            0            0    14288.873    6310.1003     3420.599      6097.56    331.27394    947.63097    778.68438 
  381000    262.17684   -309.80208   -244.76906   -309.80208            0    9474.4084     24.92292    24.951628    22.811344            0            0            0    14185.632    10964.149    7088.8741    10370.203   -2360.5982   -1161.3959   -1649.0145 
  381500    264.46117   -307.56388   -241.96423   -307.56388            0    7251.0059     24.98704    24.882799    23.028015            0            0            0     14317.61     9587.362    6210.7126    5954.9431   -917.64454   -2236.9968    445.15873 
  382000    264.67421   -310.12453   -244.47203   -310.12453            0    6897.6457    24.851992    24.814921    23.072611            0            0            0    14228.884    10289.734     5044.798    5358.4048    229.84729    1177.7235    1965.0729 
  382500    262.01157   -307.05346   -242.06143   -307.05346            0     6603.836    24.870643    24.889582    23.034523            0            0            0    14258.828    6454.8711    5750.7796    7605.8574     175.7114    1985.2203   -850.54615 
  383000     265.3051   -307.79707   -241.98808   -307.79707            0    6556.7178    24.948845       24.964     22.92336            0            0            0    14277.195    8262.2055    4631.6675    6776.2804   -416.99065   -181.86412   -364.12273 
  383500    272.19198   -309.72579   -242.20851   -309.72579            0    7248.3556    24.950726     24.92798    22.853019            0            0            0     14213.92    8357.4694    7010.5021    6377.0953    807.47304    12.637386    1964.2377 
  384000    256.84537   -311.55236   -247.84181   -311.55236            0    5223.2952    24.920724     24.91511    22.997904            0            0            0    14279.458    9830.2428    1919.0419     3920.601    840.93959    1962.0418   -2009.4522 
  384500    259.27502   -311.60714   -247.29391   -311.60714            0    9874.1415    24.786646     24.82132    22.997472            0            0            0    14148.902    8290.7855    11207.132    10124.507   -919.75409    919.68642   -3077.3809 
  385000    254.40291   -311.72447   -248.61977   -311.72447            0    7557.8893     24.92562    24.922595    23.059832            0            0            0    14325.025    7242.9797    8497.5163    6933.1719    396.95449    2161.3099   -526.26482 
  385500    257.42623   -310.07982   -246.22519   -310.07982            0    9950.7279    24.861744    24.840121    22.855929            0            0            0    14115.106    8236.7061    9915.2066    11700.271    235.48677    401.59161   -1499.2343 
  386000    259.53423   -308.97908   -244.60156   -308.97908            0     8159.164    24.965158     24.97533    22.960258            0            0            0    14316.021    6789.7913    7075.9395    10611.761   -241.74046    672.97025   -2834.8572 
  386500    259.13882   -308.78072   -244.50128   -308.78072            0    8147.7682    24.865433     24.86979    23.034533            0            0            0    14244.511    9304.9928    7101.2572    8037.0545    92.111798   -2162.6603    201.54642 
  387000    256.75419   -309.36126   -245.67333   -309.36126            0    8394.5136    24.860435    24.808719     23.04527            0            0            0    14213.298    10833.578    6814.0558    7535.9074    32.495278   -22.388894   -1633.4534 
  387500    255.10952   -310.00127   -246.72129   -310.00127            0    5264.4243    24.949577    24.913028    22.969632            0            0            0    14277.223     3595.512    5735.8179    6461.9429    1957.0587    363.75282    620.12729 
  388000    258.78112   -311.55069   -247.35998   -311.55069            0    6910.3996    24.892932    24.960795    22.778252            0            0            0    14153.207    9580.4616    4873.3736    6277.3636   -1651.0783     370.4076    91.557904 
  388500    251.86652   -311.85816   -249.38262   -311.85816            0    4049.5127    24.936711    24.947472    22.937046            0            0            0    14269.318    5247.4928    3247.5798    3653.4655    434.84536   -3109.1612   -165.45693 
  389000    254.97479   -310.34365    -247.0971   -310.34365            0    8295.9978    24.864084    24.676913    23.115932            0            0            0    14183.216    9574.4654    10610.534    4702.9938   -12.961871    796.36074    9.0510893 
  389500    253.30424   -312.62353   -249.79136   -312.62353            0    4496.5655    24.893553    24.826423    23.098564            0            0            0    14275.325    3219.6075    7091.4914    3178.5975   -314.32683    69.271842    211.31876 
  390000     254.3703   -313.36008   -250.26347   -313.36008            0    8828.4151    24.794031    25.069135    22.781738            0            0            0    14160.329    11073.519    6974.0475    8437.6794    -1150.796    1833.4998   -662.24252 
  390500    257.62737   -309.05469   -245.15017   -309.05469            0    8916.6483    24.886832    25.072317    22.815398            0            0            0    14236.136    10089.045    8584.1102      8076.79    32.234124     768.3959   -1374.7241 
  391000    259.10682   -308.54494   -244.27344   -308.54494            0    5143.3036    25.012748    24.807821    23.021694            0            0            0    14285.232     4050.197    4929.4059    6450.3079   -450.82118    961.06892    206.02728 
  391500    260.35561   -309.24753   -244.66626   -309.24753            0    9496.6529    24.918119    24.750141    23.058781            0            0            0    14220.972    8406.0505    10832.217     9251.691    1426.6748    1037.4343    655.99965 
  392000    254.74785   -310.27982   -247.08956   -310.27982            0    6735.6134    24.849019    24.965512    22.950531            0            0            0    14237.786    6415.5012    6746.5432    7044.7957    468.55396    448.54334   -136.96516 
  392500    260.61346   -309.65955   -245.01432   -309.65955            0    8272.2238    24.928871    24.929377    22.850816            0            0            0    14200.896    7863.9349    7528.1124    9424.6242   -1322.1884    253.37599   -898.28536 
  393000    255.33304   -307.59376   -244.25835   -307.59376            0    5666.3635    24.963342    24.887348     22.98247            0            0            0    14278.351    5805.4966    7908.8734    3284.7205   -874.63996    912.13735   -1230.1333 
  393500    257.94369   -308.92703   -244.94404   -308.92703            0    6278.1616    24.834765    24.918439     23.00206            0            0            0    14234.677    7155.0049    6395.2594    5284.2203   -848.99297   -678.46394    421.88265 
  394000    259.23542    -311.3696   -247.06619    -311.3696            0    7370.1443    24.843629    24.967603    22.975734            0            0            0    14251.524    7541.5916    6785.8623    7782.9792    898.73899    381.21731   -1171.2138 
  394500    264.69829   -310.71325   -245.05478   -310.71325            0    9193.2837    24.953953    24.891542     22.86846            0            0            0    14204.569    9930.7996    10170.455    7478.5964   -571.54508   -1049.3892    -215.5425 
  395000    259.58913    -311.0671   -246.67596    -311.0671            0    6426.0968    25.006908       24.837    22.994499            0            0            0    14281.805    7652.8027    6958.0667    4667.4209     1220.428     -18.6864    1528.1227 
  395500    257.86286   -311.06833   -247.10539   -311.06833            0    7855.7383    24.821229     24.85149     22.98234            0            0            0     14176.53    8629.8739    5345.0548    9592.2863   -498.37056    916.90022    1650.8301 
  396000      256.835    -311.5083   -247.80032    -311.5083            0    8600.1505    24.744664    25.057022    22.960418            0            0            0    14236.092    10253.727    7393.2026    8153.5219    2209.7012   -599.20572   -120.89897 
  396500    266.93217   -309.74711   -243.53453   -309.74711            0    7416.5277    24.961735    24.969501     22.86602            0            0            0     14251.98    7325.0033    5947.6847     8976.895    953.42504   -388.29929   -777.51098 
  397000    256.25352   -310.84457   -247.28083   -310.84457            0    10717.806    25.081072    24.772343     22.83263            0            0            0    14186.299    6025.0856    14384.033    11744.301   -748.34848   -234.96873    488.01279 
  397500    265.58517   -310.54431   -244.66585   -310.54431            0    5183.6881    24.928877    24.923259    22.988018            0            0            0     14282.66    6357.4346    3147.4298    6046.1999    449.74572   -239.25991   -747.49604 
  398000    264.65495   -311.68687   -246.03915   -311.68687            0    8470.1832    24.765271    24.920034    22.997374            0            0            0    14192.861    7403.8188    8643.5285    9363.2024   -101.44852   -290.35054   -758.76897 
  398500    261.71145   -311.04004   -246.12245   -311.04004            0    9591.4648    24.864254    24.927619    22.989662            0            0            0    14249.145      11660.3    8433.2573    8680.8366    129.71441    1131.4844    -205.3068 
  399000    256.50545   -311.98699   -248.36076   -311.98699            0    7016.6439    24.941056    24.855679    22.865484            0            0            0    14174.929    7886.9844    5740.5304    7422.4168    1777.7827    1160.1548   -1065.7884 
  399500     255.1639   -311.79412   -248.50066   -311.79412            0    8787.3407    24.961108     24.93343    22.904081            0            0            0    14254.722    7993.1279    7582.6532    10786.241   -1412.7163    408.76512   -2225.3652 
  400000    251.81933   -310.42976   -247.96592   -310.42976            0    8494.3439    24.783715    24.882107    22.941579            0            0            0    14147.407    6924.3536    9689.8534    8868.8246    1502.6709   -636.74565    404.54144 
Loop time of 4381.8 on 1 procs for 400000 steps with 1920 atoms

Performance: 3.944 ns/day, 6.086 hours/ns, 91.287 timesteps/s
64.6% CPU use with 1 MPI tasks x 1 OpenMP threads

MPI task timing breakdown:
Section |  min time  |  avg time  |  max time  |%varavg| %total
---------------------------------------------------------------
Pair    | 3753.3     | 3753.3     | 3753.3     |   0.0 | 85.66
Bond    | 0.067793   | 0.067793   | 0.067793   |   0.0 |  0.00
Neigh   | 578.31     | 578.31     | 578.31     |   0.0 | 13.20
Comm    | 16.16      | 16.16      | 16.16      |   0.0 |  0.37
Output  | 2.8212     | 2.8212     | 2.8212     |   0.0 |  0.06
Modify  | 28.843     | 28.843     | 28.843     |   0.0 |  0.66
Other   |            | 2.288      |            |       |  0.05

Nlocal:        1920.00 ave        1920 max        1920 min
Histogram: 1 0 0 0 0 0 0 0 0 0
Nghost:        7236.00 ave        7236 max        7236 min
Histogram: 1 0 0 0 0 0 0 0 0 0
Neighs:         0.00000 ave           0 max           0 min
Histogram: 1 0 0 0 0 0 0 0 0 0
FullNghs:      548244.0 ave      548244 max      548244 min
Histogram: 1 0 0 0 0 0 0 0 0 0

Total # of neighbors = 548244
Ave neighs/atom = 285.54375
Ave special neighs/atom = 0.0000000
Neighbor list builds = 40000
Dangerous builds not checked

unfix		3
unfix		2

write_data	data.final.${pid}
write_data	data.final.0
System init for write_data ...

write_restart   restart.lmp.${pid}
write_restart   restart.lmp.0
System init for write_restart ...
Total wall time: 1:13:05
