LAMMPS data file via write_data, version 23 Jun 2022, timestep = 7588000

2268 atoms
2 atom types

0.8392584957705616 46.611440504200665 xlo xhi
0 20.047001 ylo yhi
0 20.857 zlo zhi

Masses

1 1.008
2 15.999

Atoms # full

382 0 1 -1.1794 4.6222058568079625 2.0390804953871506 2.66361604144558 0 1 0
383 0 2 0.5897 4.860997322617449 1.2877452538365064 2.120243325247617 0 1 0
384 0 2 0.5897 3.8021862659740417 1.983968331181776 3.3012963664761372 0 1 0
1775 0 2 0.5897 6.0263226993115255 2.5692105408373207 0.591724899226947 0 1 0
371 0 2 0.5897 4.859932662294218 3.860581700877088 2.5283627492349616 0 -1 1
1785 0 2 0.5897 1.3870985270634286 3.7254782198314853 2.11126546209387 0 0 1
1784 0 2 0.5897 1.1994464680421275 2.1677539894203606 1.683864574620299 1 0 1
2096 0 2 0.5897 5.626063565515531 1.9583498300055315 4.021606926155264 0 0 1
1783 0 1 -1.1794 0.9578568640713251 3.099000416608875 1.445049393167693 0 0 1
512 0 2 0.5897 1.8216810014751725 1.7033804394979133 4.007620884078321 0 0 -1
103 0 1 -1.1794 1.1709757051041294 0.09836713515548948 1.0609519690517724 0 1 1
1533 0 2 0.5897 2.3206793335425653 3.4702832001776125 0.05015664573737709 1 0 1
2082 0 2 0.5897 7.735692263740732 1.8540181776511702 1.7678863134609102 0 1 -1
2158 0 1 -1.1794 10.504195415292589 2.910554715549923 2.8070595306771193 0 1 1
2160 0 2 0.5897 10.962600434560438 2.4490652208266748 2.0947545169803106 0 1 1
2080 0 1 -1.1794 7.451305518405892 2.772127028874638 1.6681926454982994 0 1 -1
2159 0 2 0.5897 10.665863655633354 3.869273030505113 2.64905094918613 0 1 1
1263 0 2 0.5897 9.096304528417274 2.2316377646003134 3.7643360045486713 0 -1 1
10 0 1 -1.1794 11.25312356636689 0.6238672010876326 1.1618380885235522 0 1 0
1620 0 2 0.5897 8.705042277703924 3.51435876968546 0.20705359879281257 0 1 0
2081 0 2 0.5897 7.972869984573103 3.3702613931626795 2.2239301401128087 0 1 -1
11 0 2 0.5897 12.089375137292027 0.15015477831532023 1.0379221266144871 0 1 -1
2061 0 2 0.5897 11.732813900390722 1.665671772660439 4.1618163421242285 0 1 -1
12 0 2 0.5897 10.710016778775007 0.3810842748036026 0.43117786247240036 0 1 0
896 0 2 0.5897 10.952988279622888 3.9837263027078498 0.30762588156970216 0 1 1
897 0 2 0.5897 12.219983994620616 3.9526979956935206 1.1785123184060946 0 1 1
370 0 1 -1.1794 4.726473689385976 4.8436833954747724 2.667943798379011 0 -1 1
581 0 2 0.5897 4.975368868234977 5.941369336700496 1.16604995167837 0 -1 2
580 0 1 -1.1794 5.155224756789001 6.662307609104523 0.5469267866025899 0 -1 2
1593 0 2 0.5897 1.9589256495396343 6.711595366689735 0.4901076634676782 0 0 -1
372 0 2 0.5897 3.7847790305967735 4.902022661792163 2.9894448039801236 0 -1 1
2065 0 1 -1.1794 1.8876688849536567 5.027694954050577 3.3322404552005915 0 1 0
2067 0 2 0.5897 1.8149577138536386 5.737393964964018 2.6810514721652696 0 1 0
582 0 2 0.5897 6.10436602814884 6.70807382656785 0.6258939842612925 0 -1 2
1591 0 1 -1.1794 1.4087898385802569 6.978228344701523 1.2775465584351129 0 0 -1
1592 0 2 0.5897 1.4320686524667516 7.904660208627607 1.4532288700291436 0 0 -1
2066 0 2 0.5897 1.3136913671478094 5.218941674495342 4.0532505470877425 0 1 0
1326 0 2 0.5897 11.07020172416182 6.1986204740348185 2.498993485347357 0 -2 1
2087 0 2 0.5897 8.040885501157636 6.117294730904058 1.9418791705749814 0 1 0
1324 0 1 -1.1794 10.90101752346662 5.5555213218937185 3.1920225971064897 0 -2 1
1639 0 1 -1.1794 8.353681177117283 4.859663192974498 3.45334860858434 0 0 0
2086 0 1 -1.1794 7.780111234614537 6.839973708225156 1.2802233192055812 0 1 0
1640 0 2 0.5897 9.206949987346178 5.2622249061934845 3.4460943180803403 0 0 0
856 0 1 -1.1794 11.71225420364649 7.031698956063522 0.9653984474317334 0 0 -1
1325 0 2 0.5897 11.449914467933239 5.664150474892039 4.026375332937301 0 -2 1
857 0 2 0.5897 11.205083657425488 6.684276925548996 0.22110918974422153 0 0 -1
2088 0 2 0.5897 8.107503422256226 7.661774847755435 1.7295478392865111 0 1 0
1641 0 2 0.5897 7.742197739001609 5.182958781334692 4.112457486348409 0 0 0
895 0 1 -1.1794 11.921375197577596 4.028178356236941 0.2679301057580613 0 1 1
1576 0 1 -1.1794 1.5624336191654518 9.83287127089327 1.57028037398147 0 2 -1
1562 0 2 0.5897 4.980579651607132 8.202295041100792 1.9150085117759337 0 0 0
1561 0 1 -1.1794 4.811011570405962 8.859808306051375 2.576636733685664 0 0 0
759 0 2 0.5897 5.012206272248448 10.617797935650602 2.544853409124236 0 -1 0
1577 0 2 0.5897 2.151805232494046 10.00409321965802 0.7930706628577862 0 2 -1
1563 0 2 0.5897 3.992691132558984 8.562449336172545 3.0046493487484085 0 0 0
1343 0 2 0.5897 2.0644297833922476 11.075307495222779 2.681270717690456 0 0 -1
757 0 1 -1.1794 4.894365202276601 11.50438082434646 2.908097490339218 0 -1 0
1342 0 1 -1.1794 2.2197007332162872 11.781769744330255 3.3430674273278314 0 0 -1
758 0 2 0.5897 5.50670018849571 11.711648795366264 3.658060502478975 0 -1 0
1863 0 2 0.5897 5.8560168204198195 8.404341377184148 3.9858473252192894 0 0 -1
1344 0 2 0.5897 3.200341112036479 11.7596978905525 3.3492060017698684 0 0 -1
624 0 2 0.5897 7.361215798146017 9.858099704077903 0.98008119573839 0 1 1
853 0 1 -1.1794 11.217697269752554 9.205405634744912 2.844009296937964 0 0 0
855 0 2 0.5897 11.464020383624295 10.125487365445856 2.6636267269543707 0 0 0
622 0 1 -1.1794 8.082220363255981 9.647542912449762 1.579676575937982 0 1 1
623 0 2 0.5897 8.94621020698356 9.740176651235293 1.119717009381964 0 1 1
854 0 2 0.5897 11.704790907081598 8.6272422115544 2.231937528252073 0 0 0
534 0 2 0.5897 8.409263624837472 10.63752039479465 3.1365960315151717 0 -1 1
1874 0 2 0.5897 9.825879577672458 8.501472376492895 4.117127861353229 0 0 0
533 0 2 0.5897 9.841953921695293 11.350126786576833 3.4027723403450025 0 -1 1
532 0 1 -1.1794 8.862890142473935 11.305496496063231 3.627428606680233 0 -1 1
1782 0 2 0.5897 5.319538275210194 12.70694861603404 1.5382532549779528 0 -1 -1
1780 0 1 -1.1794 5.442497376419864 13.515008822385928 0.9413590623444323 0 -1 -1
20 0 2 0.5897 2.1641711627956264 13.53487960554813 0.7032026723175306 0 -1 0
1781 0 2 0.5897 6.435913217837462 13.5775413786918 0.9006879137237626 0 -1 -1
2073 0 2 0.5897 4.875008016929006 14.639864431253104 1.9488055904734216 0 -2 0
2072 0 2 0.5897 4.011721905268783 14.907156488668171 3.1238999091497455 0 -1 0
2071 0 1 -1.1794 4.671915076019486 15.322707760514106 2.6075213783895865 0 -2 0
21 0 2 0.5897 1.4904477477675093 12.914582527550188 1.902557703436628 1 -1 0
19 0 1 -1.1794 1.4094491578065313 13.678217679104803 1.3144598831409775 0 -1 0
135 0 2 0.5897 1.2248763960506284 15.466347419737119 1.331826552032734 0 0 0
2241 0 2 0.5897 6.096774688793474 15.218527625895367 4.006027365687162 1 0 1
1292 0 2 0.5897 1.5469964644207352 15.744329061604219 4.011079339470137 0 -2 0
2023 0 1 -1.1794 11.579492532771285 12.039001545262927 2.936482914219809 0 2 -1
2025 0 2 0.5897 11.735193079782286 12.532950478454417 2.153585426251007 0 2 -1
2074 0 1 -1.1794 11.139708265069654 13.757358785784826 0.8540243779291482 0 0 1
389 0 2 0.5897 8.272608215411289 12.943187184948503 2.100705852594758 0 -1 0
388 0 1 -1.1794 8.087372705426771 13.372713412152187 1.264907596526434 0 -1 0
390 0 2 0.5897 8.568265678465222 13.0280429811604 0.504913278910498 0 -1 0
2076 0 2 0.5897 10.889767808043954 14.52794691386112 1.4008413028802345 0 0 1
1305 0 2 0.5897 8.050635998087506 15.466184891119738 1.5300896159308517 0 0 0
41 0 2 0.5897 10.357147310207635 15.712563188978354 3.3812783752064197 0 1 1
40 0 1 -1.1794 11.087141792012522 15.679245624436506 2.7179563213701714 0 1 1
2075 0 2 0.5897 12.097126056071996 13.953093263686457 0.6450974038875039 0 0 1
2024 0 2 0.5897 12.280871011065168 12.277938096605405 3.5712276959735045 0 2 -1
1825 0 1 -1.1794 5.2830810865518005 19.9689957131262 1.1676076376015732 0 0 0
1827 0 2 0.5897 4.871827691194753 19.831062474215752 0.2994364246358753 0 0 0
104 0 2 0.5897 1.1845563311324727 19.412258249577654 1.7262196372227443 0 0 1
1826 0 2 0.5897 4.954467209346956 19.24391359912468 1.7365403375379271 0 0 0
134 0 2 0.5897 1.9991582820627576 16.554244038397883 0.4115984490364062 0 0 0
629 0 2 0.5897 1.3033314211624352 17.50118940503892 2.6053530963285416 0 0 0
628 0 1 -1.1794 1.582967451175554 18.30132772297995 3.124218174081149 0 0 0
1386 0 2 0.5897 4.3485994141753315 17.078227835287645 2.4163099715175442 0 0 0
1384 0 1 -1.1794 4.349370018107282 18.055196515463084 2.7798396640751832 0 0 0
630 0 2 0.5897 2.527447077111317 18.25055622907282 3.0309085855924303 0 0 0
1385 0 2 0.5897 4.803389292899672 18.05292089727513 3.6095486111430866 0 0 0
133 0 1 -1.1794 1.2295620576753956 16.356149581129255 0.9842122198241343 0 0 0
525 0 2 0.5897 6.286141891741977 16.71246050721299 0.49950457448345564 0 1 0
1100 0 2 0.5897 6.9797978613626075 19.813587728632086 1.3461937729676092 0 0 1
1099 0 1 -1.1794 7.9304475318144725 20.016328485904396 1.4782675415696716 0 0 1
1101 0 2 0.5897 8.13247732910624 19.43472079056716 2.185131556094559 0 0 1
1074 0 2 0.5897 11.13567400736492 19.25357314451496 2.36833946994659 0 0 0
1303 0 1 -1.1794 7.90243216980102 16.413032990720662 1.5327591581276014 0 0 0
42 0 2 0.5897 11.169735407437475 16.595342836382162 2.5113546726399183 0 1 1
1304 0 2 0.5897 8.525959683321659 16.74389891848681 0.8518400723931079 0 0 0
1072 0 1 -1.1794 11.34310893417401 18.585779859152115 3.120609659254498 0 0 0
818 0 2 0.5897 8.33064510628396 17.626088585125096 3.1756122007253103 0 1 -1
817 0 1 -1.1794 8.571660832533297 18.43840408149218 3.6154228500807597 0 1 -1
1073 0 2 0.5897 10.482598953562588 18.533253806705915 3.4498508212250156 0 0 0
511 0 1 -1.1794 2.693164222084067 1.8969591706279003 4.287257806804104 0 0 -1
513 0 2 0.5897 2.6604184206040298 2.5233513681219457 5.069816426751292 0 0 -1
342 0 2 0.5897 3.224835619093158 0.24183533889193704 5.21816855340316 0 -1 1
2097 0 2 0.5897 5.924659903585613 2.4307916371328258 5.374040086297754 0 0 1
2095 0 1 -1.1794 6.194485049383861 1.7527842520444266 4.726171631006566 0 0 1
568 0 1 -1.1794 4.9337958477600665 0.047739828747534296 8.225473956037114 0 0 1
1626 0 2 0.5897 4.136467556952871 3.598206069621581 6.595949285024813 0 0 0
1625 0 2 0.5897 2.56721783329841 3.6580481219573384 7.240203432718565 0 0 0
1624 0 1 -1.1794 3.1421371297267835 3.6070590773078823 6.423292544827322 0 0 0
1860 0 2 0.5897 1.7061752299521515 0.3982580864353971 7.402285177066368 0 0 0
341 0 2 0.5897 3.7830714855930836 0.19906193822537166 6.651476982796486 0 -1 1
1858 0 1 -1.1794 1.7254111936252299 0.48593560354865634 8.323947922126118 0 0 0
297 0 2 0.5897 6.372538562245934 3.11795341058265 7.673042606102855 0 1 0
295 0 1 -1.1794 6.040170146332767 3.2974226222474514 6.796555046037378 0 1 0
569 0 2 0.5897 5.854080697772533 0.07751895150571185 8.105947774879251 0 0 1
1262 0 2 0.5897 7.75264727545104 1.8435831042934903 4.516944844352187 0 0 0
1261 0 1 -1.1794 8.762620617362053 1.9176903730699737 4.613926333514019 0 -1 0
17 0 2 0.5897 9.601958107208157 0.6676230202947955 5.505281391405535 0 0 0
27 0 2 0.5897 9.023976363877946 3.1658242514515775 6.06353223879953 0 1 1
26 0 2 0.5897 8.766054034424936 3.442579974225761 7.6721633833932765 0 1 1
785 0 2 0.5897 11.065208472011589 3.4609775846990205 6.91027246508263 0 -1 1
2083 0 1 -1.1794 11.939362005372768 0.7489764242628314 7.737214363621983 0 0 -1
605 0 2 0.5897 8.455958679535101 0.03821649590157779 7.4242256596421985 0 0 0
25 0 1 -1.1794 9.419556650151117 3.553482832579694 6.867856119610747 0 1 1
18 0 2 0.5897 10.58504627396196 0.44179647376693926 6.82186479943087 0 0 0
784 0 1 -1.1794 12.074542596158246 3.4544788811627405 6.695338671539339 0 -1 1
16 0 1 -1.1794 9.888039934791268 0.05807584344179102 6.244687073729674 0 0 0
786 0 2 0.5897 12.25859252312707 2.7522543536532407 5.998080858783779 0 -1 1
604 0 1 -1.1794 7.7482765655531916 0.2574150686326694 8.069813019507828 0 0 0
2085 0 2 0.5897 11.954696084699279 1.5361838370766157 8.320863592041563 0 0 -1
276 0 2 0.5897 5.414038831293289 5.171516762469658 4.273321396183937 0 0 1
1395 0 2 0.5897 2.969120984540347 5.4638457911879845 6.240516775273587 0 1 2
1393 0 1 -1.1794 3.153225663889993 6.379437384224371 6.1377819371060784 0 1 2
1394 0 2 0.5897 2.680879114055293 6.824528080326427 6.908249544961931 0 1 2
527 0 2 0.5897 4.882129403010146 6.609742647444385 7.019862494355094 0 1 0
526 0 1 -1.1794 5.273537193710014 6.664541004480035 7.9140024476807955 0 1 0
528 0 2 0.5897 6.2666172845527015 6.717845879688364 7.877411137943346 0 1 0
274 0 1 -1.1794 5.975457583724887 5.406582567439435 5.028518111214067 0 0 1
275 0 2 0.5897 5.851011107486306 6.3991810953816 5.080265474851941 0 0 1
296 0 2 0.5897 6.4141440495650786 4.206434720690882 6.632954147658569 0 1 0
30 0 2 0.5897 2.8892961008310594 7.62367997517655 4.90548294662176 0 0 1
1861 0 1 -1.1794 6.3105672997890645 7.973847196228496 4.709512020383605 0 0 -1
334 0 1 -1.1794 1.637158431061348 7.250699070794726 8.235929601542148 0 0 1
1151 0 2 0.5897 9.677390720521508 5.182054850730065 6.348603326401061 0 1 1
1150 0 1 -1.1794 9.698046565539236 6.199451728184853 6.410417319027974 0 1 1
1152 0 2 0.5897 10.551354764880717 6.500866716369989 6.732028684811352 0 1 1
1097 0 2 0.5897 8.338009453032612 6.874422335443258 7.730823465933323 0 0 2
76 0 1 -1.1794 11.602374521128743 7.078464680699875 8.01944966132752 0 -1 0
1875 0 2 0.5897 9.475265241823964 7.385735641545012 5.077110148156223 0 0 0
29 0 2 0.5897 1.7799294248527144 8.48432175788248 4.19152760233281 0 0 1
28 0 1 -1.1794 2.7301901749289232 8.353780619516202 4.244749803317542 0 0 1
1347 0 2 0.5897 6.091661054031045 9.294705347662903 6.3920656743943605 0 -1 0
2018 0 2 0.5897 2.850613364903196 9.762743873473275 5.14566411396788 1 -1 0
1345 0 1 -1.1794 5.821243184608321 10.115505919826532 6.7837753977166795 0 -1 0
2017 0 1 -1.1794 2.8927993459808063 10.276318136678634 5.95105700141625 0 -1 0
1346 0 2 0.5897 4.801568752845116 10.056292643037297 6.545538689708797 0 -1 0
120 0 2 0.5897 2.1411627299535283 10.19079371257798 7.541745236446352 0 -1 0
2019 0 2 0.5897 3.1624929642924524 11.162485264047577 5.717175158493271 0 -1 0
1565 0 2 0.5897 6.35652281688095 11.53396612466613 5.631247561692035 0 -1 1
1862 0 2 0.5897 7.245816737841376 8.021663071503593 4.426026437434283 0 0 -1
1873 0 1 -1.1794 9.12499689823033 8.182709522785919 4.692800604418712 0 0 0
1142 0 2 0.5897 9.196106612630384 9.579581146551467 5.970999932308907 0 1 0
1143 0 2 0.5897 8.963762506420819 10.255864622940189 7.443079421266238 0 1 0
1141 0 1 -1.1794 9.47291121464414 10.277078180093655 6.618584221281305 0 1 0
1298 0 2 0.5897 11.219675330673912 10.252245170652918 6.840806678279811 0 -1 0
1566 0 2 0.5897 7.429587111252593 11.82111446281636 4.672625664046841 0 -1 1
1596 0 2 0.5897 10.083028904599185 12.026800826866838 6.00682036721457 0 0 1
1297 0 1 -1.1794 12.193715468692286 10.140876495829051 6.910796582129395 0 -1 0
246 0 2 0.5897 0.9194790634801739 12.532880793632708 4.297624951860458 1 0 0
1042 0 1 -1.1794 1.2879530502745067 13.852306305494665 8.085985626103165 0 0 0
1291 0 1 -1.1794 2.489444805347912 15.612662145197712 4.187104398581581 0 -2 0
1600 0 1 -1.1794 3.1051954469627243 13.463412171330772 6.061773805092796 0 -1 0
1601 0 2 0.5897 3.9816277068823682 13.565705213726783 6.494010116154376 0 -1 0
1602 0 2 0.5897 2.4656996170824828 13.621052081113326 6.784190743222111 0 -1 0
1293 0 2 0.5897 2.478890788930979 14.797818737273031 4.724880471167766 0 -2 0
1078 0 1 -1.1794 5.533625202090736 13.381582890132982 7.646678282283199 0 -1 -1
1080 0 2 0.5897 6.488901012337689 13.452402223662872 7.5306258927588985 0 -1 -1
2240 0 2 0.5897 6.463985946611959 13.914759649344171 4.763631614647544 1 0 1
1564 0 1 -1.1794 6.460698898118508 12.06758053257906 4.856843283768801 0 -1 1
2239 0 1 -1.1794 6.646307832620546 14.841171884719401 4.708295839882072 1 0 1
1594 0 1 -1.1794 10.51250539475241 12.93909574541688 6.107156101556117 0 0 1
1595 0 2 0.5897 9.922455407360811 13.547794525505237 5.653644900200638 0 0 1
252 0 2 0.5897 11.22866814002495 13.58280323725353 7.6333603064391875 1 -1 -1
360 0 2 0.5897 9.048824190643623 13.825563975990166 7.547664039369413 0 1 0
292 0 1 -1.1794 9.464687885896348 15.238364865361154 4.973104526099543 0 -1 -1
294 0 2 0.5897 8.486939708868778 15.242767430053298 4.97193591036627 0 -1 -2
358 0 1 -1.1794 8.318534138817121 13.94753236897281 8.204099984609384 0 1 0
293 0 2 0.5897 9.742023511820726 15.93344596321506 5.61100271209791 0 -1 -1
302 0 2 0.5897 12.240225539479662 14.263244582253737 5.143558415929786 0 -1 1
1064 0 2 0.5897 6.134203987532025 19.79166263269299 4.916926067381383 0 -1 -1
340 0 1 -1.1794 3.063626239074552 19.897898505129948 6.0689905366595225 0 -2 1
1340 0 2 0.5897 6.210573745234304 16.18603188334728 6.092013192932656 0 -1 0
1277 0 2 0.5897 2.9834848695153973 16.50426449378661 5.525548495331317 0 -1 -1
1339 0 1 -1.1794 6.058511323561351 16.887520594987812 6.779345106954837 0 -1 0
1341 0 2 0.5897 5.04968842963124 16.71006186357706 6.731014201931605 0 -1 0
1276 0 1 -1.1794 3.218124448714819 17.058924749018534 6.326965244253495 0 -1 -1
1278 0 2 0.5897 3.0402865641874155 17.971381424496496 6.162302977254978 0 -1 -1
546 0 2 0.5897 1.9622275479376212 16.85401608253462 8.003955734533374 0 -1 0
1065 0 2 0.5897 6.029589978942685 18.375923107819066 5.691840578379928 0 -1 -1
1063 0 1 -1.1794 6.244517830722042 18.831671127939657 4.900156162005253 0 -1 -1
819 0 2 0.5897 7.916488148972562 18.573459930220668 4.303466504769544 0 1 -1
861 0 2 0.5897 9.694381963777332 17.061376656624645 7.451115911924968 0 1 1
859 0 1 -1.1794 10.327065368521831 17.27709570148007 6.713499011602445 0 1 1
860 0 2 0.5897 10.282883967113252 18.231952946534722 6.500995170866664 0 1 1
1371 0 2 0.5897 12.104312457622296 17.131644010408987 6.856903231820439 0 0 0
1338 0 2 0.5897 7.502473780732527 16.797458500187165 7.951824047670548 0 -1 -1
1336 0 1 -1.1794 8.36310502619029 16.637686980539193 8.327519538259253 0 -1 -1
781 0 1 -1.1794 1.367888412923325 3.178606751090126 8.379743988374733 0 0 0
1859 0 2 0.5897 1.7212559090473043 1.4325383423094373 8.57837927750551 0 0 0
570 0 2 0.5897 4.696065784624757 0.9503224673085096 8.595723317229163 0 0 1
1087 0 1 -1.1794 4.671880723002397 2.3245303715346424 9.454835627944176 0 -1 -1
123 0 2 0.5897 3.239222153303436 1.922919244684594 10.495612899659749 0 0 -1
121 0 1 -1.1794 2.801606299634421 1.815724909167919 11.341912338946115 0 0 -1
1088 0 2 0.5897 5.1451621723700915 2.195807364517585 10.272528334463987 0 -1 -1
122 0 2 0.5897 3.1547089565982254 0.9887952123892919 11.726760005663737 0 0 -1
1089 0 2 0.5897 4.63914017943465 3.311377208515649 9.2728991291142 0 -1 -1
1057 0 1 -1.1794 6.397712609915452 1.4091466361594778 11.535982932482664 0 0 -1
1058 0 2 0.5897 6.147178385548686 0.45676298977729174 11.698566121954066 0 0 -1
782 0 2 0.5897 1.333314291345833 3.8969059044313568 9.037003672766403 0 0 0
1059 0 2 0.5897 6.239181373936554 1.9247501195700047 12.407025348827462 0 0 -1
73 0 1 -1.1794 7.7085860800970645 3.041154999596181 8.90568957189187 0 0 -2
74 0 2 0.5897 7.984849383157388 2.141148370203237 9.000502096897797 0 0 -2
168 0 2 0.5897 10.409198827920697 2.252076264111013 10.277844422946979 0 0 0
126 0 2 0.5897 8.224635721329042 1.8953716646351433 11.36783443431428 0 0 0
124 0 1 -1.1794 9.235922273560835 1.914392980055519 11.361089424901456 0 0 0
166 0 1 -1.1794 11.312282411890742 2.4973625851701664 9.928342255321718 0 0 0
167 0 2 0.5897 11.889991023257492 2.099180937260338 10.580966421877271 0 0 0
75 0 2 0.5897 7.895305701116827 3.5387789269787673 9.696709577174259 0 0 -2
125 0 2 0.5897 9.450080407207317 2.592685328264789 12.039093291187903 0 0 0
1094 0 2 0.5897 9.552859572747414 0.23134287507310558 12.48928763320687 0 1 1
335 0 2 0.5897 1.767274836811694 6.5742118961137015 8.936455086598054 0 0 1
304 0 1 -1.1794 1.4517489004178583 5.330364704044067 10.139277741420198 0 1 0
306 0 2 0.5897 2.349065589081726 5.259108275562767 10.43337059435412 0 1 0
877 0 1 -1.1794 4.080085252248939 5.071844796530325 9.806624232872995 0 0 0
879 0 2 0.5897 4.670273799690737 5.134911771648495 10.566503415922853 0 0 0
878 0 2 0.5897 4.517392453815413 5.626652179895077 9.130103768667752 0 0 0
375 0 2 0.5897 5.51153609210283 6.209303090169791 12.380432199095331 0 0 0
373 0 1 -1.1794 5.498328442767339 5.341741653907505 12.023710992505976 0 0 0
504 0 2 0.5897 2.586319202897031 7.066324183250717 12.506126803729718 1 0 0
1096 0 1 -1.1794 7.8355816320992915 7.101318531076253 8.600336162817216 0 0 2
1322 0 2 0.5897 10.974043798803674 4.271202247943505 10.226262752234302 0 0 0
78 0 2 0.5897 11.3311705067594 6.432987332617923 8.655647500684378 0 -1 0
1321 0 1 -1.1794 10.66661827312084 5.238216609922977 10.250376960351522 0 0 0
1323 0 2 0.5897 9.725197108719177 5.163169745534784 10.495811369735488 0 -1 0
1110 0 2 0.5897 7.173014219182729 5.250695210789235 11.183132800307055 0 -1 1
1108 0 1 -1.1794 7.960599764569723 5.236010564441204 10.598762530223588 0 -1 1
1109 0 2 0.5897 7.961380348954786 6.061608165030871 10.01516060770443 0 -1 1
1920 0 2 0.5897 11.739031976184767 5.593952384696709 11.61533549584925 0 0 1
893 0 2 0.5897 9.04256544067924 7.6806284846403425 12.233938043609268 0 0 0
336 0 2 0.5897 1.8145791242867264 8.111297874638314 8.557076777026408 0 0 1
119 0 2 0.5897 1.8900647433634865 10.713741529709377 8.982030478474075 0 -1 0
230 0 2 0.5897 4.520691808796717 8.670617324081617 8.82329049854421 1 0 -1
4 0 1 -1.1794 2.193126778318725 8.595824928773329 11.256393913823807 0 0 1
116 0 2 0.5897 5.265261822279084 8.492376750024194 11.188458166677972 0 0 0
5 0 2 0.5897 2.8398220619072743 9.015184845245395 10.551514234000452 0 0 1
229 0 1 -1.1794 4.513479894223805 9.076348252571906 9.728063399681309 1 0 -1
231 0 2 0.5897 4.6789329832739375 10.011930618656267 9.615657987856206 1 0 -1
115 0 1 -1.1794 5.751880558419279 8.15112077154536 12.00257482264801 0 0 0
6 0 2 0.5897 1.245844250458892 8.723502493133905 11.044342025708369 0 0 1
1348 0 1 -1.1794 4.839630512424709 11.833358214868491 9.783570862109164 0 -1 -2
1349 0 2 0.5897 3.8945927058549294 11.97778642215818 10.00480582623444 0 -1 -2
1350 0 2 0.5897 5.277383857352672 11.979505782388442 10.61065107407283 0 -1 -2
118 0 1 -1.1794 1.5922930128474984 10.1034843801421 8.346647009041794 0 -1 0
79 0 1 -1.1794 6.239881962218599 11.835793983724823 12.161232763067977 0 0 -1
1035 0 2 0.5897 6.790936651128992 10.2257541837384 8.717808653744848 0 -2 0
1098 0 2 0.5897 7.773537234347841 8.106188785003171 8.707908440180839 0 0 2
1033 0 1 -1.1794 7.601521069084386 9.955109181715475 9.151484691494028 0 -2 0
1047 0 2 0.5897 10.88419422413278 8.5393020879436 9.32120579327376 0 0 1
894 0 2 0.5897 9.251119900889021 8.736198915976617 11.092857119181984 0 1 0
1034 0 2 0.5897 7.927555704611433 10.761946372026355 9.602805340566817 0 -2 0
1045 0 1 -1.1794 10.817733494210584 9.051900589016066 10.169245759242912 0 0 1
892 0 1 -1.1794 8.623345417538069 8.433014262240679 11.781415981947827 0 0 0
117 0 2 0.5897 6.627904389768331 8.06135745645652 11.624401383983223 0 0 0
1631 0 2 0.5897 11.140485334937686 10.94221703501394 9.952606284118103 0 0 0
1630 0 1 -1.1794 11.255255144576841 11.841980622169824 10.407197403427322 0 0 1
1046 0 2 0.5897 11.368058008749975 8.668755339371206 10.812076909561904 0 0 1
81 0 2 0.5897 7.093240649459806 11.579231844514315 11.804371371363967 0 0 -1
1043 0 2 0.5897 1.3882212891357508 14.803949244064636 8.384121792150614 0 0 0
584 0 2 0.5897 1.3765986733726407 12.22957981643382 10.75636959953248 0 0 -1
583 0 1 -1.1794 2.19757247762739 12.295136139971289 10.174957659920631 0 0 -1
1079 0 2 0.5897 5.375675410795188 12.808325163112531 8.393700157426514 0 -1 -1
585 0 2 0.5897 1.9692005408879878 12.991378677576355 9.494548639028839 0 0 -1
1118 0 2 0.5897 6.321068263112364 13.6996728130065 12.015666580803268 0 -1 0
1119 0 2 0.5897 5.741676600800012 14.643844564319252 10.867915960585753 0 -1 0
1027 0 1 -1.1794 2.6957905869289105 15.311991142785713 11.271538165693196 0 -1 0
86 0 2 0.5897 5.283746589359115 14.81765753605754 8.546644714748673 0 -2 1
1028 0 2 0.5897 3.3379668706586627 14.99740347531981 10.575564273056992 0 -1 0
85 0 1 -1.1794 4.9970152164027954 15.144425998769787 9.43456607854619 0 -2 1
845 0 2 0.5897 3.0269378166018757 13.513558802570145 12.399435958097557 0 1 -1
1117 0 1 -1.1794 6.193789074836602 14.613125451973888 11.806860279087761 0 -1 0
1029 0 2 0.5897 3.16758198831369 15.860816457604118 11.92720486742402 1 -1 0
1001 0 2 0.5897 0.9106015610883983 14.955444608968858 11.751309472616686 1 0 0
250 0 1 -1.1794 11.558665455650702 13.8259533667469 8.483367119601295 1 -1 -1
2038 0 1 -1.1794 8.612001769117768 12.204630860797993 10.311634146044614 0 0 0
359 0 2 0.5897 8.379398223946307 14.915378124771149 8.351009702044848 0 1 0
2039 0 2 0.5897 9.52570422563533 12.19952492364869 10.53922746245048 0 0 0
1632 0 2 0.5897 11.288193571506378 12.509866592583535 9.664454059260246 0 0 0
251 0 2 0.5897 11.397996080984557 14.74329293343834 8.661754480717947 1 -1 -1
2040 0 2 0.5897 8.471692578780093 12.71018497172846 9.51791333231825 0 0 0
833 0 2 0.5897 8.327989141326908 15.28113938360267 11.226651761935079 0 0 1
832 0 1 -1.1794 9.231486382530194 15.240846815612556 11.48591635225062 0 0 1
834 0 2 0.5897 9.865628261095797 15.60478093560572 10.846286505259487 0 0 1
1628 0 2 0.5897 9.46725213680541 13.552920967015577 12.499072073587831 0 0 2
1130 0 2 0.5897 1.1567552032693795 19.045836248751645 10.858375600095021 0 1 -1
544 0 1 -1.1794 1.1738448349231154 16.703044833597062 8.519068568093404 0 -1 0
1131 0 2 0.5897 1.8691549010120083 19.263086795452992 9.529873925675782 0 1 -1
1812 0 2 0.5897 4.579726019215393 18.502975451369487 9.090688417200717 0 0 -1
1129 0 1 -1.1794 1.8996934878518006 18.689852049486845 10.309117156008151 0 1 -1
87 0 2 0.5897 4.965061905214206 16.115383860202762 9.47975511641011 0 -2 1
1810 0 1 -1.1794 4.5663622871515335 17.888258154139326 9.872720528434138 0 0 -1
1811 0 2 0.5897 3.669518634527681 17.994395589659646 10.191511059735978 0 0 -1
1820 0 2 0.5897 5.706010488882181 18.502377214840987 11.158880943301858 0 0 1
1819 0 1 -1.1794 6.3162255941681655 18.80128052437395 11.845970034696581 0 0 1
545 0 2 0.5897 1.4386080947204025 17.07179185001992 9.37202535933158 0 0 0
1415 0 2 0.5897 11.82537134933719 16.284952622893083 10.433250121053836 0 -1 1
1414 0 1 -1.1794 11.220962218289873 16.358266235867042 9.664270208285423 0 -1 1
606 0 2 0.5897 8.034847599966238 19.80265461285065 8.85160405580875 0 -1 0
2133 0 2 0.5897 11.291507400220015 19.794128387319603 9.100727745826081 0 1 0
1416 0 2 0.5897 11.168233128850853 17.33640390379788 9.482299933885548 0 -1 1
1337 0 2 0.5897 8.559011545443985 17.141277850896525 9.127933155618543 0 -1 -1
850 0 1 -1.1794 8.675580428837549 18.76413051709707 10.379949650462427 0 -2 0
852 0 2 0.5897 8.023344371082576 18.907389837809866 11.082277870640965 0 -1 0
2131 0 1 -1.1794 11.13509054385526 19.065203998967274 9.81088657821023 0 1 0
851 0 2 0.5897 9.58617804490107 19.009932303385778 10.54387783304514 0 -2 0
2132 0 2 0.5897 11.906791892579578 19.107679947785304 10.37849594336298 0 1 0
1232 0 2 0.5897 2.7181285169442164 3.0472938687084405 12.582343747663577 1 0 0
1989 0 2 0.5897 5.215629628013351 0.7387749818345384 15.862894466893376 1 0 1
32 0 2 0.5897 5.866329052902913 2.9462924391231886 14.355060853507853 0 0 0
1987 0 1 -1.1794 5.427028748124949 0.04883966626585315 15.127616934566229 1 0 1
31 0 1 -1.1794 5.491066817898577 3.0226309629527224 13.442937381022704 0 0 0
1233 0 2 0.5897 2.306351036231597 3.235398433520577 14.039151213599354 1 0 0
33 0 2 0.5897 4.560372231050967 3.260474564753491 13.580719912114976 0 0 1
2104 0 1 -1.1794 1.089128506919884 0.452062483856164 15.137364955077288 0 0 0
1231 0 1 -1.1794 2.846447370025949 3.616414403852972 13.344483127603551 1 0 0
510 0 2 0.5897 1.611806942488661 3.616430354066861 16.48234657263762 0 -1 -1
509 0 2 0.5897 1.4773586059093997 2.159854454254866 15.857297422818592 0 -1 -1
508 0 1 -1.1794 1.3681412645636264 3.103253908858758 15.701293799469884 0 -1 -1
1598 0 2 0.5897 7.6209017863598945 1.9513456606551434 15.485143257960406 0 0 1
931 0 1 -1.1794 7.9869375551190585 0.219951732343134 15.212706388686671 0 0 1
932 0 2 0.5897 8.488274134001585 0.1478730125497825 14.387215064001627 0 0 1
1839 0 2 0.5897 11.462914479476524 1.8498354473929126 15.899666086955044 0 1 -3
1597 0 1 -1.1794 7.548840138184312 2.8956099710382333 15.320046554931853 0 0 1
1056 0 2 0.5897 8.762741929533256 3.333247737231892 14.21701667193022 0 0 1
1599 0 2 0.5897 7.510757659835835 3.372894277972522 16.1520547742946 0 0 1
1542 0 2 0.5897 11.210156291406538 0.14400449202544086 14.290175280649361 0 1 0
1540 0 1 -1.1794 11.873088676583171 0.31556771353845375 14.985343487748175 0 1 0
1650 0 2 0.5897 11.344370768270716 3.076677684304598 13.8296861989776 0 0 0
1054 0 1 -1.1794 9.413748084073603 3.527552304638023 13.49479489393217 0 0 1
1648 0 1 -1.1794 12.273632357740869 3.3028663216702565 13.559831537518242 0 0 0
1837 0 1 -1.1794 11.195560393246197 2.5095706890476754 16.597495646952932 0 1 -3
1777 0 1 -1.1794 1.0488972771624765 7.171911095258816 15.507131138499014 0 0 0
374 0 2 0.5897 5.479677079182353 4.755713420854054 12.833984721360897 0 0 0
503 0 2 0.5897 2.5887400556537195 5.575654087357076 13.060208893389525 1 0 0
502 0 1 -1.1794 2.6931830623040236 6.515642458209838 13.304631943259038 1 0 0
797 0 2 0.5897 4.867786308148657 5.979580478486324 15.308711085953304 0 2 1
796 0 1 -1.1794 5.064118245817992 6.727696436621221 14.712624502177624 0 2 1
798 0 2 0.5897 4.383863742587269 6.709194197615938 14.071010065809768 0 2 1
1779 0 2 0.5897 1.746442441209298 6.959960597616825 14.84760920155092 0 0 0
505 0 1 -1.1794 4.36200240602501 4.614300556316152 16.578162050363453 0 0 0
1649 0 2 0.5897 12.163070161522214 4.162132584737091 13.125489890226111 0 1 0
1574 0 2 0.5897 11.08746822184309 4.3084233276246175 16.342897291593832 0 0 -1
1572 0 2 0.5897 6.637358271150961 6.951012976031776 15.16359511918566 0 0 0
1036 0 1 -1.1794 11.517986350204403 7.202607174377588 15.019239416206974 0 1 0
1055 0 2 0.5897 9.231984144910493 4.53771764766271 13.444070452204532 0 0 1
1900 0 1 -1.1794 9.37533505423857 6.237384433782648 13.522921797578034 0 0 1