LAMMPS data file via write_data, version 23 Jun 2022, timestep = 19128000

2268 atoms
2 atom types

0.8789024294883809 46.571796570462794 xlo xhi
0 20.047001 ylo yhi
0 20.857 zlo zhi

Masses

1 1.008
2 15.999

Atoms # full

1076 0 2 0.5897 2.4392279703382234 3.774069082186764 3.0384697871365005 0 0 1
94 0 1 -1.1794 1.3367577154496424 1.488421389274739 0.5698056287773885 0 0 0
96 0 2 0.5897 2.258032598852978 1.3199813314211564 0.7863547080455469 0 0 0
516 0 2 0.5897 4.60989280961048 1.4231986425266154 1.6771388872872508 0 1 0
514 0 1 -1.1794 4.081664431155481 1.0778086128814215 0.9029097100557096 0 1 0
24 0 2 0.5897 6.21922062025176 3.414087737926983 2.5996291077180103 0 1 2
54 0 2 0.5897 2.8070833380907345 1.0338495582051044 3.561613099007196 0 0 0
1075 0 1 -1.1794 2.5562959597081916 2.9175671081426486 3.5087237222525247 0 0 1
515 0 2 0.5897 4.382024683408231 0.12103800756530755 0.8681859933436163 0 0 0
1025 0 2 0.5897 6.258766052191173 1.094473978139619 3.4562292906217857 0 0 1
1024 0 1 -1.1794 6.445520315593069 1.6395560558596693 2.6463443544520593 0 0 1
52 0 1 -1.1794 2.885137321280236 0.0931526834528504 3.739636554647665 0 0 0
1357 0 1 -1.1794 8.440624188558852 1.1829384861025198 0.9092359012847155 0 0 1
1026 0 2 0.5897 7.262630258547871 1.2767073913084745 2.22619133062896 0 0 1
1359 0 2 0.5897 9.403945569621058 1.2077923627800757 1.0048939625473454 0 0 1
1887 0 2 0.5897 9.55177921878459 3.5114136570125756 2.829965241049318 0 -1 -1
1885 0 1 -1.1794 9.490869079804664 2.9627862329316463 3.6324520567220473 0 -1 -1
1334 0 2 0.5897 9.653460296264944 1.1112747702340369 3.9649016096062923 0 -1 2
910 0 1 -1.1794 11.10519944857861 0.8774006095510521 0.6629822493444985 0 2 0
1333 0 1 -1.1794 9.776272831591672 0.1826261132789044 4.121917631998165 0 -1 2
911 0 2 0.5897 11.63794618719324 1.1837989517036187 1.4206884983147456 0 2 0
1358 0 2 0.5897 8.281885259442866 1.9291244697525955 0.31608893544699285 0 0 1
22 0 1 -1.1794 6.044857989187785 4.37466093107523 2.29747807221053 0 1 2
1677 0 2 0.5897 4.988857157716499 4.990826999720743 1.111974659723591 0 0 2
282 0 2 0.5897 2.7987318769801774 4.937008513796281 0.8517045421899189 0 0 0
280 0 1 -1.1794 2.0848014201390033 4.78035747230533 1.4885578356330467 0 0 -1
281 0 2 0.5897 2.23447613770481 5.498747176386787 2.1903293754015194 0 0 -1
23 0 2 0.5897 5.809294282683815 4.960133730455458 3.0014111748994714 0 1 2
1532 0 2 0.5897 2.848400489062909 7.489102163885887 3.493659144298941 0 0 1
326 0 2 0.5897 6.179253966874898 7.743596659618871 3.13760695034031 0 -1 1
1531 0 1 -1.1794 2.826894797451654 6.535461801906811 3.5326006357603728 0 0 1
1774 0 1 -1.1794 5.487561011454998 6.17283994509639 4.079695682248885 0 2 0
2056 0 1 -1.1794 1.3436665550014908 8.011969116472583 0.4745791446645757 0 0 1
1776 0 2 0.5897 4.520589350114909 6.171056887323032 4.118625237317157 0 2 0
1676 0 2 0.5897 4.539062176637409 6.214718891733085 0.15783390044279672 0 0 2
1675 0 1 -1.1794 4.398745615533038 5.286095012968669 0.3645082632509389 0 0 2
1268 0 2 0.5897 7.7686072299271824 4.844340765314197 1.5346164275752117 0 1 1
1838 0 2 0.5897 10.0989394266433 5.0862875970353985 0.3544938296353287 0 1 -2
1267 0 1 -1.1794 8.776133192796152 4.938494562376196 1.641700877984476 0 1 1
1269 0 2 0.5897 8.95455916655625 5.579102469451513 2.3767642042672885 0 1 1
1619 0 2 0.5897 9.181822289878147 7.721363551050471 3.3919184270570675 0 1 0
1618 0 1 -1.1794 9.074230809206606 6.80605776754514 3.649980348285797 0 1 0
1837 0 1 -1.1794 11.056370861645531 5.127582403282468 0.15736281361814983 0 1 -2
2060 0 2 0.5897 12.223364000345853 5.007483263218215 3.230417136499107 0 1 -1
2061 0 2 0.5897 12.136574287270053 4.588720829626192 1.778372820504861 0 1 -1
1818 0 2 0.5897 12.084413039464016 7.600293350475447 3.038931524864729 0 1 1
505 0 1 -1.1794 4.322694470777127 8.362776857611955 0.6970358498929902 0 0 1
506 0 2 0.5897 4.974212394048247 8.408469622993687 1.421618425873311 0 0 1
507 0 2 0.5897 3.420550896668523 8.38632918871523 1.0054005740397551 0 0 1
325 0 1 -1.1794 6.338098814518949 8.315601042588959 2.44097291043982 0 -1 1
1556 0 2 0.5897 3.2927298165743633 9.966563059831191 2.67985372985011 0 0 1
615 0 2 0.5897 3.0230765497148187 11.730695204780458 1.1306554310675703 0 1 0
613 0 1 -1.1794 2.491739919348708 11.36313984224669 1.8344415920734474 0 1 0
324 0 2 0.5897 5.567126317483719 11.43864987150792 1.6610025564481634 0 1 0
1555 0 1 -1.1794 3.3759711905805587 9.391009336084927 3.457733186945218 0 0 1
323 0 2 0.5897 6.137987335603447 10.153300436846575 2.337458498064603 0 1 0
322 0 1 -1.1794 6.201917451877508 11.101805487198337 2.283210403012138 0 1 0
1557 0 2 0.5897 4.134477438667875 9.734473879232025 3.960850195229397 0 0 1
1543 0 1 -1.1794 11.230082895039859 8.173096887560998 0.11336135574476217 0 3 1
8 0 2 0.5897 9.319130287563777 8.081652717763443 0.23166367772443613 0 1 1
327 0 2 0.5897 7.152840088727617 8.035910855104985 2.018354723847488 0 -1 1
7 0 1 -1.1794 8.408925735889625 8.313743438448052 0.5017126714021889 0 1 1
1316 0 2 0.5897 9.50341831184253 10.446893212370812 2.919249782198535 0 -1 -2
1586 0 2 0.5897 8.132302687342051 11.602240925376655 1.6978742054751372 0 0 1
1585 0 1 -1.1794 9.07269661569371 11.791435388520943 1.8485962335959791 0 0 1
1315 0 1 -1.1794 9.503533787174776 9.727317585176118 3.5733836911163026 0 0 -2
2036 0 2 0.5897 11.47918772202738 11.354724873956023 0.7948555208478689 0 0 1
1587 0 2 0.5897 9.578755174278133 11.524236243586039 1.0781177812651452 0 0 1
1817 0 2 0.5897 12.11901075434822 8.045591193211756 1.5146104177281374 0 1 1
614 0 2 0.5897 2.52800448212089 12.086484039670939 2.4884451697324894 0 1 0
597 0 2 0.5897 6.0808299036575715 12.067113182578952 3.7166286326044244 0 1 2
1328 0 2 0.5897 3.894525768987079 14.590634242816325 0.34572838397302413 0 -1 1
772 0 1 -1.1794 1.7971420484225569 14.417599686052583 0.5089928738558839 0 0 1
1327 0 1 -1.1794 4.797923860541606 14.856076984023826 0.3122516789575063 0 -1 1
1581 0 2 0.5897 5.602274328652214 15.229341304132063 1.8467133821390378 0 0 0
1584 0 2 0.5897 3.133129767022967 14.173301208929422 3.318930857159791 0 0 0
596 0 2 0.5897 6.164007668100789 13.585988885476656 3.7321489457874923 0 1 1
1579 0 1 -1.1794 6.312278746112876 15.237325210388335 2.5629379266713515 0 0 0
1582 0 1 -1.1794 3.182661823122863 13.244857589528111 3.4820006812040334 0 0 0
1583 0 2 0.5897 4.139023736348751 13.089085181979094 3.71110376226329 0 0 0
773 0 2 0.5897 1.2839142926528035 14.597021878143067 1.3103073771170066 0 0 1
2050 0 1 -1.1794 4.864184253990706 12.169935346187867 0.2884379975101676 0 0 1
2051 0 2 0.5897 4.95835967923688 13.063933321004825 0.0044510896676399625 0 0 1
2145 0 2 0.5897 8.60907945589177 12.876405179223633 3.3894729123881073 0 1 1
787 0 1 -1.1794 8.266759534894161 14.767628245774384 0.4271358085382475 0 0 1
789 0 2 0.5897 9.190707696305058 14.594449115877094 0.7020247494290934 0 0 1
788 0 2 0.5897 7.748984616423726 14.722801329025673 1.281743023797714 1 0 1
2144 0 2 0.5897 8.634879782766347 14.4525668641904 3.6323845999069966 0 1 1
1539 0 2 0.5897 10.283722350096072 15.446584955781377 2.7409932470318052 0 1 -1
1294 0 1 -1.1794 11.105023414795731 14.780711414368067 0.6027022770072304 0 1 2
2143 0 1 -1.1794 8.930998907686606 13.622203581528293 3.940600464840524 0 1 1
1922 0 2 0.5897 10.713803698468734 12.905745862965736 3.6466538698558217 0 0 1
1923 0 2 0.5897 12.008995199246883 12.076534234684264 3.6921652199802812 0 0 1
1921 0 1 -1.1794 11.552153537473233 12.821195334439334 4.083509401910965 0 0 1
1295 0 2 0.5897 12.041861687899356 14.694191187815631 0.6911959271906535 0 1 2
1296 0 2 0.5897 11.11385387074795 15.563196440668298 0.0534938637141294 0 1 2
97 0 1 -1.1794 2.9446277066061297 16.052984128846347 3.4966351001692417 0 1 0
1580 0 2 0.5897 6.484266864065304 16.149722808174413 2.6162078846407026 0 0 0
98 0 2 0.5897 2.8538297166680655 16.664099058851995 2.750718539527216 0 1 0
1115 0 2 0.5897 1.3325949171074423 17.906404861044013 2.0536041333192214 0 0 1
1019 0 2 0.5897 5.915984761164519 17.877471343029907 1.6566863887595091 0 -1 1
540 0 2 0.5897 3.434487037395754 18.143043726313948 0.6738899421746254 0 -1 1
1114 0 1 -1.1794 2.2835206268261823 18.10103661605132 1.8680757692537209 0 0 1
1116 0 2 0.5897 2.533624109375924 18.923279821872775 2.334077617815127 0 0 1
524 0 2 0.5897 5.7305193414594395 19.117336504659324 3.9094440207816468 0 1 0
538 0 1 -1.1794 4.347807903996863 18.32032922694671 0.41332162889224744 0 -1 1
1018 0 1 -1.1794 6.5357001986242205 17.80109368140207 2.3997446958573727 0 -1 1
53 0 2 0.5897 3.7620088393126623 19.925191928503438 4.0000821543621585 0 -1 0
99 0 2 0.5897 3.759360346945664 16.317733633952177 4.0479499688274965 0 1 0
1537 0 1 -1.1794 9.938804598587987 16.11734771078815 3.3058965136988907 0 1 -1
1538 0 2 0.5897 9.540300984761078 16.87630854442465 2.7008822207729817 0 1 -1
1020 0 2 0.5897 7.456773237596218 18.052230095235902 2.114717423650798 0 -1 1
888 0 2 0.5897 9.722792946500261 18.35623102807677 1.4875236261204359 0 -1 -1
886 0 1 -1.1794 9.094975841072507 18.34497059855299 2.2660465649199235 0 -1 -1
887 0 2 0.5897 9.429706928441263 19.150299951109275 2.7704850495173017 0 -1 -1
1568 0 2 0.5897 11.30063191208623 19.165893415231896 0.5445086867000624 0 1 0
1567 0 1 -1.1794 11.100721494463393 18.224540456090818 0.7037346160248042 0 1 0
1077 0 2 0.5897 1.8475953712970217 2.914051550071957 4.248450871113493 0 0 1
1827 0 2 0.5897 4.104138456873522 3.218803091796871 4.49713007466924 0 1 0
1825 0 1 -1.1794 4.781146382927258 3.2450752826770355 5.186114440320403 0 1 0
1826 0 2 0.5897 4.524825927855937 2.658599999801108 5.891549140457522 0 1 0
1384 0 1 -1.1794 4.8639747889994815 1.228694813674492 7.265026933300997 0 1 0
628 0 1 -1.1794 2.0452598253661995 1.2565062941400673 7.604632664082767 0 1 0
630 0 2 0.5897 3.026249628433714 1.296551051566558 7.644716551425344 0 1 0
629 0 2 0.5897 1.9185453611068506 0.4004308145937374 7.195831873238401 0 1 0
1385 0 2 0.5897 5.524609781444576 1.399760876376391 7.934593857063529 0 1 0
1386 0 2 0.5897 4.859762524879045 0.2364181836099764 7.08034326064265 0 1 0
104 0 2 0.5897 1.2500079428227826 2.5747946458850013 6.433644687456243 0 1 1
103 0 1 -1.1794 0.9456495957353896 3.2931983044295157 5.7860438259642395 0 1 1
1100 0 2 0.5897 6.668985068232918 3.2978498653420063 5.43029951783951 0 1 1
1886 0 2 0.5897 8.826416917179536 3.2730301207644907 4.267397138311593 0 -1 -1
1099 0 1 -1.1794 7.561023472817977 3.6171961104886243 5.73608812096487 0 1 1
1101 0 2 0.5897 7.732451184646072 3.0927789519760895 6.504705492368898 0 1 1
2160 0 2 0.5897 10.897875501658078 3.0097732657825262 4.568728553119989 0 1 1
1072 0 1 -1.1794 11.106103492557612 1.2949546806441927 7.018301362627119 0 1 0
817 0 1 -1.1794 8.490877095013978 1.6001292647985041 7.692729259700001 0 2 -1
1073 0 2 0.5897 10.19584461554135 1.4457497164773052 7.153071024729474 0 1 0
2159 0 2 0.5897 11.663462445828479 2.3003052966733777 5.746634981170248 0 1 1
2158 0 1 -1.1794 11.720807642179674 3.045342021074201 5.143685362955917 0 1 1
1074 0 2 0.5897 11.183743186656349 0.30385141003585764 6.9678264560731655 0 1 0
818 0 2 0.5897 8.114759500709294 0.8350522355188101 7.254173983874833 0 2 -1
1783 0 1 -1.1794 1.2306043973376755 6.092039507802743 5.790777059771662 0 0 1
383 0 2 0.5897 4.5008216688853135 4.699490043781004 6.132272253066507 0 1 0
384 0 2 0.5897 3.5040907373333896 5.132229876819591 7.348988045307777 0 1 0
382 0 1 -1.1794 4.372028321129361 5.3004115209076135 6.912733893747943 0 1 0
1533 0 2 0.5897 2.279537124517252 6.395487555508683 4.343253094599721 1 0 1
371 0 2 0.5897 4.45826345781868 7.240556937365215 7.19926841502753 0 -1 1
1775 0 2 0.5897 5.867346501632872 6.389824896921254 4.908380327169381 0 1 0
1785 0 2 0.5897 1.408407647705566 6.754605530613558 6.54326733375142 0 0 1
1784 0 2 0.5897 1.1838838350065415 5.1444436777056985 6.030948879345251 1 0 1
2096 0 2 0.5897 5.64191189239774 4.85418220220788 7.902489498640587 0 0 1
560 0 2 0.5897 11.547702803379398 4.334002269531043 6.232113920171204 0 2 0
561 0 2 0.5897 11.8839580698223 4.945070317355923 7.6113339628736645 0 2 0
206 0 2 0.5897 10.816116005225123 6.518154879184081 4.3174490156001575 0 -2 -2
2082 0 2 0.5897 7.4434893474134 5.279294194775941 6.005378731455006 0 1 -1
559 0 1 -1.1794 11.23394166478506 4.956815887835395 6.924995454093624 0 2 0
1620 0 2 0.5897 8.557621099323853 6.759086051270288 4.4291239029339335 0 1 0
2080 0 1 -1.1794 7.419065226641692 6.249746972272759 5.983230499342966 0 1 -1
2081 0 2 0.5897 7.542264916740642 6.670350148052166 6.846422207731974 0 1 -1
1325 0 2 0.5897 11.029736328069694 6.8246316835720515 6.715456752163818 0 -2 1
1324 0 1 -1.1794 10.921845812876374 7.75658943362227 7.04321732993858 0 -2 1
205 0 1 -1.1794 11.763992701411949 6.44685087475422 4.45923627424155 0 -2 -2
1640 0 2 0.5897 9.216090262254285 7.9095832553139385 7.861669406559879 0 0 0
1263 0 2 0.5897 9.793263021162815 5.285350812414046 7.565501961062697 0 -1 1
1262 0 2 0.5897 8.301318410515066 5.123825628535055 8.027451801021119 0 0 0
207 0 2 0.5897 12.119268539178771 6.424443667758066 5.350373262725816 0 -2 -2
1592 0 2 0.5897 1.1498115713436394 10.71548740858399 5.907367988238711 0 0 -1
370 0 1 -1.1794 4.332303654012003 8.16090500962934 7.422660123733233 0 -1 1
372 0 2 0.5897 3.393658411464949 8.379188037917093 7.509152765340851 0 -1 1
2065 0 1 -1.1794 1.6923953784984667 8.130340525902689 7.303230592069573 0 1 0
581 0 2 0.5897 4.864037845377669 9.360507454525571 6.16826817773658 0 -1 2
580 0 1 -1.1794 5.108763736380108 9.955032763186605 5.460153364629224 0 -1 2
1593 0 2 0.5897 1.772676815374342 9.71550057173669 4.8746660545188405 0 0 -1
1563 0 2 0.5897 3.9542895653697454 11.757047769648768 7.166729770727286 0 0 0
582 0 2 0.5897 6.128256786395182 9.889492368769075 5.497033782058316 0 -1 2
2067 0 2 0.5897 1.3755612160780433 8.8487810686213 6.626561428242128 0 1 0
29 0 2 0.5897 1.8753158076171075 11.246286315145055 8.054992703302348 0 0 1
28 0 1 -1.1794 2.826492418439912 10.90786744978017 8.142666524836727 0 0 1
1591 0 1 -1.1794 1.0581458443434648 9.804952504185767 5.5397917029332575 0 0 -1
2066 0 2 0.5897 1.0411515779707716 8.241980902658817 8.004405190258753 0 1 0
1639 0 1 -1.1794 8.303115598874868 8.233558646116261 7.8395029114 0 0 0
1317 0 2 0.5897 8.923759573350651 9.979288223702067 4.291409089930328 0 0 -2
1326 0 2 0.5897 11.06842420398679 8.388237514003203 6.320331761085498 0 -2 1
2087 0 2 0.5897 8.189823255154845 9.458981332179597 6.40133429464459 0 1 0
2086 0 1 -1.1794 8.020631347871213 10.124319203107822 5.730195477543374 0 1 0
2088 0 2 0.5897 8.039641791954052 10.924115624547523 6.234567908760667 0 1 0
857 0 2 0.5897 10.953079412710672 9.665048147471675 4.536638865630266 0 0 -1
378 0 2 0.5897 11.4486114311595 10.81630904210206 6.818710757180622 0 1 -1
376 0 1 -1.1794 11.511502935540678 11.712459156699124 7.167911788152285 0 1 -1
1874 0 2 0.5897 9.478598999132307 11.46120501687574 7.994249923453683 0 0 0
856 0 1 -1.1794 11.586660797758704 9.74453582055038 5.348745381681641 0 0 -1
377 0 2 0.5897 12.214548963749458 11.649565653997428 7.88440176607823 0 1 -1
595 0 1 -1.1794 5.81223617254324 12.854139075816915 4.259427038996506 0 1 2
1562 0 2 0.5897 5.077140717389169 12.108217196788795 5.996329255157469 0 0 0
1561 0 1 -1.1794 4.725091909723248 12.349412691207629 6.888785229849861 0 0 0
1576 0 1 -1.1794 1.3680173056920824 12.676833885985548 5.967328470451675 0 2 -1
1577 0 2 0.5897 1.9987425686955065 12.74981548679958 5.238851772842199 0 2 -1
1782 0 2 0.5897 5.093342118803115 15.944648434137449 5.775808745375563 0 -1 -1
1343 0 2 0.5897 1.861302964715245 14.35580500031135 6.975569666785156 0 0 -1
759 0 2 0.5897 4.425690783227624 14.271168893002281 6.904701778717182 0 -1 0
757 0 1 -1.1794 4.561477422958031 15.202103629613715 7.270188801110673 0 -1 0
1342 0 1 -1.1794 1.8282542430448618 15.103544516158335 7.569664250002725 0 0 -1
1344 0 2 0.5897 2.796165399837279 15.328492882417487 7.623075688582494 0 0 -1
758 0 2 0.5897 5.351077032995699 15.24369648608596 7.939367716317886 0 -1 0
624 0 2 0.5897 6.932508982785117 12.878303136209299 6.633924928020118 0 1 1
622 0 1 -1.1794 7.888775140978514 12.75711509625713 6.545041204310771 0 1 1
623 0 2 0.5897 8.124763214578726 12.946097140061894 5.643067227847558 0 1 1
534 0 2 0.5897 8.801852984333534 13.896563814038942 7.559935949411327 0 -1 1
2025 0 2 0.5897 11.532691049612632 13.67602585372232 6.693600280501407 0 2 -1
2023 0 1 -1.1794 11.285629786016743 14.565260730217759 7.015735404025745 0 2 -1
2024 0 2 0.5897 11.3587745627555 15.214364173254838 6.2708450974270535 0 2 -1
532 0 1 -1.1794 8.834818532890807 14.653680848323567 8.118846560216305 0 -1 1
533 0 2 0.5897 9.733677337547809 14.94873404018069 8.01135380094524 0 -1 1
21 0 2 0.5897 1.3900727156259318 16.170537576643895 6.118491174561841 1 -1 0
1780 0 1 -1.1794 5.211787118147269 16.565161620412137 5.044135618221454 0 -1 -1
1781 0 2 0.5897 6.137174130930338 16.507634150349222 4.793913539467176 0 -1 -1
523 0 1 -1.1794 5.417278018576449 19.76983766744939 4.527183846294122 0 1 0
20 0 2 0.5897 1.8023414806233768 16.693940954551376 4.699547333627792 0 -1 0
2073 0 2 0.5897 4.8373715398195944 17.835617582611082 6.1805928699376 0 -2 0
134 0 2 0.5897 1.8913238515433732 19.62584270799886 5.189501927478801 0 0 0
2071 0 1 -1.1794 4.685703425421204 18.417177843591237 6.921562611773797 0 -2 0
2072 0 2 0.5897 3.757432547371592 18.186428104787822 7.225914062580939 0 -1 0
135 0 2 0.5897 1.1600364431004344 18.37104105190363 5.817955639701726 0 0 0
133 0 1 -1.1794 1.2691599660720452 19.358381172249295 5.932996768163923 0 0 0
525 0 2 0.5897 5.985003736371353 19.52655378596347 5.276496124567152 0 1 0
19 0 1 -1.1794 1.2126306773230797 16.84090310135849 5.445687548515223 0 -1 0
2241 0 2 0.5897 5.956740303888811 18.22778512779575 8.166755718435518 1 0 1
1335 0 2 0.5897 10.616293536038848 20.031991362100843 4.507061947812553 0 -2 2
389 0 2 0.5897 8.481550756965323 16.05792325387514 6.501529283936675 0 -1 0
390 0 2 0.5897 8.910996092329984 16.079870185811796 5.178980676130793 0 -1 0
2074 0 1 -1.1794 11.958711636048513 16.800320689980936 5.2630570071758855 0 0 1
2075 0 2 0.5897 11.34980548593082 16.68044745625032 4.487599555740562 0 0 1
388 0 1 -1.1794 8.225836560908308 16.5208355268493 5.689165478023056 0 -1 0
1305 0 2 0.5897 7.952323733976713 18.284200719002236 5.869787354995571 0 0 0
1303 0 1 -1.1794 7.869255200747359 19.22442919916249 5.908297014463444 0 0 0
1304 0 2 0.5897 8.444440675349586 19.58011895903087 5.251921883596999 0 0 0
40 0 1 -1.1794 11.142604874272354 18.62426951453505 7.212225100980557 0 1 1
42 0 2 0.5897 10.365859291067865 18.303263964015922 7.606210374431979 0 1 1
2076 0 2 0.5897 11.752958113834922 17.636457845941734 5.6675006862284825 0 0 1
41 0 2 0.5897 11.825240216431043 18.454828160011797 7.910293736632502 0 1 1
342 0 2 0.5897 2.5223556527718385 3.3549026414669294 9.726936053169503 0 -1 1
340 0 1 -1.1794 2.754467686549873 2.8094820579696553 10.506805757606077 0 -1 1
341 0 2 0.5897 3.6692250516068383 2.9697575003391754 10.73894466664573 0 -1 1
1278 0 2 0.5897 2.7150868377828377 1.0366887808983334 10.242793930860032 0 0 -1
1065 0 2 0.5897 6.193270040348107 1.4091224134179292 10.516819429789509 0 0 -1
1860 0 2 0.5897 1.665597304909323 3.19817978965356 11.895253167184597 0 0 0
568 0 1 -1.1794 5.127918382697674 3.2403602110264775 11.974640773295944 0 0 1
1064 0 2 0.5897 6.198308774011377 2.752663689203215 9.834087106119732 0 0 -1
569 0 2 0.5897 6.072466231495492 3.059987551664999 12.13647970713186 0 0 1
1063 0 1 -1.1794 6.547353384156083 1.8434715587815478 9.751634517026202 0 0 -1
1276 0 1 -1.1794 2.8684180420544916 0.13266875379128573 10.621644807992606 0 0 -1
570 0 2 0.5897 4.903628046620898 3.988284543596928 12.4939891970618 0 0 1
819 0 2 0.5897 7.965082425397917 1.67774645003735 8.468790889131403 0 2 -1
17 0 2 0.5897 9.338234761294194 3.837823121903436 9.457641698591235 0 0 0
16 0 1 -1.1794 9.377776451417398 3.1421850847275845 10.129455688687147 0 0 0
18 0 2 0.5897 10.214384842347114 3.1745524312752824 10.530567419508357 0 0 0
860 0 2 0.5897 9.522684662312917 1.0612984006948707 10.591908848144488 0 2 1
605 0 2 0.5897 8.424506804066077 3.0330690765859676 11.5854900959577 0 0 0
2083 0 1 -1.1794 11.851097447903388 3.439604222175883 12.037553362826637 0 0 -1
684 0 2 0.5897 11.953158817684965 1.925212850724105 8.793907633341455 0 1 1
1371 0 2 0.5897 11.411965835259267 0.2936775654142584 11.010003334995886 0 1 0
859 0 1 -1.1794 9.664844613052876 0.15317309096818346 10.728674401059282 0 2 1
604 0 1 -1.1794 7.828474857779197 3.1096675134908596 12.354670542920378 0 0 0
512 0 2 0.5897 1.1980539421517007 4.6950492666331005 8.730480644545809 0 0 -1
511 0 1 -1.1794 2.185010220355242 4.760525809331018 8.791590263881934 0 0 -1
513 0 2 0.5897 2.459329372718945 5.520929167410096 9.322228958781356 0 0 -1
1624 0 1 -1.1794 2.9259727690130464 6.497870061113269 10.638584885261535 0 0 0
295 0 1 -1.1794 5.567185834576635 6.362838385315776 10.49799682360277 0 1 0
1626 0 2 0.5897 3.8901652521813874 6.533468256370432 10.689336489129888 0 0 0
1625 0 2 0.5897 2.5712025130907836 6.390375077935401 11.547314909495405 0 0 0
2097 0 2 0.5897 6.07458132180382 5.0644954575813905 9.411687037096144 0 0 1
296 0 2 0.5897 5.853912621810409 7.26140354140113 10.179338538692717 0 1 0
297 0 2 0.5897 6.078943108323562 6.242710886287662 11.339687962590464 0 1 0
2095 0 1 -1.1794 6.280839234113159 4.576849701680547 8.610363075432963 0 0 1
786 0 2 0.5897 12.208602506123338 7.5691320390216505 10.785055533093605 0 -1 1
1261 0 1 -1.1794 9.160497110264844 5.30866058984172 8.34287357345532 0 -1 0
785 0 2 0.5897 11.193543075655619 6.553923794986068 11.38802463735472 0 -1 1
27 0 2 0.5897 9.394598755384798 6.2623666956801625 10.09694381178447 0 1 1
25 0 1 -1.1794 9.25552682239708 6.828124395955345 10.889971721129276 0 1 1
26 0 2 0.5897 8.6229258128582 6.3699422750385475 11.53023802093926 0 1 1
784 0 1 -1.1794 12.107218779984427 6.718959256259244 11.283330587922304 0 -1 1
1863 0 2 0.5897 5.733045938243736 11.695549578954948 8.426622976908872 0 0 -1
1395 0 2 0.5897 2.69980312598527 8.139867821264994 10.344237295182662 0 1 2
276 0 2 0.5897 5.602379983536546 8.721779289473508 8.542853003832112 0 0 1
274 0 1 -1.1794 6.147537810117374 8.696839186697733 9.31493224101968 0 0 1
1393 0 1 -1.1794 2.9042425385941653 9.098778346403462 10.492245012853218 0 1 2
1394 0 2 0.5897 2.295232564008391 9.316325121962297 11.232559939438177 0 1 2
30 0 2 0.5897 2.750358418584841 10.175460276555055 8.766353703052953 0 0 1
527 0 2 0.5897 4.4971690218700076 9.432133714474782 11.591715795983601 0 1 0
275 0 2 0.5897 6.14200309487902 9.615499011096007 9.528726711449492 0 0 1
528 0 2 0.5897 5.973994687706619 9.50094837308227 12.194198073494373 0 1 0
1861 0 1 -1.1794 6.269444750512884 11.422383793509036 9.175958055457524 0 0 -1
526 0 1 -1.1794 5.0309850222645185 9.543057397352344 12.403278994979509 0 1 0
1862 0 2 0.5897 7.213752155777503 11.522680755365556 8.86095123528162 0 0 -1
855 0 2 0.5897 12.074889001292497 8.427984208236074 8.595776788507578 0 0 0
1641 0 2 0.5897 7.807143994287786 8.336815376623434 8.711894938888149 0 0 0
1152 0 2 0.5897 9.629734058577752 8.43412403043526 10.558874556594112 0 1 1
1150 0 1 -1.1794 9.757994095605904 9.412942175859579 10.50510738657815 0 1 1
1151 0 2 0.5897 10.557736211966354 9.63747342567564 11.033780277683354 0 1 1
1873 0 1 -1.1794 9.053210699618718 11.327055289723498 8.851379885196572 0 0 0
1875 0 2 0.5897 9.34117681122844 10.466225737697743 9.10673232409408 0 0 0
76 0 1 -1.1794 11.916206176835306 9.596636568424422 12.223475453645108 0 -1 0
1097 0 2 0.5897 8.351069834027612 9.776594077994726 11.803996631724415 0 0 2
1347 0 2 0.5897 5.956534706550511 12.674684297602395 10.377731855964955 0 -1 0
2018 0 2 0.5897 2.7437074568269058 12.870116654912943 9.587673126613627 1 -1 0
1345 0 1 -1.1794 5.732871068416884 13.417216044125045 10.940787879935236 0 -1 0
1346 0 2 0.5897 4.822538104813356 13.350809761749378 11.105828262902316 0 -1 0
2017 0 1 -1.1794 2.91766118222062 13.142461155498891 10.47878921538053 0 -1 0
2019 0 2 0.5897 2.8215596236764124 14.07256538540903 10.561715995179345 0 -1 0
1565 0 2 0.5897 6.203579936392011 14.915680600446349 9.964399571765535 0 -1 1
1564 0 1 -1.1794 6.45098906452798 15.527059280416962 9.264318432950894 0 -1 1
120 0 2 0.5897 2.2841924318684548 12.596167626579001 12.078271086695615 0 -1 0
1143 0 2 0.5897 9.609812208753821 12.43848225963533 10.045040108201622 0 1 0
1566 0 2 0.5897 7.33423093326634 15.237719143230926 9.015185883532679 0 -1 1
1548 0 2 0.5897 11.862643506464675 13.055457419253436 11.080009712664728 0 1 -1
1141 0 1 -1.1794 9.740402712953818 13.094500757131108 10.713178273332495 0 1 0
1596 0 2 0.5897 9.695415897010369 14.98595570103175 10.581980694991968 0 0 1
1142 0 2 0.5897 9.17385746595844 12.873471143887523 11.477592802721036 0 1 0
1594 0 1 -1.1794 9.836423401960046 15.95613183014545 10.574161876936516 0 0 1
1035 0 2 0.5897 7.053506779201036 13.086869794959677 12.314424493803589 0 -2 0
1601 0 2 0.5897 3.6754766236060106 16.130613224821328 10.777625640950497 0 -1 0
1600 0 1 -1.1794 2.738896759571026 16.119779142751348 10.561211553818797 0 -1 0
1602 0 2 0.5897 2.2475986166188417 16.22405251853145 11.42395090469118 0 -1 0
1078 0 1 -1.1794 5.2480739404889 16.31762101963187 12.152806794662668 0 -1 -1
1080 0 2 0.5897 6.2292004737569675 16.388573860867634 12.116029126425786 0 -1 -1
1292 0 2 0.5897 1.3421680522863133 18.146104957401498 8.796883589379863 0 -2 0
1341 0 2 0.5897 4.611188302548196 19.717708959943806 11.083751722448373 0 -1 0
1291 0 1 -1.1794 2.3431336149817037 18.121245449757897 8.660337184682115 0 -2 0
1339 0 1 -1.1794 5.561288579975328 19.7047841236082 11.179464539116795 0 -1 0
1293 0 2 0.5897 2.6405999428381985 17.428551091039655 9.243589913745302 0 -2 0
1277 0 2 0.5897 2.4560705231789512 19.626816186871466 9.952290217788207 0 -1 -1
1340 0 2 0.5897 5.851298377358202 19.204841405899405 10.384191316983605 0 -1 0
2239 0 1 -1.1794 6.442991836034169 18.272850290212002 9.06698220970559 1 0 1
2240 0 2 0.5897 6.312416454251667 17.412324617759474 9.482695283801574 1 0 1
546 0 2 0.5897 2.143458185180784 19.77768212820738 12.461200435750715 0 -1 0
252 0 2 0.5897 11.654547975320574 16.377972002874742 11.21975301130124 1 -1 -1
1595 0 2 0.5897 9.308696007344269 16.41936504577267 9.870350980341426 0 0 1
360 0 2 0.5897 8.74048239616365 16.473730844954098 12.130716564244832 0 1 0
294 0 2 0.5897 8.27300544295878 18.250083126531848 8.894470454610252 0 -1 -2
861 0 2 0.5897 9.23022545357005 19.966855530709807 11.619930032056871 0 1 1
292 0 1 -1.1794 9.216305335281332 18.07803468633186 9.095133825997348 0 -1 -1
293 0 2 0.5897 9.550281620072013 18.80796595951479 9.603943035901251 0 -1 -1
1338 0 2 0.5897 7.061177723225629 19.527061258209365 12.285268546635754 0 -1 -1
250 0 1 -1.1794 12.143041132912831 16.65554402045879 12.024786908252063 1 -1 -1
1131 0 2 0.5897 1.7632830231632342 2.423274727501641 13.917629818907015 0 2 -1
1812 0 2 0.5897 4.6989943985831735 1.9874025056851938 13.387945157444197 0 1 -1
1129 0 1 -1.1794 1.8289611208662686 1.8531902034053571 14.686236465809879 0 2 -1
1811 0 2 0.5897 3.6339780983360654 1.363826179075693 14.358355513166366 0 1 -1
1810 0 1 -1.1794 4.559422011848856 1.3105050230644468 14.130876515704442 0 1 -1
1820 0 2 0.5897 5.742793694285956 1.6038958292998882 15.353199530677358 0 1 1
1819 0 1 -1.1794 6.477282507303712 1.7102646856506225 15.984854383767923 0 1 1
1058 0 2 0.5897 6.001599294630142 3.4042409810103464 16.16129965483785 0 0 -1
1858 0 1 -1.1794 1.0087024444040325 3.4858714455535416 12.52624478073302 0 0 0
122 0 2 0.5897 2.7573838575325667 3.8136320921984694 15.779666453071968 0 0 -1
1821 0 2 0.5897 6.25914937080498 1.084329129312373 16.675987984013688 0 1 1
1130 0 2 0.5897 0.8871636471960755 1.9158842303184793 14.949445070499038 0 2 -1
606 0 2 0.5897 8.278459393249982 2.472154791362343 12.95453115610716 0 0 0
2133 0 2 0.5897 11.598501318640453 1.9840820997732755 13.126548923439914 0 2 0
851 0 2 0.5897 9.744980605771964 1.432983033924069 14.582791787507766 0 -1 0
2131 0 1 -1.1794 11.357309209058148 1.222927911225759 13.729081045154189 0 2 0
850 0 1 -1.1794 8.765474905596946 1.2288679410328431 14.44270671249445 0 -1 0
852 0 2 0.5897 8.257538269086655 1.5044918670069793 15.240952888386683 0 0 0
2132 0 2 0.5897 11.883501405332972 1.4468223601380656 14.549263303334408 0 2 0
1859 0 2 0.5897 1.0429610121954218 4.445671555955247 12.585081097419957 0 0 0
121 0 1 -1.1794 2.242780993477835 4.537062773434687 15.383225131660451 0 0 -1
1057 0 1 -1.1794 6.0105436934183025 4.321904339133356 15.986481189210672 0 0 -1
123 0 2 0.5897 2.7576579478757433 4.792277735614682 14.599209214209015 0 0 -1
1088 0 2 0.5897 4.712391099238319 4.8932530048342615 14.581992574224154 0 -1 -1
1087 0 1 -1.1794 4.263479091872718 5.246531459049133 13.788808833775734 0 -1 -1
1089 0 2 0.5897 4.396700218172894 6.227204386334833 13.98332804748628 0 -1 -1
782 0 2 0.5897 1.3183924410111887 6.935169825437069 13.425620469721856 0 0 0
781 0 1 -1.1794 1.2069122556442595 6.399075388041706 12.614055944000595 0 0 0
877 0 1 -1.1794 4.620772227050065 7.725045088102865 14.414534223873604 0 0 0
306 0 2 0.5897 2.6550169868182016 7.810360778511289 15.104455318758776 0 1 0
879 0 2 0.5897 5.321861413049006 7.868808588876143 15.030179149354941 0 0 0
304 0 1 -1.1794 1.7868276377112868 7.9346036037698235 14.826641258542752 0 1 0
2085 0 2 0.5897 11.568438825531143 4.137453450335951 12.666555680599593 0 0 -1
74 0 2 0.5897 7.552011222186583 4.915367627862175 12.714712887854212 0 0 -2
73 0 1 -1.1794 7.5248813686772955 5.8721112639982564 12.568400089379267 0 0 -2
126 0 2 0.5897 7.8338598744356736 4.177967066724837 15.890387699535685 0 0 0
124 0 1 -1.1794 8.750862822599753 4.454559097090587 15.804012251973798 0 0 0
167 0 2 0.5897 10.074832428886154 4.6795991557115455 14.552157062463449 0 0 0
166 0 1 -1.1794 10.894879840850706 4.907878049003791 14.064071999235622 0 0 0
75 0 2 0.5897 7.772677841951775 6.3549889655790865 13.434713325564594 0 0 -2