LAMMPS data file via write_data, version 23 Jun 2022, timestep = 40000000

2268 atoms
2 atom types

0.9711558686192383 46.47954313129749 xlo xhi
0 20.047001 ylo yhi
0 20.857 zlo zhi

Masses

1 1.008
2 15.999

Atoms # full

511 0 1 -1.1794 1.8892050396697901 1.5744970915919796 3.5480802948219545 0 0 -1
1563 0 2 0.5897 3.69685478831844 1.5460015638765 2.2585488801416673 0 0 0
1785 0 2 0.5897 1.2066594084270301 2.8270182995876154 1.4978237369669014 0 0 1
513 0 2 0.5897 0.9965176218760906 1.4873761585212817 3.8926170513833482 0 0 -1
1561 0 1 -1.1794 4.583735075995742 1.6728520111503709 1.9431992945766872 0 0 0
1784 0 2 0.5897 1.4726980526284152 1.3312686722688378 1.0823850381068598 1 0 1
1562 0 2 0.5897 4.73546850964844 1.1173014348538062 1.1363429550368394 0 0 0
1188 0 2 0.5897 6.462258532574187 2.156489046904814 1.3351326841888767 0 1 1
959 0 2 0.5897 5.057021831485365 3.615431391378428 3.072848482432423 0 -3 1
1783 0 1 -1.1794 1.2094231587534898 2.240737527231385 0.7602832477214846 0 0 1
654 0 2 0.5897 8.560944524659648 1.313693690017458 1.8877679178063145 0 1 -2
653 0 2 0.5897 9.2944436585351 1.2400610201584785 3.2418570347567326 0 1 -2
1186 0 1 -1.1794 7.449554347559388 2.1491282312716273 1.203660916659552 0 1 1
84 0 2 0.5897 10.755541076851587 2.2982770067265887 1.4915699976553392 0 -2 2
82 0 1 -1.1794 11.597101775576236 2.6486204946420204 1.1146003303746719 0 -2 2
652 0 1 -1.1794 9.220508820344033 0.7628246061948165 2.3870787158933977 0 1 -2
1187 0 2 0.5897 7.706418417533188 2.585562991711454 0.3794698303012503 0 1 1
1326 0 2 0.5897 7.388482171324746 3.651689690043963 2.655521756214694 0 -2 0
83 0 2 0.5897 12.076955899511162 3.1203401116269567 1.8079841134661199 0 -2 2
1324 0 1 -1.1794 7.852800631190156 3.8917578550763388 3.514702258147002 0 -2 0
2067 0 2 0.5897 2.919807825871209 4.475590649659065 3.108997968657698 0 1 0
2065 0 1 -1.1794 2.1897165650873633 4.670665959152742 2.515399721573759 0 1 0
958 0 1 -1.1794 4.94338892941629 4.577501322821767 2.9612177940332427 0 -3 1
960 0 2 0.5897 4.741712051297782 4.676228717633771 2.001173309223045 0 -3 1
1932 0 2 0.5897 5.704076682033459 6.346079193500159 3.366975330744095 0 2 0
2066 0 2 0.5897 1.4275217767953092 4.706147056998329 3.100214960758693 0 1 0
1593 0 2 0.5897 1.7483928101400208 6.007814822177617 1.324988467369211 0 0 -1
1930 0 1 -1.1794 6.110747719918461 7.226306809056995 3.0575394734427466 0 2 0
1565 0 2 0.5897 1.3729189215827076 7.505888085957656 3.281159593603719 0 0 1
1781 0 2 0.5897 4.694828728356938 7.928562647151819 1.8155984277598536 0 -1 -1
1591 0 1 -1.1794 1.3001561718528651 6.471482542243919 0.5867115856324425 0 0 -1
1592 0 2 0.5897 1.3748958219874285 7.412933230234463 0.7871630984768005 0 0 -1
1564 0 1 -1.1794 2.333208632076979 7.53477777752883 3.3145367585124164 0 0 1
1566 0 2 0.5897 2.7137107325088583 7.75576699581927 2.4614097508549575 0 0 1
1931 0 2 0.5897 6.08705752860907 7.827013030646135 3.8663216266278826 0 2 0
1327 0 1 -1.1794 5.0654716545440985 4.668365932334288 0.0021416693053524227 0 -1 1
606 0 2 0.5897 9.65844257061865 4.344501975005781 2.884631992407532 0 1 2
604 0 1 -1.1794 10.187176523600328 5.046722709320759 2.520324128316209 0 1 2
605 0 2 0.5897 10.880883811555316 5.241132872332196 3.127324305630571 0 1 2
530 0 2 0.5897 7.5125149408589404 7.363994798534172 2.2519642528261965 0 0 1
529 0 1 -1.1794 8.364665270239463 7.230870127135963 1.7398061656973576 0 0 0
1863 0 2 0.5897 10.579752651593376 5.010406993038405 0.6905164457440593 0 0 -1
531 0 2 0.5897 8.757581019884691 6.420880559225699 2.0640570096427355 0 0 1
537 0 2 0.5897 10.32570669986246 7.6813985131753215 1.5621700430291554 0 0 -2
536 0 2 0.5897 11.505934143390746 8.014253590603682 0.5258372450653311 0 0 -2
1325 0 2 0.5897 7.279722521977463 4.596837630497514 3.786306251198626 0 -2 0
819 0 2 0.5897 12.240662726094165 7.128810274907666 2.361134645113087 0 5 -2
1782 0 2 0.5897 4.190081916228675 9.445952846683923 1.6152851169123341 0 -1 -1
1780 0 1 -1.1794 4.076588669992493 8.55546188466666 1.269337266495739 0 -1 -1
1343 0 2 0.5897 2.5750159943821194 11.427000312488666 2.4425589042164253 0 0 -1
1117 0 1 -1.1794 4.3169447963861645 11.181349385446666 2.118251772523555 0 -1 0
1342 0 1 -1.1794 1.6191678202641784 11.562362693231755 2.3027467097376655 0 0 -1
1119 0 2 0.5897 5.027795598616668 11.423258226177401 2.7375370837479602 0 -1 0
1118 0 2 0.5897 4.525585310337936 11.878735578367847 1.4660753441240015 0 -1 0
1577 0 2 0.5897 1.1757103623161589 9.912108968326706 1.0114222248616724 0 2 -1
1344 0 2 0.5897 1.0826489326109188 11.521848688349568 3.101622634332803 0 0 -1
517 0 1 -1.1794 6.56588138870659 11.82024350510679 3.3678957813258346 0 1 1
1576 0 1 -1.1794 1.2377148310124422 9.315354006568835 0.2624491077067876 0 2 -1
535 0 1 -1.1794 11.087985208310405 8.160692228755677 1.407591318606354 0 0 -2
1895 0 2 0.5897 8.21537586601888 9.294106392649967 2.1600431746121806 0 -5 0
1894 0 1 -1.1794 8.449402634209658 10.0410657737224 2.7355276165389015 0 -5 0
1896 0 2 0.5897 9.233976484109343 10.445321362817603 2.2722423289691527 0 -5 0
1617 0 2 0.5897 11.405961330928072 11.339371449419662 1.1335028657626005 0 0 0
1615 0 1 -1.1794 10.49119092072621 11.564389268462797 1.3078368734208514 0 0 0
807 0 2 0.5897 11.411092762310037 11.248151997576455 3.748852139471635 0 0 0
1262 0 2 0.5897 11.78024821981405 9.120473643243304 2.8194952434954614 0 0 0
1261 0 1 -1.1794 12.189760024918353 9.555478084184838 3.5903809674464076 0 -1 0
519 0 2 0.5897 7.168255331716571 11.151761136774203 3.018268612508502 0 1 1
1293 0 2 0.5897 3.109383554875794 14.315754714192863 2.8534044457010403 0 -2 0
932 0 2 0.5897 5.085589515151981 14.050679051180987 2.2408556072926276 0 -1 2
931 0 1 -1.1794 4.483940198115401 13.84410812287096 1.5348607872339086 0 -1 2
1291 0 1 -1.1794 2.644209883957463 14.296957539394537 3.7165126463525455 0 -2 0
134 0 2 0.5897 1.3272797708218718 14.499720920307581 0.6014886575744863 0 0 0
933 0 2 0.5897 4.571884273651529 14.504301245514252 0.8483511570862117 0 -1 2
133 0 1 -1.1794 1.4706437887886503 15.470472561538852 0.6615856537488343 0 0 0
21 0 2 0.5897 1.3774794412672713 12.369180525918885 0.9683803248054269 1 -1 0
19 0 1 -1.1794 1.2130623212580458 12.888583452340502 0.1432885856401687 0 -1 0
631 0 1 -1.1794 6.368278376931944 15.406650872290557 2.9228392662571663 0 0 1
135 0 2 0.5897 2.223991881962054 15.660133239521492 0.10024407065792235 0 0 0
1292 0 2 0.5897 3.1083373876145544 13.503785969261124 4.167967157844584 0 -2 0
633 0 2 0.5897 6.635512960746525 15.043418116348633 3.7759804466299935 0 0 1
1917 0 2 0.5897 7.901603257816058 12.489218500780378 0.9742633557861633 0 -1 3
806 0 2 0.5897 11.2162066370846 12.81219788058048 3.367852643396316 0 0 0
632 0 2 0.5897 7.175748477928342 15.786565543494397 2.481691208305043 0 0 1
1916 0 2 0.5897 7.424162676550994 13.107097776164986 2.2570611860796306 0 -1 3
2181 0 2 0.5897 9.491345745455103 14.173141795216559 2.4174570490215075 0 0 2
1915 0 1 -1.1794 8.046911774776872 13.260430694208543 1.554204668459162 0 -1 3
2180 0 2 0.5897 10.867857991726606 15.040935175694845 2.4891921039494895 0 -1 2
2179 0 1 -1.1794 10.415378413155345 14.194950937906246 2.7203534202380815 0 0 2
1616 0 2 0.5897 10.619731496960275 12.48210921844319 1.502605624558364 0 0 0
842 0 2 0.5897 8.204944662498399 15.965406795397124 0.7373032001593917 0 -3 0
805 0 1 -1.1794 11.475518963785488 12.180020389784668 4.034860403237274 0 0 0
1093 0 1 -1.1794 6.459493584015297 19.42010037751337 3.18452490542023 0 1 1
1094 0 2 0.5897 5.73927111209223 18.87730782105618 2.865310632347326 0 1 1
103 0 1 -1.1794 1.2689174209539478 19.704044599358543 0.6135586863784518 0 0 1
628 0 1 -1.1794 1.8688966424035889 17.427203102974136 2.5903614646115853 0 0 0
630 0 2 0.5897 2.8386227325535964 17.51372404985963 2.4920693944164602 0 0 0
1647 0 2 0.5897 5.357719564561426 16.82258821074775 2.477112053817598 0 -2 -2
1645 0 1 -1.1794 4.813594656137374 17.514392493878624 2.044714058674114 0 -2 -2
1646 0 2 0.5897 4.8739503627550596 17.220701743995704 1.1220590173033156 0 -2 -2
104 0 2 0.5897 1.3104143401222361 19.0157250117969 1.2964202464494943 0 0 1
629 0 2 0.5897 1.6333633081911167 16.63408571790644 2.0451308506429 0 0 0
342 0 2 0.5897 2.66546443269581 19.818983571890097 4.125174611933629 0 -2 1
1885 0 1 -1.1794 11.224862731515413 16.622688189291193 0.8109867563246894 0 -1 -2
1095 0 2 0.5897 7.179984754152183 19.471331276380745 2.508374697755755 0 1 1
779 0 2 0.5897 9.66233107687907 19.644913523383774 1.015497136866721 0 -1 -1
843 0 2 0.5897 9.132738559271896 16.881665995759786 1.5647335139432526 0 -3 0
1887 0 2 0.5897 10.895038983551771 17.495568316730758 0.5475974431910402 0 -1 -2
841 0 1 -1.1794 8.266742283706302 16.45239363695847 1.6094171635799075 0 -3 0
113 0 2 0.5897 11.10495681401904 17.44369638415218 3.4500397612766864 0 -1 1
112 0 1 -1.1794 10.726416286963929 18.32704927104887 3.6188698467718634 0 -1 1
114 0 2 0.5897 10.941517308308873 18.83690695068938 2.7986059281404057 0 -1 1
778 0 1 -1.1794 9.91470893107088 19.186761724873172 0.20767241901375671 0 -1 -1
576 0 2 0.5897 9.045894663979922 17.940939412355437 4.104368752753136 0 1 0
1826 0 2 0.5897 8.237542456394259 18.83890433958081 0.09075727998012473 0 0 0
1825 0 1 -1.1794 7.2406037165232595 18.805607698612715 0.15994014646066876 0 0 0
1827 0 2 0.5897 6.99979925409244 18.037328787697586 0.7060238609447534 0 0 0
1886 0 2 0.5897 12.143030769216574 16.813703554225036 0.8513882888092394 0 -1 -2
1963 0 1 -1.1794 12.23862156767825 16.17589269721045 3.8339012020544745 0 2 2
1338 0 2 0.5897 5.6884066680361 1.1809026223582078 4.233012941743754 0 0 -1
512 0 2 0.5897 2.3329133826467996 2.135809297776938 4.197301653332502 0 0 -1
782 0 2 0.5897 1.689531625438978 2.577426528767214 8.262670268405518 0 0 0
1336 0 1 -1.1794 5.482476865580183 1.6981931142547182 5.02967444203247 0 0 -1
527 0 2 0.5897 4.188382607049352 2.8770437944156146 5.473427219023266 0 1 0
528 0 2 0.5897 2.9287137443352864 2.5387469123642905 6.348612194940587 0 1 0
526 0 1 -1.1794 3.259887071567752 3.154695896234731 5.6641832628576125 0 1 0
781 0 1 -1.1794 1.5290810304244613 1.9053697142532462 7.5758968814531595 0 0 0
1337 0 2 0.5897 6.3095251307256035 1.6779299896164355 5.5923366756957975 0 0 -1
1859 0 2 0.5897 1.5601327386168977 0.24955343971495755 7.493011704612759 0 0 0
1821 0 2 0.5897 4.635651269084082 0.6136137933457941 7.724674370528828 0 1 1
581 0 2 0.5897 5.889540824837406 2.754900985687184 8.053328808532878 0 -1 2
580 0 1 -1.1794 6.4580278789689824 3.519499539795706 8.138530474225902 0 -1 2
1971 0 2 0.5897 8.895037323515963 2.7652228399006207 4.596144656454238 0 2 2
372 0 2 0.5897 8.014068783746012 0.8902086091801253 7.5796643660954475 0 -1 1
1970 0 2 0.5897 10.312798824492663 2.0437582386053594 4.816288028137374 0 2 3
1969 0 1 -1.1794 9.365440622397298 1.9640832564878432 4.897913703703676 0 2 2
371 0 2 0.5897 8.252115096782905 1.2732056836217738 6.037403851535103 0 -1 1
370 0 1 -1.1794 7.625607478810391 0.9237081506300513 6.706582162699661 0 -1 1
1547 0 2 0.5897 10.587366605429624 0.9609075516811851 7.601427645443677 0 2 1
22 0 1 -1.1794 11.985233134881021 0.3627734154345187 4.882383795060656 0 1 2
1546 0 1 -1.1794 11.013717684533765 0.06273782143419128 7.459729273846539 0 2 1
1619 0 2 0.5897 9.588924246646592 3.144524120966108 8.034208145397908 0 3 1
23 0 2 0.5897 11.574593170918138 0.46777651511954665 5.806266576264492 0 1 2
1625 0 2 0.5897 2.9560798642636756 6.329533560832902 4.352987030959974 0 0 0
1624 0 1 -1.1794 3.166855324381089 6.004350868073842 5.2444768263489285 0 0 0
1626 0 2 0.5897 3.1707493254917707 5.0461946718057895 5.289137692262163 0 0 0
879 0 2 0.5897 4.279727705420076 6.109682882145061 6.57157605919881 0 0 0
1395 0 2 0.5897 2.0952427325017364 6.5257504812501175 6.446257550807007 0 1 2
877 0 1 -1.1794 5.09331165829223 5.928852532532876 7.058139224482732 0 0 0
878 0 2 0.5897 5.23402589916162 6.579685081497584 7.76088770804672 0 0 0
582 0 2 0.5897 5.988200100537761 4.307450908104735 7.761213012348632 0 -1 2
1394 0 2 0.5897 1.4041868279236507 7.223950146216054 7.6719390008758435 0 1 2
204 0 2 0.5897 6.494534080303747 5.903360756888505 5.854565639303151 0 1 -1
1393 0 1 -1.1794 1.4321375509029004 6.408109814564758 7.14865918838936 0 1 2
1357 0 1 -1.1794 9.536617050340748 4.569143620812714 6.629974015365613 0 0 1
100 0 1 -1.1794 11.37708535947493 7.847100734340983 5.572080862027552 0 0 1
1359 0 2 0.5897 10.18989682364505 4.8073946417412365 5.925238771358741 0 0 1
1358 0 2 0.5897 8.64555034484042 4.59133875007206 6.28493113943027 0 0 1
203 0 2 0.5897 7.807789478163549 6.468762128002533 5.393810062362783 0 1 -1
202 0 1 -1.1794 7.363317290623302 5.6262672686491815 5.415121600636964 0 1 -1
1803 0 2 0.5897 11.753768172771707 6.008471040694186 5.305277316707337 0 -1 1
1801 0 1 -1.1794 11.594927359978618 5.053201101251163 5.091632991389566 0 -1 1
1430 0 2 0.5897 9.46338325905966 7.976556610754641 4.998078095666149 0 0 -1
297 0 2 0.5897 11.575515018496347 4.4941650500593 7.839190545391622 0 1 0
2019 0 2 0.5897 2.6218267896852834 8.838411273037265 4.55951828477481 0 -1 0
2018 0 2 0.5897 2.9476475791496357 10.292045160047525 5.262119178398738 1 -1 0
5 0 2 0.5897 4.798588823667556 9.08274581734824 5.218703116674122 0 0 1
2017 0 1 -1.1794 2.945046977952379 9.344590553280394 5.328302606424774 0 -1 0
120 0 2 0.5897 2.1549625221744586 9.172529381603752 6.902871029433907 0 -1 0
4 0 1 -1.1794 5.783233617438685 9.093152001858842 4.914589040161804 0 0 1
118 0 1 -1.1794 1.5826844680259746 9.059469325449916 7.713853784449348 0 -1 0
206 0 2 0.5897 6.095990875194622 12.02085198937113 6.946964767747184 0 -4 -1
518 0 2 0.5897 6.57488363048742 11.676470946992703 4.33343009479402 0 1 1
119 0 2 0.5897 1.7362892304974262 9.881939214121413 8.170135196306 0 -1 0
6 0 2 0.5897 6.270529813944162 9.150842604449856 5.709677833769469 0 0 1
1431 0 2 0.5897 8.43204693183921 8.95864824516103 4.320242980095733 0 0 -1
1429 0 1 -1.1794 8.525116504656264 8.29827799563168 4.998227375191637 0 0 -1
102 0 2 0.5897 11.798534278105455 8.437444810103232 4.89881218050374 0 0 1
2149 0 1 -1.1794 9.078367958055587 11.763996489403418 5.686596508192473 0 0 -1
1923 0 2 0.5897 9.603507107895007 10.354763045534664 6.905704414457127 0 0 2
1921 0 1 -1.1794 10.190870397521083 9.695202790502128 7.301574987833088 0 0 2
2194 0 1 -1.1794 7.382254068950488 9.031162470443551 7.319905622847659 0 0 0
1922 0 2 0.5897 10.515169482797214 9.161711228622345 6.580926552155228 0 0 2
920 0 2 0.5897 11.456138903068371 11.111168910077636 7.95747896344209 0 0 0
2151 0 2 0.5897 8.421210478766373 11.304623259889954 5.11062288964145 0 0 -1
2195 0 2 0.5897 8.197477342005786 8.914789956705546 6.874894996519342 0 0 0
2196 0 2 0.5897 7.516923740209561 9.842095612875342 7.8346100239665075 0 0 0
101 0 2 0.5897 11.934649114887824 8.05569968306692 6.344699068791669 0 0 1
1042 0 1 -1.1794 1.353095704243684 13.14768469069879 7.034740827143018 0 0 0
205 0 1 -1.1794 6.003527825843206 12.210902879859717 5.996938155292659 0 -4 -1
1602 0 2 0.5897 4.285159306694781 12.189308913960435 5.745033215001684 0 -1 0
1600 0 1 -1.1794 3.378687493530464 12.204964274816376 5.339726257408082 0 -1 0
1601 0 2 0.5897 2.78755835109833 12.553914447442345 6.03819151184649 0 -1 0
1613 0 2 0.5897 4.869792112514601 15.429102712382763 8.049365054410215 0 1 0
207 0 2 0.5897 6.516028280728489 13.014181676316552 5.859256938524896 0 -4 -1
1043 0 2 0.5897 1.422520916788955 14.053408816627892 7.441581408289341 0 0 0
1277 0 2 0.5897 2.641700151316836 15.880011678084756 4.6518977517527205 0 -1 -1
544 0 1 -1.1794 1.8084093393928526 15.740705228419037 7.664086990867979 0 -1 0
1265 0 2 0.5897 6.549514915539583 15.355853885002306 5.840970313270554 0 3 0
585 0 2 0.5897 1.581947789596978 12.124452042422162 8.293213007159299 0 0 -1
144 0 2 0.5897 9.941642876391139 14.214619407776231 4.825894622813442 0 -1 -2
2150 0 2 0.5897 9.675262323369761 12.167966825007424 5.052578804433929 0 0 -1
720 0 2 0.5897 8.842133289434763 12.096615096546344 7.884430896139536 0 -1 2
143 0 2 0.5897 10.090536331378093 15.596229075014405 5.5366619345379915 0 -1 -2
142 0 1 -1.1794 9.709377258417446 14.716569392311623 5.654504748425329 0 -1 -2
1264 0 1 -1.1794 6.90922659998024 14.517817072407224 5.540644741870768 0 3 0
659 0 2 0.5897 10.06713539249257 14.317510218104687 7.28306790891771 0 1 -2
1266 0 2 0.5897 7.867507157100151 14.572658309702826 5.742538457206511 0 3 0
658 0 1 -1.1794 9.877639207269091 13.967450332082478 8.181776354153003 0 1 -2
656 0 2 0.5897 12.328990281772302 12.877803583923628 5.459657027265735 0 -2 0
1858 0 1 -1.1794 1.3515836418367795 19.346700505175978 7.255053943293499 0 -1 0
546 0 2 0.5897 2.2190254981738966 16.333222889911717 7.01588225322763 0 -1 0
382 0 1 -1.1794 5.235469139174824 16.575083676691687 6.745621912503783 0 0 0
383 0 2 0.5897 4.435362492379958 16.35060971882264 6.211662699298725 0 0 0
1276 0 1 -1.1794 2.884706991766988 16.581642955187625 5.271146776370959 0 -1 -1
1278 0 2 0.5897 2.841890833174722 17.37560961116589 4.781000733480995 0 -1 -1
1811 0 2 0.5897 5.894316334968233 19.726015697755408 6.230280240676099 0 0 -1
1810 0 1 -1.1794 5.186936565471985 19.172011576142317 6.456912320873833 0 0 -1
384 0 2 0.5897 5.407957690952586 17.484637622687774 6.455042382423423 0 0 0
1812 0 2 0.5897 4.522951811173497 19.324433014594323 5.793937810989339 0 0 -1
341 0 2 0.5897 2.3778028622565284 19.51606667226622 5.5007273447763865 0 -2 1
340 0 1 -1.1794 2.959153000862271 19.22327445729137 4.8227528436181775 0 -2 1
1860 0 2 0.5897 1.7009843770787305 18.84983084999112 8.060362934484433 0 -1 0
833 0 2 0.5897 11.87271987048267 16.826683761146825 6.406915122179413 0 0 1
24 0 2 0.5897 11.448631043249303 19.826367534682035 4.3692415049931945 0 0 2
832 0 1 -1.1794 10.975095440440263 17.16478283147273 6.202846567222878 0 0 1
575 0 2 0.5897 7.571614420444079 18.0445829831484 4.484049973672395 0 1 0
574 0 1 -1.1794 8.409781522661188 17.711190610355057 4.773513521665199 0 1 0
2 0 2 0.5897 8.303240680708889 17.54136874811574 6.948743579805655 0 -2 3
3 0 2 0.5897 9.712365547394745 17.34814785615974 7.435436394510671 0 -2 3
1 0 1 -1.1794 8.920222684232844 17.811103929944863 7.68591072983524 0 -2 3
834 0 2 0.5897 10.856015124934963 17.629139201411018 5.365146428352969 0 0 1
1548 0 2 0.5897 10.27360323716865 19.50212493039557 7.700461728589784 0 1 1
1319 0 2 0.5897 0.9866155941786108 1.5131525287755223 10.562779603376502 0 -1 0
1819 0 1 -1.1794 4.643535569328895 1.0898151431539336 8.541903213982136 0 1 1
1820 0 2 0.5897 3.771442952532694 1.3686870374195388 8.854241600005501 0 1 1
123 0 2 0.5897 3.1825860509407753 2.2850246037946325 10.94295977991183 0 0 -1
121 0 1 -1.1794 2.873225244161293 1.4066284221486436 10.707225311127441 0 0 -1
796 0 1 -1.1794 6.441895461479269 2.26425335290274 11.120775331781012 0 2 1
798 0 2 0.5897 5.877330179237618 2.7182345152497014 10.46785071564542 0 2 1
2040 0 2 0.5897 6.046485362616578 0.7125768688619162 11.93163470605632 0 0 0
122 0 2 0.5897 3.1443662973285966 0.7970203874040029 11.391212342972858 0 0 -1
565 0 1 -1.1794 4.043512499238497 3.954615591636253 10.783187286346395 0 -1 1
1233 0 2 0.5897 5.025072511263985 2.5123170770611516 12.487328849310824 1 0 0
797 0 2 0.5897 7.255710634466155 2.79707612954374 11.126939351266763 0 2 1
1088 0 2 0.5897 7.547078020080421 1.2150130345471413 10.188074083441782 0 -1 -1
1618 0 1 -1.1794 10.006654957526818 2.53103679617921 8.65915509372342 0 3 1
1620 0 2 0.5897 9.274670238478866 1.9969999653650292 9.072878770766627 0 3 1
2122 0 1 -1.1794 11.20551333141996 1.3265819620388664 11.029774508008243 0 1 -1
2123 0 2 0.5897 10.917388329394024 1.5872400009989949 10.147400775219241 0 1 -1
2124 0 2 0.5897 11.04834628848962 0.39978242480586657 11.040508912955652 0 1 -1
1087 0 1 -1.1794 8.223075564845367 0.8349308111265072 9.691897707721264 0 -1 -1
33 0 2 0.5897 9.652990596131678 2.2505357103889976 12.134572607720596 0 0 1
31 0 1 -1.1794 9.014272651515117 2.9693229682244757 12.29131966431911 0 0 0
306 0 2 0.5897 1.1546117524326327 4.635218408836147 9.513918263977494 0 1 0
305 0 2 0.5897 2.1757838556399642 4.741461022537843 8.38419172202449 0 1 0
671 0 2 0.5897 5.767037656688572 7.099936149659139 9.602509993199014 0 1 -5
566 0 2 0.5897 3.411205518999523 4.121347703018248 10.048557777486698 0 -1 1
567 0 2 0.5897 3.594051393522328 4.4673898544317865 11.546170249696166 0 -1 0
504 0 2 0.5897 2.916062590693447 6.646578974486132 11.681212425181775 1 0 0
757 0 1 -1.1794 6.310284249455626 5.762018526991111 10.788894118738217 0 -1 -1
758 0 2 0.5897 5.854151452208825 5.00071953069815 10.516257018521609 0 -1 -1
304 0 1 -1.1794 1.9227370170467806 4.175685403847362 9.104369825802781 0 1 0
502 0 1 -1.1794 3.240774697769713 6.043476816879031 12.40647887447288 1 0 0
1959 0 2 0.5897 6.632769349958972 6.130032070574623 12.498020230593188 0 0 -1
670 0 1 -1.1794 5.412201073591815 7.804263989914523 9.024410504063452 0 1 -5
334 0 1 -1.1794 2.6129588610193535 7.870743431060413 10.440647566101427 0 0 1
335 0 2 0.5897 1.6699217225584824 7.992375758973484 10.281804507341194 0 0 1
759 0 2 0.5897 7.261986112382774 5.6975121869449215 10.412927833249487 0 -1 -1
1035 0 2 0.5897 10.694746207460684 6.710706018231902 8.350298893519167 0 -2 0
678 0 2 0.5897 11.779439348892662 6.219614564891556 11.872784993093424 0 1 1
1033 0 1 -1.1794 10.012768516788073 7.229871731132913 8.750686402932462 0 -2 0
1211 0 2 0.5897 8.779129408875274 5.620434957993222 8.877972700011938 0 4 -1
1212 0 2 0.5897 7.933455757676726 4.339935645858632 9.077101130030696 0 4 -1
1210 0 1 -1.1794 8.522974733269029 4.925324003487708 9.549964839489528 0 4 -1
542 0 2 0.5897 11.442493559211705 4.1578634996194745 11.24498205805785 0 -1 0
543 0 2 0.5897 10.23778092350487 4.821944419190923 10.46769477554618 0 -1 0
541 0 1 -1.1794 11.128544535178001 4.948649837714937 10.846363667276332 0 -1 0
563 0 2 0.5897 9.498681821044398 7.401396186787646 10.524002210684342 0 -1 -1
296 0 2 0.5897 11.683155508405077 5.0599443717258445 9.29832784911214 0 1 0
564 0 2 0.5897 9.628920646952862 7.092149686910749 12.097333348055777 0 -1 -1
562 0 1 -1.1794 9.19062554695457 7.552897093234892 11.445346549101087 0 -1 -1
676 0 1 -1.1794 12.043004472139637 7.047773610133193 12.31323304224844 0 1 1
677 0 2 0.5897 11.74780881563364 7.790291950942233 11.728917208105251 0 1 1
295 0 1 -1.1794 11.750217912244104 5.316945934423718 8.349994903338047 0 1 0
336 0 2 0.5897 3.1641955284780474 8.198828300802026 9.737197355673384 0 0 1
672 0 2 0.5897 6.165507898327143 8.29161291882668 8.68284217997901 0 1 -5
583 0 1 -1.1794 1.7964326904359997 11.406066711994834 8.973692322849248 0 0 -1
311 0 2 0.5897 2.7291264635809602 9.117266319009472 11.698221637372606 0 0 -1
792 0 2 0.5897 5.484154493397114 11.649730992663901 9.932776517187419 0 -1 -1
790 0 1 -1.1794 6.011563977248826 11.643684429928825 10.763512061700533 0 -1 -1
1350 0 2 0.5897 3.5540209004742023 11.775837396659847 8.768460305692363 0 -1 -2
231 0 2 0.5897 5.806291017249739 8.314723464056799 12.299761399393876 1 0 -1
791 0 2 0.5897 5.898005787107912 10.728489051618814 11.078631194847128 0 -1 -1
229 0 1 -1.1794 6.624779333233913 8.881279679223246 12.086027042245998 1 0 -1
1348 0 1 -1.1794 4.427922006958438 11.98574021965778 8.467223606050013 0 -1 -2
584 0 2 0.5897 1.0389289108356077 11.376878964223003 9.623591642670936 0 0 -1
2091 0 2 0.5897 12.191357195431387 8.475372363093529 9.534071459508892 0 3 -1
2089 0 1 -1.1794 12.03374755426294 8.931669926668041 10.375949513197195 0 3 -1
1034 0 2 0.5897 10.039347276670005 8.151298425771818 8.414120065908762 0 -2 0
2090 0 2 0.5897 11.278234258136813 9.558781367908862 10.225078700274729 0 3 -1
230 0 2 0.5897 7.310991423068142 8.136588065979778 11.973910615439953 1 0 -1
718 0 1 -1.1794 8.149657508108174 11.72389533361305 8.454703059588734 0 -1 1
1332 0 2 0.5897 9.15429515844502 10.580992962425524 9.613675014407185 0 -1 2
1330 0 1 -1.1794 9.589025264556064 10.136904434210189 10.394038785651617 0 -1 2
1331 0 2 0.5897 8.994343734616333 9.457811083711883 10.717811611865132 0 -1 2
131 0 2 0.5897 10.367667148037919 11.556107064541427 11.882892537226635 0 2 5
919 0 1 -1.1794 11.765158742507364 11.959206958101616 8.375745733014561 0 0 0
425 0 2 0.5897 7.7238761145054795 11.557875886653735 11.760498282566537 0 0 1
130 0 1 -1.1794 11.135939291120696 11.772380722035638 12.45721298035199 0 2 5
1612 0 1 -1.1794 4.901954504090557 14.716635758679 8.74593687638121 0 1 0
1349 0 2 0.5897 4.468599153156003 12.964520519218384 8.42319824062162 0 -1 -2
1029 0 2 0.5897 3.9235399023786472 14.41299237887992 10.243447598608636 1 -1 0
1028 0 2 0.5897 3.4271532460891474 13.588835648716367 11.452170445812143 0 -1 0
1027 0 1 -1.1794 3.1874591049131373 14.271433893357408 10.795492407311734 0 -1 0
1614 0 2 0.5897 5.858206649218535 14.594954171331102 9.042475579054216 0 1 0
258 0 2 0.5897 5.893353648556527 13.654203653369144 11.783846162295351 0 2 6
256 0 1 -1.1794 5.809149710682255 14.394920669694937 12.309055729309081 0 2 6
1275 0 2 0.5897 3.348581201957556 15.90085631056504 11.763517606315204 0 0 -1
1001 0 2 0.5897 1.1161759661855735 14.659567403235203 11.023541874373043 1 0 0
921 0 2 0.5897 10.934780010094716 12.526336480995305 8.457100672977226 0 0 0
719 0 2 0.5897 7.732692585096456 12.427227554606954 8.967737914081367 0 -1 1
660 0 2 0.5897 10.285344665430461 14.587453177584605 8.85767719497968 0 1 -2
375 0 2 0.5897 11.586395164668987 14.660154634897138 10.484992232783428 0 -1 0
1057 0 1 -1.1794 7.403405548120503 14.169714132864621 9.44671142746063 0 -1 -1
1059 0 2 0.5897 7.6128357011672 14.476153157493137 10.329500334297725 0 -1 -1
1058 0 2 0.5897 8.211202666178245 14.317675897281363 8.99178864128032 0 -1 -1
426 0 2 0.5897 8.330088601712998 12.650076458768702 12.399965862034119 0 0 1
1199 0 2 0.5897 9.675252392000678 14.739365883680524 11.369534854016818 0 -3 0
1198 0 1 -1.1794 9.075561841820093 14.376033511281484 12.014634101311422 0 -3 0
373 0 1 -1.1794 11.02298567724472 15.36680558846943 10.163171710941882 0 -1 0
1160 0 2 0.5897 12.232994985921888 12.778969898622845 11.369726622638112 0 -4 1
374 0 2 0.5897 11.601923081795556 15.999491192853819 9.785851460217097 0 -1 0
1881 0 2 0.5897 6.0985797110809665 16.227228883224456 11.412044484196592 0 1 0
545 0 2 0.5897 1.9774458618989958 16.170279615575794 8.50349836253055 0 0 0
2038 0 1 -1.1794 6.106012549423122 19.834461387995418 12.240924905405183 0 -1 0
2009 0 2 0.5897 4.323500710990572 19.157504990709143 11.92269662580609 1 -1 0
570 0 2 0.5897 4.930421103024665 18.297991005063388 8.349637457715488 0 -1 1
568 0 1 -1.1794 4.695554118032728 18.459882114514624 9.333742140444665 0 -1 1
569 0 2 0.5897 4.95850730358714 19.382110124401724 9.383939772012951 0 -1 1
1129 0 1 -1.1794 2.092837048792938 17.844492220535447 9.46383298818777 0 1 -1
1131 0 2 0.5897 2.97745133507642 18.06953123930639 9.824966456120322 0 1 -1
1274 0 2 0.5897 3.351000475979398 17.32418896489417 12.068346010816057 0 0 -1
1880 0 2 0.5897 5.697804623387663 17.455771883549392 10.466455948797865 0 1 0
1879 0 1 -1.1794 6.3243920371408695 17.13154824556074 11.158765767614328 0 1 0
2008 0 1 -1.1794 3.335744738905359 19.143375518295155 11.91471950899396 1 -1 0
1273 0 1 -1.1794 3.4510869096280006 16.478826399443776 12.510929480482584 0 0 -1
1130 0 2 0.5897 1.439632539318167 18.077699878012154 10.150024438286355 0 1 -1
914 0 2 0.5897 8.655101417636102 17.790849498930616 9.538909743284801 0 2 0
913 0 1 -1.1794 8.609634891821404 18.34680232508733 10.342111705028948 0 2 0
1089 0 2 0.5897 8.265191107316314 19.970726171893883 10.019841335280901 0 -2 -1
915 0 2 0.5897 7.847876705994166 17.916540870028886 10.852924454837234 0 2 0
893 0 2 0.5897 11.795179013000885 18.309098092328018 11.17639168182992 0 0 0
894 0 2 0.5897 10.286285569940622 18.18936558998299 11.101117564562959 0 1 0
892 0 1 -1.1794 11.00450654607398 18.46745985484342 11.605291409891523 0 0 0
1231 0 1 -1.1794 4.807358067786221 2.3272742023412736 13.392661940927315 1 0 0
508 0 1 -1.1794 1.8586887075121394 2.6681386351785163 14.144309120379694 0 -1 -1
1232 0 2 0.5897 3.842892018864193 2.488965208743445 13.433757421828771 1 0 0
510 0 2 0.5897 2.0316363382663982 3.203841938565407 14.953742288205715 0 -1 -1
509 0 2 0.5897 1.8981640789300709 1.7207261001996943 14.453735838765734 0 -1 -1
326 0 2 0.5897 5.21918166821555 1.3346480422287903 14.864091502640896 0 0 0
325 0 1 -1.1794 5.3161265297692815 1.1502062981574401 15.833742668382135 0 0 0
1844 0 2 0.5897 5.957370319167361 3.561313506358191 14.274090090685895 0 3 -1
1843 0 1 -1.1794 6.564173083120413 3.973394243672201 14.925183824421465 0 3 -1
327 0 2 0.5897 5.098350086738392 0.22296844217333892 15.968664259222836 0 0 0
1676 0 2 0.5897 11.7872643813625 2.0271323565252373 12.618403788679192 0 0 1
1139 0 2 0.5897 8.382584395553614 1.4440526860267968 13.656605386424927 0 1 -1
32 0 2 0.5897 9.493306535874583 3.7321220689170866 12.740453907197615 0 0 0
1138 0 1 -1.1794 8.333561080497503 0.619675883656674 14.115364489048984 0 1 -1
767 0 2 0.5897 10.771063964831617 1.8594719777144242 15.065863841619763 0 1 1
766 0 1 -1.1794 10.867825603320698 2.8083393657588207 15.243507362451787 0 1 1
768 0 2 0.5897 11.362166376500475 3.194866976740408 14.526825940484825 0 1 1
1688 0 2 0.5897 7.9986415027884785 3.7235792198011715 16.140781317453886 0 3 -3
1689 0 2 0.5897 9.463109895818793 3.317435589676789 16.130758331812178 0 3 -3
1140 0 2 0.5897 8.043750350007105 0.8815719515234324 15.012089674992323 0 1 -1
1675 0 1 -1.1794 12.10792534955708 2.8724570826900524 12.935262945984327 0 0 1
1777 0 1 -1.1794 1.5505105691852328 6.503765704087302 14.650344196879063 0 0 0
1989 0 2 0.5897 5.365563484656209 4.099601520337564 16.293793980799627 1 0 1
503 0 2 0.5897 2.4551535992802687 6.20291181841251 12.976158697960166 1 0 0
2056 0 1 -1.1794 2.0954766271664957 4.28424776620161 16.129596028826892 0 0 0
1779 0 2 0.5897 1.8302020486773771 6.026507104990822 15.422151627874525 0 0 0
92 0 2 0.5897 4.317605322192456 7.22313386526008 13.424730630950066 0 1 -2
1845 0 2 0.5897 6.6150456319188375 4.894936684033558 14.52427427133151 0 3 -1