LAMMPS data file via write_data, version 23 Jun 2022, timestep = 11447000

2268 atoms
2 atom types

0.8425878723001077 46.608111127665765 xlo xhi
0 20.047001 ylo yhi
0 20.857 zlo zhi

Masses

1 1.008
2 15.999

Atoms # full

1776 0 2 0.5897 4.831441620716779 1.2718196042310461 1.2748081208654338 0 2 0
1533 0 2 0.5897 2.4083491712899745 1.002530137778067 1.8385529932569218 1 0 1
1774 0 1 -1.1794 5.7408495238056645 1.0538510476837974 1.1449365804276694 0 2 0
1531 0 1 -1.1794 3.076685245058883 1.401254556428528 1.2619298124011455 0 0 1
1775 0 2 0.5897 6.228788311047223 0.9726560576175377 2.004831356383878 0 1 0
1785 0 2 0.5897 1.4118168180412067 1.3276861351747304 3.640104042977703 0 0 1
1532 0 2 0.5897 2.831762743874411 2.3149085038534465 1.1276183476505295 0 0 1
581 0 2 0.5897 5.054810091675803 3.6794761482515366 2.8535899870956256 0 -1 2
2067 0 2 0.5897 1.736940987744783 3.435745457994336 3.962070129581421 0 1 0
1783 0 1 -1.1794 1.1401603537611786 0.7389756606323391 2.923232285706594 0 0 1
326 0 2 0.5897 6.144420364840032 2.8499198182242553 0.18450858314675533 0 -1 1
1620 0 2 0.5897 8.724293909075877 1.3472004057012061 1.8053714953108257 0 1 0
1618 0 1 -1.1794 9.318013196389773 1.530247304746836 1.0445332607832976 0 1 0
1619 0 2 0.5897 9.16929402381287 2.469733577611802 0.8158099673307506 0 1 0
2080 0 1 -1.1794 7.66814520826669 0.9126753707839043 3.176854362310986 0 1 -1
2081 0 2 0.5897 7.956943685985661 1.544391899354325 3.8343773935912773 0 1 -1
12 0 2 0.5897 11.209377113210753 1.1068011633908175 1.200386443649428 0 1 0
1326 0 2 0.5897 11.342795054311205 3.3992074275764796 3.3355180538551936 0 -2 1
2159 0 2 0.5897 11.000785219161104 0.6415069996746798 3.578552448012784 0 1 1
1324 0 1 -1.1794 11.297678384861392 2.681108065521665 3.973109876368554 0 -2 1
10 0 1 -1.1794 12.08231960428067 0.7193019844973784 1.084769887281398 0 1 0
1325 0 2 0.5897 12.233793981855962 2.3675910252946353 3.9959264978344224 0 -2 1
1555 0 1 -1.1794 3.169561409284056 4.169399596920242 0.5503913642676611 0 0 1
1557 0 2 0.5897 3.9623199354670424 4.472533756389145 0.9813315263982378 0 0 1
582 0 2 0.5897 6.215077540651392 4.461884994390109 2.197925759324028 0 -1 2
580 0 1 -1.1794 5.249776169295966 4.403042757095656 2.191927146291677 0 -1 2
1593 0 2 0.5897 1.8631033658346958 4.562824758069178 1.727623643222454 0 0 -1
1562 0 2 0.5897 4.41215401332831 5.984920689370247 3.4208235947378443 0 0 0
597 0 2 0.5897 5.837941220425039 6.942834854065352 0.41235129480987165 0 1 2
595 0 1 -1.1794 5.806529053308907 7.76579913399073 1.0652201619569615 0 1 2
1592 0 2 0.5897 1.47083204299744 5.722338935983318 2.7441080484921 0 0 -1
1576 0 1 -1.1794 1.203443732051063 7.509507431280384 2.9799980493812983 0 2 -1
1591 0 1 -1.1794 1.4445095933772145 4.75585085970721 2.58919817470409 0 0 -1
1577 0 2 0.5897 1.894177016954046 7.878781893675706 2.463789041927381 0 2 -1
1561 0 1 -1.1794 4.145391412150531 6.798870427099809 3.8407233870459265 0 0 0
2087 0 2 0.5897 8.172893880144432 4.4667999998480665 3.300132312941638 0 1 0
1315 0 1 -1.1794 9.439208195408616 4.144684213712473 0.34755114752072264 0 0 -2
1317 0 2 0.5897 8.715482191311548 4.297482234344364 0.9903289211516505 0 0 -2
857 0 2 0.5897 10.978218912102443 4.517666324381376 1.1271066793295477 0 0 -1
856 0 1 -1.1794 11.670801202406379 4.657939595726048 1.7750179351221103 0 0 -1
624 0 2 0.5897 7.297269908662986 7.527005455601214 1.9027991722715074 0 1 1
2086 0 1 -1.1794 7.792974797196041 4.831664172244423 2.5258955579202267 0 1 0
2088 0 2 0.5897 8.037501599319391 5.72865903367029 2.563394541610079 0 1 0
854 0 2 0.5897 11.229391996879064 5.994597933062987 2.746607756129473 0 0 0
622 0 1 -1.1794 8.12585677947553 7.431281067684326 2.454242742139052 0 1 1
623 0 2 0.5897 8.821832601110753 7.624831458058324 1.7810416418056105 0 1 1
855 0 2 0.5897 11.098962267510563 7.329463189276924 3.5731171243576405 0 0 0
853 0 1 -1.1794 11.067447614439788 6.374300927398314 3.674988782392396 0 0 0
337 0 1 -1.1794 12.283053487883908 7.345674791407177 0.22452850608745736 0 -1 0
1583 0 2 0.5897 4.013490752174027 8.027891650001216 1.1269468150997388 0 0 0
596 0 2 0.5897 6.006824205399381 8.480775361172233 0.4507446181635069 0 1 1
1582 0 1 -1.1794 3.045995494114015 8.159150677535635 1.0668739596773624 0 0 0
1782 0 2 0.5897 4.457743401191644 10.630313057036751 3.2102994961709825 0 -1 -1
1780 0 1 -1.1794 4.846979932717798 11.272405496638735 2.6299129672256965 0 -1 -1
99 0 2 0.5897 3.8549316459925307 11.10090218051331 1.0761051962257784 0 1 0
20 0 2 0.5897 1.6373148415640948 10.884050378447169 1.9814279788227642 0 -1 0
1781 0 2 0.5897 5.777339452371724 11.213213131677907 2.8967407068780364 0 -1 -1
97 0 1 -1.1794 2.9604832360866515 10.926208955007388 0.692539670839393 0 1 0
1584 0 2 0.5897 2.947253765519967 9.073489798191959 0.8591279951725583 0 0 0
21 0 2 0.5897 1.2634504715096777 10.486344385193611 3.4472320791036464 1 -1 0
19 0 1 -1.1794 0.9933961791497187 11.113743964633688 2.6897786285448104 0 -1 0
2145 0 2 0.5897 10.510180426405775 8.084394791048446 0.49501823638193504 0 1 1
2143 0 1 -1.1794 9.595745439304702 8.219510127019873 0.32276354995378004 0 1 1
389 0 2 0.5897 8.07625016530335 10.762336189197958 3.1317554404694805 0 -1 0
390 0 2 0.5897 8.142222486997346 11.36994497715253 1.7480500410388857 0 -1 0
1539 0 2 0.5897 10.09757469973716 11.082283181302165 0.7070102967665447 0 1 -1
1537 0 1 -1.1794 9.236095222624146 10.955850055014338 0.26503869814593795 0 1 -1
388 0 1 -1.1794 7.628840870558296 11.400842359849499 2.609527243963825 0 -1 0
2025 0 2 0.5897 10.981688774489877 9.808911884581812 3.2389104445887846 0 2 -1
2144 0 2 0.5897 9.52879286292052 9.166252668606091 0.32044817966214995 0 1 1
2074 0 1 -1.1794 11.158998861625367 11.167790049477313 1.942651855081566 0 0 1
2076 0 2 0.5897 11.252501421606205 11.852473211714752 2.625260521148295 0 0 1
2075 0 2 0.5897 12.121075363210158 10.882991068701951 1.7749032656842212 0 0 1
2023 0 1 -1.1794 10.993009516859365 9.128611682016237 3.9056515782787247 0 2 -1
534 0 2 0.5897 7.999884734349565 8.806409275648416 3.9083916300548434 0 -1 1
2073 0 2 0.5897 4.599505294174234 13.358735035493268 3.2887624390947137 0 -2 0
134 0 2 0.5897 1.9302044706957957 14.053094781406106 1.834091020527761 0 0 0
53 0 2 0.5897 3.982617432848907 14.660946899514116 1.091947335843331 0 -1 0
52 0 1 -1.1794 3.056627460424998 14.70833666258754 0.7761487595959415 0 -1 0
524 0 2 0.5897 5.833302782387975 13.914630285483089 0.6871164685014091 0 1 0
523 0 1 -1.1794 5.699919589921232 14.519319513424536 1.4505025602032815 0 1 0
54 0 2 0.5897 2.862400625759514 15.644114983205133 0.5240270937378021 0 -1 0
133 0 1 -1.1794 1.2169725438327035 13.763726476460757 2.424331252398111 0 0 0
135 0 2 0.5897 1.2421496739233864 12.829054251602752 2.6495254966912754 0 0 0
525 0 2 0.5897 6.538806378791244 14.37087631431184 1.9672728152715087 0 1 0
629 0 2 0.5897 1.4530380049815754 14.909452437655988 3.7073385491287265 0 0 0
628 0 1 -1.1794 1.8296450568955214 15.712849589525625 4.157515861768368 0 0 0
630 0 2 0.5897 2.771420926833705 15.695460320845694 4.150809688225191 0 0 0
1025 0 2 0.5897 5.866785959295773 15.828811929683482 0.2903944889994518 0 -1 1
1304 0 2 0.5897 8.50370397713948 14.088708910646359 2.5225988506012555 0 0 0
1303 0 1 -1.1794 7.738560660099425 13.899228571569948 3.0989300559747037 0 0 0
1305 0 2 0.5897 7.652408206498429 12.954368524970334 2.96690927231096 0 0 0
1335 0 2 0.5897 10.464437052914585 14.32743521604823 1.443334221602988 0 -2 2
1333 0 1 -1.1794 9.533327607715648 14.548183129839643 1.2222765716836594 0 -2 2
1334 0 2 0.5897 9.415226860778986 15.528324858900827 1.1963712021545418 0 -2 2
818 0 2 0.5897 8.16526905343846 15.30795843581951 4.122715641358601 0 1 -1
42 0 2 0.5897 11.07236355129575 14.061314907999144 3.976644248444657 0 1 1
40 0 1 -1.1794 11.101439531454822 13.09042961333852 3.8800098582001645 0 1 1
383 0 2 0.5897 4.859120526984218 19.26617291092973 3.4948508762773876 0 0 0
1825 0 1 -1.1794 5.219768698978938 18.05974060977632 2.3397784879122967 0 0 0
1827 0 2 0.5897 4.7564014718695855 17.82443260149294 1.5396010380360035 0 0 0
1826 0 2 0.5897 4.925845659716367 17.34653916105192 2.9408301928179803 0 0 0
1077 0 2 0.5897 2.385075282041594 17.71874147467639 1.512621007074614 0 -1 1
1075 0 1 -1.1794 3.012415095726053 17.538723186126827 0.7733403295463552 0 -1 1
103 0 1 -1.1794 1.3130800613655293 18.109664305457294 2.7868383225113966 0 0 1
104 0 2 0.5897 1.2885952866070438 17.224068827328995 3.232344456577332 0 0 1
1784 0 2 0.5897 1.2969557018544704 19.911087558890763 3.343179578131495 1 -1 1
1076 0 2 0.5897 2.7942004389880615 18.227881497438197 0.09137382428879273 0 -1 1
23 0 2 0.5897 5.799591145166196 19.646772284925063 0.0591736642929755 0 0 2
1100 0 2 0.5897 6.7551298146813545 18.25966445208575 2.6292396860164966 0 0 1
2082 0 2 0.5897 7.937680827156046 20.03014914803978 3.301562813546615 0 0 -1
2160 0 2 0.5897 11.417251231544828 19.200342844098945 3.4040973851693668 0 0 1
2061 0 2 0.5897 11.887672798091105 16.866316077538485 3.077994726447715 0 0 -1
1099 0 1 -1.1794 7.738330793523433 18.33645163678929 2.8012117036110626 0 0 1
1101 0 2 0.5897 7.999518547470665 17.63968131386159 3.404905868265064 0 0 1
2060 0 2 0.5897 11.408359186453556 17.576220163878403 1.784209744906141 0 0 -1
1885 0 1 -1.1794 9.64763370044142 17.260855937917906 1.0429769456539397 0 -2 -1
1886 0 2 0.5897 9.143710235356265 17.735549923938812 1.7328362722723902 0 -2 -1
2059 0 1 -1.1794 12.053087743535384 17.680720949861946 2.5863554821471633 0 0 -1
2158 0 1 -1.1794 11.157678839255848 19.90716983322433 4.042582005235375 0 0 1
1887 0 2 0.5897 9.278986674230058 17.60083341289501 0.20113065683920645 0 -2 -1
371 0 2 0.5897 4.960994030667515 1.6482338271243078 4.287572985817343 0 -1 1
370 0 1 -1.1794 4.793720412768591 2.59913888840387 4.2511768440697875 0 -1 1
372 0 2 0.5897 3.8371320800129354 2.7677970381146233 4.388231050553423 0 -1 1
2065 0 1 -1.1794 2.116426424502715 2.8920763087952306 4.678329555318982 0 1 0
276 0 2 0.5897 5.740989235717662 3.4681514735089163 5.476137699514095 0 0 1
1395 0 2 0.5897 3.0229154229254007 3.4916182319450533 7.648635665465232 0 1 2
1624 0 1 -1.1794 3.0846955976322983 1.4895589906553697 7.590503457050696 0 0 0
296 0 2 0.5897 6.202538961284871 2.5217689843421076 7.940700814228304 0 1 0
274 0 1 -1.1794 6.26360756876402 3.539091234749416 6.304285682193486 0 0 1
1626 0 2 0.5897 3.9293290184699807 1.4583867175341034 8.057311113307403 0 0 0
513 0 2 0.5897 2.320983065705329 0.44459328728732184 6.167427879481532 0 0 -1
1625 0 2 0.5897 2.3865266790348203 1.3396273062346087 8.273810598869158 0 0 0
2066 0 2 0.5897 1.5948125839980891 3.2683711815626637 5.459757238831003 0 1 0
2097 0 2 0.5897 6.297010911579876 0.47115476469621737 7.198906028911307 0 0 1
2096 0 2 0.5897 5.704915505603582 0.0817240695306022 5.785694121065356 0 0 1
1639 0 1 -1.1794 8.601674249466258 3.121222920359711 4.583461416431311 0 0 0
1640 0 2 0.5897 9.558935638956209 3.2181380549048764 4.835047573820832 0 0 0
25 0 1 -1.1794 9.797360525076915 1.5491769031147589 7.7304090559355885 0 1 1
1641 0 2 0.5897 8.041405282188192 3.181223441061562 5.391960522695103 0 0 0
1151 0 2 0.5897 9.45654213775593 3.191714161960886 7.398059649930488 0 1 1
27 0 2 0.5897 9.556679205545985 0.8443535431161527 7.128010062636441 0 1 1
785 0 2 0.5897 11.434151721754752 1.3247106628217893 8.20405699546337 0 -1 1
1393 0 1 -1.1794 2.7553784187682426 4.424193075854416 7.72792507732282 0 1 2
275 0 2 0.5897 6.215067648837564 4.521894853161007 6.373058576377935 0 0 1
1563 0 2 0.5897 3.509625414490368 6.540183099665372 4.540194192308544 0 0 0
1863 0 2 0.5897 5.528604375873679 6.637564436816905 5.0830084676514105 0 0 -1
30 0 2 0.5897 2.7725705262154863 5.715725489139653 6.567996715840438 0 0 1
28 0 1 -1.1794 2.474483477864285 6.2895270344022824 5.838824353807781 0 0 1
1347 0 2 0.5897 5.717235819326612 7.256876689404845 7.445265318296273 0 -1 0
29 0 2 0.5897 1.554408062326893 6.097452069345075 5.885312092109297 0 0 1
1861 0 1 -1.1794 6.214094835160321 6.50665165532948 5.743694384658409 0 0 -1
2018 0 2 0.5897 2.3884402920046446 7.741383077251491 6.953593148627361 1 -1 0
1346 0 2 0.5897 4.393590993824143 7.798708989589006 7.9344358101076535 0 -1 0
1345 0 1 -1.1794 5.335686582378566 7.991466237877509 7.938348692589893 0 -1 0
1150 0 1 -1.1794 9.37322424169769 4.1219710245045365 7.259334738449424 0 1 1
1152 0 2 0.5897 10.080423212234699 4.468288324123089 7.805269005510108 0 1 1
1874 0 2 0.5897 9.612101335672318 6.375422130915279 4.72748617529279 0 0 0
1862 0 2 0.5897 7.138003215515453 6.554497395595712 5.361106583125862 0 0 -1
1875 0 2 0.5897 9.045919507065788 5.3740633254838315 5.707512327714778 0 0 0
1873 0 1 -1.1794 8.82536921480812 6.254421929541952 5.362013175332072 0 0 0
1143 0 2 0.5897 8.922219975986117 7.458872568581408 6.7387419465584575 0 1 0
1546 0 1 -1.1794 12.185300738721436 7.948306671018496 7.316855219355586 0 1 -1
1547 0 2 0.5897 11.244703649645103 7.956709653819392 7.506628627479742 0 1 -1
1142 0 2 0.5897 8.646557669624858 7.894075146272305 8.181901527528739 0 1 0
1097 0 2 0.5897 8.094151143102495 4.566781312058081 8.331263053011646 0 0 2
759 0 2 0.5897 4.488288946365486 8.57632005307061 4.332142666415756 0 -1 0
1343 0 2 0.5897 1.5810896663351826 8.695062072084333 4.295476273011994 0 0 -1
757 0 1 -1.1794 4.292814885980233 9.45228303145489 4.728687544004935 0 -1 0
2017 0 1 -1.1794 2.642368899924749 8.13408240659802 7.74470298038515 0 -1 0
1344 0 2 0.5897 2.5669275558106652 9.769121614236003 4.730206335501553 0 0 -1
1342 0 1 -1.1794 1.5999851627138764 9.582740171061195 4.692484425466066 0 0 -1
758 0 2 0.5897 4.960513019095182 9.515973471294393 5.399372628727736 0 -1 0
2019 0 2 0.5897 2.809905358493607 9.073397191955928 7.465473074900058 0 -1 0
1600 0 1 -1.1794 2.8096030147197437 10.922591121162029 7.4812185899744845 0 -1 0
1601 0 2 0.5897 3.54581954567682 11.345725063185455 7.996097116857475 0 -1 0
1602 0 2 0.5897 2.073064625951378 10.944285685431659 8.16373768149201 0 -1 0
1565 0 2 0.5897 6.26221209914653 9.644711047378893 7.411675068117973 0 -1 1
1564 0 1 -1.1794 6.306288468150576 10.099127513697841 6.5693683724970215 0 -1 1
2240 0 2 0.5897 6.141601806732732 11.778337618048564 6.261982644470398 1 0 1
1141 0 1 -1.1794 9.16633391237708 8.097352142311642 7.3977871913886295 0 1 0
532 0 1 -1.1794 8.331097483175068 9.247582210836159 4.699002955394599 0 -1 1
533 0 2 0.5897 9.31542364793444 9.319520121320052 4.6277340270789 0 -1 1
2024 0 2 0.5897 11.511202963189902 9.597418471491586 4.557249293702976 0 2 -1
1566 0 2 0.5897 7.025285595662969 9.687532196895368 6.071428805558071 0 -1 1
1596 0 2 0.5897 9.200193713399774 9.886489454888642 7.515036599697836 0 0 1
1594 0 1 -1.1794 9.408960770895193 10.8468206328538 7.659424464949709 0 0 1
1595 0 2 0.5897 9.288260423006166 11.299983355865226 6.843579068918661 0 0 1
2071 0 1 -1.1794 4.345534626650316 13.660704706340654 4.181603846671426 0 -2 0
1293 0 2 0.5897 2.552422291226277 12.399760205811248 6.275272400079525 0 -2 0
1386 0 2 0.5897 4.886350520534648 15.410841332740622 4.306819339665908 0 0 0
2072 0 2 0.5897 3.4501821358392633 13.414267528166459 4.413902939046978 0 -1 0
1291 0 1 -1.1794 2.3171466420119344 13.206131516975319 5.89785485597865 0 -2 0
2241 0 2 0.5897 5.647774944659276 12.99695920736067 5.314758194407223 1 0 1
1277 0 2 0.5897 2.512534747819286 14.495496920872531 7.039091392552688 0 -1 -1
1340 0 2 0.5897 5.787983136534418 14.105287706147747 7.16101933023935 0 -1 0
1276 0 1 -1.1794 2.89727675821864 15.126280751349878 7.693326935648217 0 -1 -1
1292 0 2 0.5897 1.3312418471262015 13.194606391158056 5.919877090224741 0 -2 0
1341 0 2 0.5897 4.526170789838874 14.818346836679307 7.760017453118546 0 -1 0
1339 0 1 -1.1794 5.543305172596812 14.878701938642086 7.74575086169424 0 -1 0
2239 0 1 -1.1794 6.281040174753469 12.684102895566687 5.951376279346192 1 0 1
1369 0 1 -1.1794 11.672981104621776 14.813332216444513 8.17473608923122 0 0 0
1072 0 1 -1.1794 11.256654291242949 15.765921123846253 4.474103215408052 0 0 0
41 0 2 0.5897 10.401276823624116 12.833367325280824 4.454482493611065 0 1 1
294 0 2 0.5897 8.022595157856994 12.648608267641844 5.471772039116675 0 -1 -2
292 0 1 -1.1794 9.02371679470751 12.565955347735649 5.670073127556228 0 -1 -1
293 0 2 0.5897 9.179917575106458 13.264391242646969 6.30704742270756 0 -1 -1
860 0 2 0.5897 8.901526689433894 15.391374177782513 7.370250948619266 0 1 1
859 0 1 -1.1794 8.98581779014149 14.472375184960706 7.721299499435728 0 1 1
1074 0 2 0.5897 11.637326087608892 15.834617020862977 5.364140370380442 0 0 0
1384 0 1 -1.1794 4.692842298604302 16.372935957691436 4.414390448665465 0 0 0
382 0 1 -1.1794 4.76158477576417 19.85128352793019 4.2660400963136835 0 0 0
1278 0 2 0.5897 2.994221748943801 16.04453663039757 7.353410031867778 0 -1 -1
1065 0 2 0.5897 6.218771046533535 16.493849510562455 7.13390763431462 0 -1 -1
1385 0 2 0.5897 5.351801180181489 16.782798189655793 5.102553239017442 0 0 0
384 0 2 0.5897 3.791379291522129 19.758225389675182 4.594271199440345 0 0 0
511 0 1 -1.1794 2.228776260904251 19.750035293011095 5.526786630052576 0 -1 -1
512 0 2 0.5897 1.3040137262505225 19.512328030586634 5.629549734428799 0 -1 -1
342 0 2 0.5897 3.114382594609692 18.179194970674402 6.416260945694224 0 -2 1
340 0 1 -1.1794 3.3255355435933103 17.654775878089826 7.1986148874251485 0 -2 1
341 0 2 0.5897 4.232296153256408 17.807763163369746 7.500273827991529 0 -2 1
1064 0 2 0.5897 6.417832894666281 18.060446269890374 6.59901153925436 0 -1 -1
2095 0 1 -1.1794 6.34431961483927 19.82728734514882 6.475628933271311 0 -1 1
1063 0 1 -1.1794 6.533099999450584 17.10865114878312 6.436220075272619 0 -1 -1
224 0 2 0.5897 0.9896689882469278 16.125223136654192 5.756068935346968 1 -1 0
817 0 1 -1.1794 8.4668812501814 16.14265138827124 4.524008956868937 0 1 -1
819 0 2 0.5897 7.814263348717133 16.336491431294643 5.255443140442269 0 1 -1
1073 0 2 0.5897 10.304935577049612 16.101706407200194 4.494280607565223 0 0 0
1263 0 2 0.5897 9.48242205596908 19.59904183137715 5.087949938768058 0 -2 1
1262 0 2 0.5897 8.104677754949492 19.671241108584656 5.834452548404553 0 -1 0
1261 0 1 -1.1794 9.029364172733677 19.58394258933216 5.935175296511824 0 -2 0
17 0 2 0.5897 9.244561633893804 18.1956905282225 6.966604889883523 0 -1 0
16 0 1 -1.1794 9.521039152124397 17.374129193464757 7.426103322879053 0 -1 0
18 0 2 0.5897 10.251847792329272 17.581063384140997 7.9936400167536545 0 -1 0
705 0 2 0.5897 12.173995482220016 19.50824959456728 5.552877073398012 0 0 0
683 0 2 0.5897 12.190310031584884 16.299696738401604 7.458175459714423 0 0 0
305 0 2 0.5897 1.06706449681336 3.1941486744050134 12.418092995666631 0 1 0
295 0 1 -1.1794 5.904441990097008 1.713226165003103 8.395239740178539 0 1 0
781 0 1 -1.1794 1.1194481347927616 0.9316849632466777 9.604509027195897 0 0 0
782 0 2 0.5897 1.1000330950561916 1.6316452119450953 10.263166989589655 0 0 0
304 0 1 -1.1794 1.5631912231073297 2.8522091415401976 11.608278518093202 0 1 0
877 0 1 -1.1794 4.304731543321713 2.8805731199860913 11.521149328697582 0 0 0
306 0 2 0.5897 2.532015936460259 2.859177876813548 11.820568124101612 0 1 0
1089 0 2 0.5897 4.177297569296387 1.2260685177815793 10.957301150209835 0 -1 -1
879 0 2 0.5897 5.073602915482168 2.8666369457522873 12.082854647131919 0 0 0
878 0 2 0.5897 4.484879680419283 3.3710843369073547 10.683044503773083 0 0 0
1087 0 1 -1.1794 4.374362143084921 0.2758132105267446 11.02396933057105 0 -1 -1
1088 0 2 0.5897 4.935732545543151 0.2885073879289418 11.770578783195388 0 -1 -1
297 0 2 0.5897 6.712603107634527 1.507128125169007 8.981753485957427 0 1 0
26 0 2 0.5897 9.218346485713466 1.2394776966908017 8.478846694223877 0 1 1
75 0 2 0.5897 8.225634040707895 1.3379162136032385 10.460891255017655 0 0 -2
1108 0 1 -1.1794 8.06955726558968 2.936060447957363 11.109741995733835 0 -1 1
1321 0 1 -1.1794 10.957861895531181 2.9264648339107144 11.035583327655386 0 0 0
1323 0 2 0.5897 9.957898677898 3.023556956478694 11.01658031311081 0 -1 0
73 0 1 -1.1794 8.03892966052053 0.7211825243338944 9.707677298917073 0 0 -2
168 0 2 0.5897 11.100167632446052 1.0952483161614675 10.969221437559698 0 0 0
1110 0 2 0.5897 7.533940067422646 3.126791102167342 11.924484341048474 0 -1 1
1109 0 2 0.5897 7.871253845715579 3.626888171640352 10.455600758972269 0 -1 1
1322 0 2 0.5897 11.404002075874432 3.3191498197791303 11.844829963837707 0 0 0
78 0 2 0.5897 11.523745985751699 3.9495732731560715 9.542770814864621 0 -1 0
166 0 1 -1.1794 10.939723416193678 0.13951181904648347 11.12135938401966 0 0 0
167 0 2 0.5897 10.103261129390289 0.028868418139457043 11.631668851116581 0 0 0
1394 0 2 0.5897 2.254122300952985 4.686995182196528 8.537352701590157 0 1 2
527 0 2 0.5897 4.137622418285336 4.824406246790614 8.600580916797792 0 1 0
335 0 2 0.5897 1.3024232314367339 4.334245067196139 10.313338975663351 0 0 1
528 0 2 0.5897 5.653759252854794 4.8245655615824345 9.012315539174391 0 1 0
526 0 1 -1.1794 4.760620461127391 4.62159424086208 9.318177244280106 0 1 0
230 0 2 0.5897 4.590871409518318 6.2952703199041276 10.222768285765229 1 0 -1
229 0 1 -1.1794 4.874058546564479 6.944096236986856 10.847058751240546 1 0 -1
231 0 2 0.5897 4.766851974913241 7.860618599053496 10.4921377349223 1 0 -1
5 0 2 0.5897 3.2247007548053603 6.678124259374514 12.115564923225072 0 0 1
118 0 1 -1.1794 1.1596569004666724 7.758886992583073 9.979568989340313 0 -1 0
120 0 2 0.5897 1.6688061957566382 7.883730308817478 9.176614848217845 0 -1 0
116 0 2 0.5897 5.783111080865133 6.255966943213647 12.336799425300294 0 0 0
334 0 1 -1.1794 1.0209963603569012 5.1040001237373875 9.68003392867348 0 0 1
336 0 2 0.5897 0.9103277518287799 5.919593972190794 10.217380381512864 0 0 1
1035 0 2 0.5897 6.803515861766746 7.54520076364084 9.33358607092624 0 -2 0
76 0 1 -1.1794 11.652230166785099 4.792580082096662 9.116473365120111 0 -1 0
1096 0 1 -1.1794 7.473393770583385 4.885797612988424 9.040352016446153 0 0 2
1045 0 1 -1.1794 11.36124476578087 6.694371432103486 11.178793503277253 0 0 1
1047 0 2 0.5897 11.665517317174139 6.211434114009598 10.368643199254036 0 0 1
1098 0 2 0.5897 7.805732962918117 5.848527435912638 9.204521421182728 0 0 2
894 0 2 0.5897 9.872987289896487 6.146443903460483 12.065233577053394 0 1 0
1033 0 1 -1.1794 7.71138441977995 7.431168742914127 9.632864892596666 0 -2 0
1046 0 2 0.5897 12.110033146914315 6.722701878619576 11.774138386734554 0 0 1
119 0 2 0.5897 1.3713597281432475 8.481867161169447 10.57903370171699 0 -1 0
1079 0 2 0.5897 4.825262594229917 10.813334668705464 9.895068640213617 0 -1 -1
1348 0 1 -1.1794 4.238944502404102 9.753096703442026 11.239348864356792 0 -1 -2
583 0 1 -1.1794 1.7227773017319992 9.866793030548122 11.584014291189108 0 0 -1
1349 0 2 0.5897 3.3269152952476526 9.782690346340457 11.538918511696945 0 -1 -2
1078 0 1 -1.1794 5.004359373815472 11.511789514558401 9.241515540190994 0 -1 -1
585 0 2 0.5897 1.411701409042657 10.565419267939344 11.007662575664435 0 0 -1
1350 0 2 0.5897 4.759851960693984 9.69806889304274 12.054343624533704 0 -1 -2
1080 0 2 0.5897 5.9736106478958995 11.630520240320664 9.260881113434012 0 -1 -1
1042 0 1 -1.1794 0.9825848998820774 11.74799924202016 9.594834403966686 0 0 0
584 0 2 0.5897 1.0910672148854768 9.882827548621892 12.366956152275998 0 0 -1
1034 0 2 0.5897 7.9767056856186525 8.2239822460595 10.1693399302291 0 -2 0
1631 0 2 0.5897 11.063126221568142 8.642826603002463 10.994512265049716 0 0 0
252 0 2 0.5897 11.102830425242058 11.25984458701352 8.347033279741838 1 -1 -1
1632 0 2 0.5897 11.03951503023631 10.043895560127984 10.357888610934124 0 0 0
2040 0 2 0.5897 7.8645388502596845 10.248061303098291 10.71426016462877 0 0 0
2038 0 1 -1.1794 8.155661599071628 9.43282869102067 11.151039158650278 0 0 0
2039 0 2 0.5897 9.151002930988795 9.554187082907939 11.255841617921284 0 0 0
1630 0 1 -1.1794 10.827585401929058 9.539747537007491 11.132534119249035 0 0 1
360 0 2 0.5897 8.35978764158832 11.486471268395569 8.946809483721038 0 1 0
358 0 1 -1.1794 7.732963676283336 11.689268214105075 9.64841951478258 0 1 0
250 0 1 -1.1794 11.630077292410922 11.33179309083949 9.193385725903036 1 -1 -1
86 0 2 0.5897 4.593013342056343 12.925082462596734 10.545763950605949 0 -2 1
546 0 2 0.5897 1.7939763750399513 14.81907833765659 9.09017426219183 0 -1 0
85 0 1 -1.1794 4.531767077318857 13.592605790809714 11.221439433900036 0 -2 1
87 0 2 0.5897 4.5732326893254704 14.490248981648472 10.74043797510985 0 -2 1
1028 0 2 0.5897 3.0813829521247844 13.262299087464335 12.117237508881018 0 -1 0
1119 0 2 0.5897 6.0066177461371995 12.88661364727247 11.939375005186161 0 -1 0
544 0 1 -1.1794 1.0783913353084484 14.499022533111347 9.676868033250352 0 -1 0
545 0 2 0.5897 1.2710493382384969 14.94533760755812 10.534523235228662 0 0 0
1043 0 2 0.5897 1.2099871392341162 12.677274518703644 9.824904417173933 0 0 0
1338 0 2 0.5897 6.476554714179046 14.537111382020706 9.406628409293589 0 -1 -1
1371 0 2 0.5897 10.74042886483426 14.652709748063 8.393588043661145 0 0 0
861 0 2 0.5897 8.48989140752453 14.470904389481696 8.550286911567811 0 1 1
1415 0 2 0.5897 11.151902602561353 13.039998852164373 10.360865676537367 0 -1 1
359 0 2 0.5897 7.782585440724247 12.647802120142188 9.897825573708083 0 1 0
1336 0 1 -1.1794 7.142500782972688 14.259085405651419 10.044011835191185 0 -1 -1
1416 0 2 0.5897 10.436299082934234 14.405127634575178 10.881016078507379 0 -1 1
1414 0 1 -1.1794 10.87802391110859 13.579807215395876 11.12222463301581 0 -1 1
1337 0 2 0.5897 7.234430548673379 14.915441070200417 10.74479133496225 0 -1 -1
834 0 2 0.5897 9.748385106056352 12.992573843864603 12.214946938728517 0 0 1
1370 0 2 0.5897 12.232414826204979 14.63544963759181 8.967054855644308 0 0 0
123 0 2 0.5897 3.0199576214340134 19.611152690487064 11.82713102203801 0 -1 -1
1130 0 2 0.5897 1.3051718059683386 16.523384242301503 12.276206223818527 0 1 -1
1129 0 1 -1.1794 1.667498617001617 16.549817890025814 11.356901562375448 0 1 -1
1810 0 1 -1.1794 4.437495650338468 16.301496349576965 10.851899894750565 0 0 -1
1811 0 2 0.5897 3.5010844970366533 16.608708851912112 10.913534215489213 0 0 -1
1812 0 2 0.5897 4.913722627781254 16.792533985096853 10.17788973238314 0 0 -1
1860 0 2 0.5897 2.047554672788319 18.40023716317138 8.428465435471225 0 -1 0
568 0 1 -1.1794 5.423299446850843 18.262985937557875 9.118301312328086 0 -1 1
570 0 2 0.5897 4.922241964730072 18.76974135653361 9.741923963677646 0 -1 1
569 0 2 0.5897 6.366739356491009 18.246199620843395 9.41911989549328 0 -1 1
1131 0 2 0.5897 1.252487437385156 17.342571261137117 11.049244843465678 0 1 -1
1859 0 2 0.5897 1.2202912638381265 19.135414127907048 9.545767369658616 0 -1 0
1858 0 1 -1.1794 1.2936908259127011 18.26268496272601 9.087408581580354 0 -1 0
121 0 1 -1.1794 2.348194175698956 19.64813950001282 12.503651028986143 0 -1 -1
2131 0 1 -1.1794 10.46530952664018 16.165367434292783 11.331950788413673 0 1 0
850 0 1 -1.1794 7.998883046125437 16.165105703504597 11.600313554596221 0 -2 0
2132 0 2 0.5897 11.062576426251464 16.364207571336415 12.06072316799484 0 1 0
851 0 2 0.5897 8.973665856288664 16.163231082984872 11.728397396071292 0 -2 0
852 0 2 0.5897 7.5430029262334735 16.35583026169452 12.429509764694002 0 -1 0
2133 0 2 0.5897 10.844223932834868 16.715108699222146 10.600014476638911 0 1 0
2083 0 1 -1.1794 11.42459763004809 17.994110246567693 9.624602043533775 0 -1 -1
605 0 2 0.5897 8.327144905379132 17.515110054814972 8.98751931718006 0 -1 0
74 0 2 0.5897 8.057047741281137 19.855128615567402 10.066532403033667 0 -1 -2
604 0 1 -1.1794 7.853389758696409 17.96974179114845 9.71009304138721 0 -1 0
606 0 2 0.5897 8.061811727913465 17.47073329337204 10.511810446582981 0 -1 0
2085 0 2 0.5897 11.059382723951686 18.852099413114697 9.963330928564204 0 -1 -1
1649 0 2 0.5897 12.119876737471547 19.778305130414285 12.342779860923288 0 0 0
126 0 2 0.5897 7.920790682358619 19.957259859875307 12.472249044161103 0 -1 0
1231 0 1 -1.1794 2.928028369097129 1.2064026272864634 14.698194429786213 1 0 0
33 0 2 0.5897 4.6146945337729655 1.1915949383769897 15.018690206622102 0 0 1
1233 0 2 0.5897 2.1781796352164746 1.2794471517352457 15.325275865616094 1 0 0
503 0 2 0.5897 2.9530494255173374 2.9696619346007282 13.981957050391113 1 0 0
31 0 1 -1.1794 5.5787003938540485 1.1274291629136977 14.8804417354807 0 0 0
1232 0 2 0.5897 2.66953386431603 0.534376907056337 14.042053399899025 1 0 0
32 0 2 0.5897 5.955828218614896 1.1641192583366125 15.7418222709535 0 0 0
374 0 2 0.5897 6.143867905438217 2.4356666161188016 13.959395071953985 0 0 0
373 0 1 -1.1794 6.4817311475270545 3.085670480775818 13.31905703556513 0 0 0
502 0 1 -1.1794 2.8572102499026046 3.9241581893254116 14.248975298369578 1 0 0
375 0 2 0.5897 6.135493881387409 3.925450970623268 13.723219504397841 0 0 0
508 0 1 -1.1794 0.9256515023104366 0.8698081664579155 16.558572329604615 0 -1 -1
797 0 2 0.5897 4.9392898986311 3.620150358784718 16.519060941132043 0 2 1
50 0 2 0.5897 11.740419322970299 2.1812826578525963 14.58636095617996 0 0 1
1054 0 1 -1.1794 8.980213145949602 1.4457963120587844 14.950744090111238 0 0 1
1055 0 2 0.5897 8.947445866763113 2.413023748617067 14.720633779794067 0 0 1
1056 0 2 0.5897 8.35969403397807 1.199659790059728 15.625255081470044 0 0 1
51 0 2 0.5897 10.779724857833047 1.1706848391367628 15.26762047568625 0 0 1
125 0 2 0.5897 8.98778567375114 0.4210858611183792 13.450236417204083 0 0 0
49 0 1 -1.1794 11.711032693541798 1.3796540955190366 15.128329311466858 0 0 1
1505 0 2 0.5897 1.1266720612947654 6.547656336341657 16.531912536148152 1 0 0
6 0 2 0.5897 1.6846724778941171 6.715797135500117 12.617892406017797 0 0 1
798 0 2 0.5897 4.27431260762044 4.265258217889611 15.300168976414257 0 2 1
796 0 1 -1.1794 5.0663359904263405 4.366499180206007 15.91225225534162 0 2 1
4 0 1 -1.1794 2.6007398511175346 6.3419907491075405 12.815368469906755 0 0 1
1779 0 2 0.5897 1.549334192853117 4.371836687820858 15.496200071232995 0 0 0
504 0 2 0.5897 2.8406023738829056 4.430252349502814 13.464205370043205 1 0 0
93 0 2 0.5897 5.9052955373300975 6.862203134520757 14.583869386239527 0 1 -2
311 0 2 0.5897 3.0184419435531584 7.291471134657056 14.20517468210265 0 0 -1