LAMMPS data file via write_data, version 23 Jun 2022, timestep = 3767000

2268 atoms
2 atom types

0.93543151655334 46.515267483433874 xlo xhi
0 20.047001 ylo yhi
0 20.857 zlo zhi

Masses

1 1.008
2 15.999

Atoms # full

1385 0 2 0.5897 5.042204225906386 0.6537925567672963 2.91978854862599 0 1 0
630 0 2 0.5897 3.0156794375339406 0.5740944408794171 2.1317035632103707 0 1 0
628 0 1 -1.1794 2.004911689761122 0.404045479905213 2.347580758855604 0 1 0
1826 0 2 0.5897 4.534445857391255 1.6540684411591133 0.6689075248340957 0 1 0
104 0 2 0.5897 1.3648291781976643 1.6200585234173934 1.2095885535525357 0 1 1
383 0 2 0.5897 4.5326736623030595 3.6806442458197344 1.5701582082452474 0 1 0
2096 0 2 0.5897 5.628739009401121 3.8135540118780935 3.593299085954579 0 0 1
1100 0 2 0.5897 6.4696935610112245 2.1358662305747838 0.21591648707847297 0 1 1
1825 0 1 -1.1794 4.636724784774003 2.5248474864832393 0.2925228919969378 0 1 0
1384 0 1 -1.1794 4.76529208098124 0.49163659787717995 2.0262035367892333 0 1 0
103 0 1 -1.1794 1.1244945516431508 2.282897755711448 0.5320908239377368 0 1 1
1101 0 2 0.5897 7.513632570686675 1.5920388025056258 1.2541784163533385 0 1 1
1099 0 1 -1.1794 7.371503022589538 2.2081419749829565 0.5558185964541511 0 1 1
818 0 2 0.5897 8.98215434356032 0.888560269400623 3.3953884855116594 0 2 -1
1073 0 2 0.5897 11.101948661724053 2.3016986872376735 1.7651063623174414 0 1 0
819 0 2 0.5897 7.415328212798902 0.8711058089384328 3.5342664627097378 0 2 -1
1072 0 1 -1.1794 10.567376600771508 3.0787782721868626 1.56402625213985 0 1 0
2184 0 2 0.5897 11.2647381561696 1.5162758892812769 3.991986179181504 0 1 0
890 0 2 0.5897 8.19955340252853 3.476076693787348 3.9885327343403474 0 0 1
889 0 1 -1.1794 9.101089013920427 3.801232915192223 3.962193483441933 0 0 1
891 0 2 0.5897 9.389330271000379 3.8241579489058024 3.04389903420933 0 0 1
817 0 1 -1.1794 8.174157243872008 0.5860933446721863 2.9611022679104515 0 2 -1
1074 0 2 0.5897 10.06213841083814 2.8564009942234794 0.7670948116277464 0 1 0
1837 0 1 -1.1794 11.498335536732718 0.4890682625686227 1.4077577297035708 0 1 -2
2082 0 2 0.5897 7.7000275009499415 3.9197210551591466 1.652652443369189 0 1 -1
1838 0 2 0.5897 12.27010822142165 0.23337930942252036 1.9662378420239408 0 1 -2
384 0 2 0.5897 3.5984320848966598 4.179992528177522 2.785733364064398 0 1 0
511 0 1 -1.1794 2.412267583154865 4.3014423796302665 4.086365128137315 0 0 -1
512 0 2 0.5897 1.5095747621271207 4.271093816533708 3.8087326226346985 0 0 -1
382 0 1 -1.1794 4.486921424706283 4.2306557649262535 2.365416517552408 0 1 0
371 0 2 0.5897 4.457153146195273 6.059540393571287 2.378440146491784 0 -1 1
370 0 1 -1.1794 4.1389396385404496 6.964529699175259 2.509348303985296 0 -1 1
372 0 2 0.5897 3.1831107160262944 6.916598908487192 2.6145481834719675 0 -1 1
2065 0 1 -1.1794 1.360403081664357 7.013310728699817 2.8107108521964945 0 1 0
1785 0 2 0.5897 1.4537201819537728 5.61133192222209 1.6696674487957834 0 0 1
581 0 2 0.5897 5.199057450814128 7.854918211234954 1.3399566659026014 0 -1 2
276 0 2 0.5897 5.278584058824509 7.601111603152975 3.640675157389289 0 0 1
2067 0 2 0.5897 1.1877243812808638 7.763255279803141 2.195726739453217 0 1 0
2066 0 2 0.5897 0.9807130280370785 7.240698734130263 3.663416772850031 0 1 0
1784 0 2 0.5897 1.2861409559594554 4.260025926418273 0.8340571786634432 1 0 1
1783 0 1 -1.1794 1.497549651335552 5.233123896250442 0.7891590377178282 0 0 1
2024 0 2 0.5897 12.104157072329203 4.563354780880903 1.6579866990335903 0 2 -1
2081 0 2 0.5897 7.925902698091138 5.175436717021704 2.29112159273592 0 1 -1
2080 0 1 -1.1794 7.8279181060676635 4.818480067169684 1.4204618722780422 0 1 -1
1639 0 1 -1.1794 8.347799492366896 6.660141609626529 3.427024262482352 0 0 0
1640 0 2 0.5897 7.479876466732599 6.914407931691136 3.7132561694542554 0 0 0
294 0 2 0.5897 9.85888618229027 7.1012821402458846 2.6635744353505832 0 -1 -2
293 0 2 0.5897 11.043907209510735 6.8654718039261855 1.7489452528479683 0 -1 -1
292 0 1 -1.1794 10.502179472855143 7.612991111572803 2.1334542182949567 0 -1 -1
1562 0 2 0.5897 5.100897588370069 10.067735795444936 1.6961875261095707 0 0 0
1563 0 2 0.5897 4.243954045516231 10.835718785898816 2.7682035037965087 0 0 0
1561 0 1 -1.1794 5.04323393319863 10.86114341548048 2.233152526309617 0 0 0
1863 0 2 0.5897 6.538561951987255 10.655372554653564 3.3501087152791276 0 0 -1
580 0 1 -1.1794 5.452281936492642 8.594193791189406 0.7795743203074762 0 -1 2
29 0 2 0.5897 1.5411652194439172 10.865857402188245 3.7878616071020343 0 0 1
28 0 1 -1.1794 2.4689151768044564 10.743797086454022 3.5327502940379416 0 0 1
1592 0 2 0.5897 1.6443100656206877 9.743973335766679 0.8811432300073087 0 0 -1
582 0 2 0.5897 6.387567904020084 8.507995725384216 0.5871415690339697 0 -1 2
1591 0 1 -1.1794 1.4927038684190097 8.820494067232431 0.6266615000015906 0 0 -1
1576 0 1 -1.1794 1.3987413341674921 11.763211280609234 1.1461227742906357 0 2 -1
30 0 2 0.5897 2.6746014595117606 9.942992853380936 4.077382486457283 0 0 1
1603 0 1 -1.1794 12.30756502924988 9.66394335727266 3.2344342543259366 0 -1 0
2087 0 2 0.5897 8.758155946723942 8.65803691642686 1.4580900661662075 0 1 0
1874 0 2 0.5897 10.653783964254654 10.491743551900978 3.6087117087449525 0 0 0
543 0 2 0.5897 10.796572041415082 8.869198087123385 1.0141747317152985 0 -1 0
541 0 1 -1.1794 11.136763184209492 9.521749232016749 0.420764862555244 0 -1 0
2086 0 1 -1.1794 8.297995335046554 9.182116602732265 0.8166577604370965 0 1 0
2088 0 2 0.5897 8.432534057452283 10.136687565500877 0.9085049612106977 0 1 0
542 0 2 0.5897 11.385835509204373 10.335788301998305 0.9569149145117681 0 -1 0
1604 0 2 0.5897 11.989442864999399 8.769761677314191 3.3698840649409534 0 -1 0
622 0 1 -1.1794 8.180327928690291 11.953297494084897 0.44113016005467276 0 1 1
1594 0 1 -1.1794 11.70357620823179 11.877664497230136 1.4642397301778798 0 0 1
1861 0 1 -1.1794 7.085417062406816 10.31894115493549 4.100923207190915 0 0 -1
1862 0 2 0.5897 7.994529444514519 10.34685789688907 3.700585937303597 0 0 -1
1873 0 1 -1.1794 9.79718846331157 10.691823985338381 3.8928122766871307 0 0 0
624 0 2 0.5897 7.213609118816741 11.947878101119493 0.12179333190016725 0 1 1
1343 0 2 0.5897 1.6513244859755614 12.896863109235555 2.3960604436432167 0 0 -1
759 0 2 0.5897 4.931042324835753 12.772236331132467 1.687416354123428 0 -1 0
757 0 1 -1.1794 4.68172312988054 13.717931637664893 1.8775072763226985 0 -1 0
1342 0 1 -1.1794 2.0177044432918607 13.696510765469549 2.881363617541248 0 0 -1
1344 0 2 0.5897 3.0000694945950652 13.664371097869093 2.7419981997845424 0 0 -1
758 0 2 0.5897 5.23332933787919 13.863806778909463 2.6766379825958926 0 -1 0
1782 0 2 0.5897 5.187896738419193 14.894453769578778 0.90628641529822 0 -1 -1
21 0 2 0.5897 1.783408267853245 15.072921154125515 1.777369295097792 1 -1 0
19 0 1 -1.1794 1.6350662612521516 15.620375577726705 1.0102244957228725 0 -1 0
2240 0 2 0.5897 6.439600294644825 15.909686554773028 3.8763089128873145 1 0 1
1564 0 1 -1.1794 6.40109079327856 14.195887360152595 3.845450118481616 0 -1 1
1577 0 2 0.5897 2.1110525152057025 12.157676690315935 0.6138797823783579 0 2 -1
1780 0 1 -1.1794 5.48535552893613 15.715690665103804 0.409653623395543 0 -1 -1
1781 0 2 0.5897 6.430367224782587 15.751619354909705 0.49767344594835294 0 -1 -1
20 0 2 0.5897 2.392095443975303 15.426423683148048 0.44879143091772356 0 -1 0
246 0 2 0.5897 0.9359125432608266 14.137290528419378 4.104154314703602 1 0 0
1595 0 2 0.5897 11.242900050775038 12.617813580629884 1.0840528522566155 0 0 1
1364 0 2 0.5897 11.611534232995423 14.412278417541092 3.6256537676063303 0 0 0
1539 0 2 0.5897 8.549801894681057 15.535086441813275 1.207450458680758 0 1 -1
532 0 1 -1.1794 8.641820455728308 14.202802056791313 2.324037603799756 0 -1 1
533 0 2 0.5897 9.52065379803536 14.297266398846187 2.819120432792702 0 -1 1
534 0 2 0.5897 8.694452508202932 13.44839326149274 1.7103533412043908 0 -1 1
1363 0 1 -1.1794 10.958460340116535 15.145159585955344 3.3257716012908856 0 0 0
1566 0 2 0.5897 7.239351514237134 14.099858031784867 3.3441787951013286 0 -1 1
1596 0 2 0.5897 11.804275315752374 12.096483852613874 2.390153572107355 0 0 1
629 0 2 0.5897 1.910083027398102 19.60687034740537 1.7979003125927326 0 0 0
135 0 2 0.5897 1.8800101337871766 17.52439078164158 0.9544626318744325 0 0 0
1386 0 2 0.5897 4.922168308607931 19.601931093946714 1.8197486191714076 0 0 0
2071 0 1 -1.1794 4.709989539021837 17.865461126979287 1.8816443417966648 0 -2 0
2072 0 2 0.5897 3.932939125559757 17.511925052318666 2.4242381887853837 0 -1 0
2073 0 2 0.5897 4.99718313861967 17.038265996496335 1.3908107368216842 0 -2 0
2241 0 2 0.5897 5.949775787565597 17.26348974350575 2.9868364943030956 1 0 1
1291 0 1 -1.1794 2.9687052983897773 17.47290399513173 3.900452449637813 0 -2 0
2239 0 1 -1.1794 6.585381451662702 16.89408261637189 3.6284029103145423 1 0 1
133 0 1 -1.1794 1.8616381038707828 18.429490896625243 0.5752073169337285 0 0 0
1292 0 2 0.5897 2.003164354810631 17.403799262404828 3.7292221140724036 0 -2 0
525 0 2 0.5897 6.566396873750982 18.999777190565162 0.004150029760482048 0 1 0
1325 0 2 0.5897 11.556429231793047 16.169818901065156 1.8265707704778846 0 -2 1
1537 0 1 -1.1794 8.1366947746764 16.14399178756904 0.49866631258228 0 1 -1
1326 0 2 0.5897 11.072186573793966 16.455690543645265 0.4169230909220334 0 -2 1
1839 0 2 0.5897 10.848086363088562 19.95029756745168 1.8430161108033714 0 0 -2
1324 0 1 -1.1794 11.640333344069914 16.819898791423288 1.1229538046790166 0 -2 1
632 0 2 0.5897 10.95839052245062 17.80589743179433 2.540821619322933 0 0 0
633 0 2 0.5897 10.020511422743855 18.03371198628328 3.7434510103663645 0 0 0
1305 0 2 0.5897 8.036864863709223 17.796874467050156 1.0632812547799035 0 0 0
1304 0 2 0.5897 8.061826679224378 19.219703587744565 1.8676606253102221 0 0 0
1303 0 1 -1.1794 7.797225649901216 18.742168387207574 1.006521628520072 0 0 0
631 0 1 -1.1794 10.760585003932862 18.372440747300736 3.2788973756134574 0 0 0
1063 0 1 -1.1794 5.713506327550626 1.0104920420665047 4.444287930568216 0 0 -1
2095 0 1 -1.1794 6.270617907374632 3.572032075322928 4.282396634205189 0 0 1
1859 0 2 0.5897 1.3042147613706796 3.602545533183685 7.941345381326982 0 0 0
342 0 2 0.5897 2.986485105649236 2.6891470845971837 5.075540443238768 0 -1 1
340 0 1 -1.1794 2.949405151512151 2.1536758233453055 5.8657867832226644 0 -1 1
341 0 2 0.5897 3.815437415915266 2.2560067961488266 6.368656983918864 0 -1 1
568 0 1 -1.1794 4.931715782616978 2.3838304067401546 7.401274360975606 0 0 1
1860 0 2 0.5897 1.7387090182866558 2.4906336152613786 6.945697254385015 0 0 0
570 0 2 0.5897 4.720289123774138 3.0995506566233826 8.003004345992995 0 0 1
1065 0 2 0.5897 5.9158561094031015 0.3278574002160096 5.070736695297504 0 0 -1
1064 0 2 0.5897 5.934618122967669 1.910036308045776 4.826925782994292 0 0 -1
569 0 2 0.5897 5.873934975832942 2.469085766845844 7.20533914934888 0 0 1
1858 0 1 -1.1794 1.0973173093960444 2.6999937972698764 7.698794216479782 0 0 0
1278 0 2 0.5897 3.380160117199583 0.2541217378231955 5.440654802506957 0 0 -1
1812 0 2 0.5897 4.395284915267023 0.6927238379000367 8.169135673424917 0 1 -1
2182 0 1 -1.1794 10.389245347977745 1.4153455741642584 4.419422932753458 0 1 0
2183 0 2 0.5897 10.22350634086566 2.3440178862301093 4.5929003874050585 0 1 0
606 0 2 0.5897 8.792187956140406 2.6745607291262754 6.95098965943907 0 0 0
604 0 1 -1.1794 7.863814136078416 2.5812018431522654 7.283322310544736 0 0 0
1261 0 1 -1.1794 10.99144378099695 2.3947708867035047 6.92501591404847 0 -1 0
1263 0 2 0.5897 11.185107507326661 3.1639456891625652 7.4897353922817596 0 -1 1
1262 0 2 0.5897 11.02395800103047 1.707718306869745 7.600637035526119 0 0 0
605 0 2 0.5897 7.941679931330648 2.012602907241529 8.025882222570312 0 0 0
2042 0 2 0.5897 9.638019218019044 0.3420760416091237 5.730535106324705 0 2 0
857 0 2 0.5897 12.132232569523637 1.2700854351892252 5.936866476525433 0 0 -1
274 0 1 -1.1794 6.019005553772125 7.836629053821052 4.28952906067479 0 0 1
513 0 2 0.5897 2.61205154760349 4.937669477695807 4.78219628764462 0 0 -1
1625 0 2 0.5897 2.510989648729862 5.575215625711758 6.973003236963109 0 0 0
1626 0 2 0.5897 3.969097907747638 5.509344553823972 6.248571404406553 0 0 0
1624 0 1 -1.1794 3.0024432746744125 5.830889650455699 6.180577734589735 0 0 0
1395 0 2 0.5897 3.354270878251876 7.650257066406203 5.495543561960381 0 1 2
296 0 2 0.5897 5.823054895138607 6.371000412991708 5.581550612594652 0 1 0
295 0 1 -1.1794 5.716299985969949 5.604573093205826 6.1493482872087535 0 1 0
2097 0 2 0.5897 6.164880318350817 4.25825999784612 5.000423048516725 0 0 1
297 0 2 0.5897 6.507579254677149 5.633896481831424 6.780421507057347 0 1 0
781 0 1 -1.1794 1.2603879132148315 5.383207014351412 8.106565160872506 0 0 0
1641 0 2 0.5897 8.673979837802307 6.141694775356776 4.192248095577517 0 0 0
26 0 2 0.5897 10.55989852355624 5.714959598220545 5.934338039934075 0 1 1
27 0 2 0.5897 9.146997600445637 5.965440900011525 6.593928100555758 0 1 1
73 0 1 -1.1794 7.735059007328902 5.211593491054748 7.722689902415124 0 0 -2
25 0 1 -1.1794 9.724820988233233 6.249575188101901 5.890421375107596 0 1 1
74 0 2 0.5897 8.081261819579897 4.322961134833531 7.953014936115669 0 0 -2
1590 0 2 0.5897 11.872559915430802 4.3152144307127545 4.601758405264127 0 2 0
1588 0 1 -1.1794 11.964892561031794 5.00371663333104 5.320985144256643 0 2 -1
334 0 1 -1.1794 1.3307732772460634 8.988886471196265 7.590279420067205 0 0 1
1393 0 1 -1.1794 3.26436592703649 8.638022600566217 5.585092514210135 0 1 2
275 0 2 0.5897 6.271706593189443 8.753728206298115 4.208003008617004 0 0 1
336 0 2 0.5897 1.4665391487122488 9.954692240010198 7.840733927533231 0 0 1
526 0 1 -1.1794 5.528184479118938 9.072732821309275 7.130751273129409 0 1 0
528 0 2 0.5897 6.334846563992297 9.059576106773742 6.6074611676354404 0 1 0
527 0 2 0.5897 4.814149635407221 8.91099894480972 6.474378120839669 0 1 0
1394 0 2 0.5897 2.6601192328777334 8.777135257261131 6.406339874460494 0 1 2
1347 0 2 0.5897 6.438597629522358 11.628657981412971 5.354980479159727 0 -1 0
118 0 1 -1.1794 1.6704380608983311 11.738421131165993 7.917718508215741 0 -1 0
120 0 2 0.5897 2.220398978796135 11.993133550572862 7.202087584390093 0 -1 0
1875 0 2 0.5897 9.781207215567205 11.470737286048367 4.487270185696655 0 0 0
1151 0 2 0.5897 10.113976481722178 8.09882394523326 5.802931710703676 0 1 1
1150 0 1 -1.1794 10.346002774228944 8.977715081209007 6.141689605382757 0 1 1
1152 0 2 0.5897 10.181781761929676 9.673875888040511 5.461272522462184 0 1 1
1097 0 2 0.5897 8.881612666120539 9.181861355951035 6.966449129851133 0 0 2
1096 0 1 -1.1794 8.096399571118974 9.413176747047014 7.445776954366551 0 0 2
1098 0 2 0.5897 8.068142907004152 10.29360204821654 7.807206215518894 0 0 2
815 0 2 0.5897 12.020639264922469 8.913863222279858 6.525225892264989 0 1 2
78 0 2 0.5897 11.082366295227416 10.721195163592382 7.909221566350595 0 -1 0
2018 0 2 0.5897 2.7199914793603055 12.112406505352418 5.058099901898272 1 -1 0
1345 0 1 -1.1794 5.996094166088281 12.33171478124155 5.887098321983564 0 -1 0
1346 0 2 0.5897 5.021617089545092 12.155529157767898 5.90230837696013 0 -1 0
2017 0 1 -1.1794 3.1618026866334468 12.543113983235154 5.799700611165642 0 -1 0
2019 0 2 0.5897 3.045609235187311 13.47447960644446 5.603943893365705 0 -1 0
1600 0 1 -1.1794 2.9802487412450622 15.26824756054795 5.360948074966121 0 -1 0
1602 0 2 0.5897 2.3487225326285746 15.584851145182677 6.008920463154275 0 -1 0
1601 0 2 0.5897 3.830776795920559 15.551445730483508 5.709440997879004 0 -1 0
1078 0 1 -1.1794 5.120894418041926 15.443924861061191 7.096088406883154 0 -1 -1
1079 0 2 0.5897 4.9516231631736245 14.618952564941827 7.656458567208257 0 -1 -1
1080 0 2 0.5897 6.0441495337767845 15.338177602632559 6.728558179088648 0 -1 -1
1565 0 2 0.5897 6.566723651163025 13.613859753365572 4.619265043995763 0 -1 1
1042 0 1 -1.1794 1.5365940049296558 15.86559487668405 7.509527264627149 0 0 0
1035 0 2 0.5897 6.910752322486823 12.73255826335476 7.671386270166455 0 -2 0
1365 0 2 0.5897 10.665560387571073 15.519135024662495 4.196167880514379 0 0 0
1835 0 2 0.5897 10.204873896278517 13.146519941137283 6.40684443598383 0 1 1
1834 0 1 -1.1794 9.44749080889037 12.693786901157347 6.0292497874427236 0 1 1
1836 0 2 0.5897 8.90162490884293 12.383828278916535 6.761987757819884 0 1 1
251 0 2 0.5897 11.119802430925686 15.205681399826725 7.571882276378315 1 -1 -1
358 0 1 -1.1794 7.847661088261878 15.335938275968793 6.552169978336169 0 1 0
360 0 2 0.5897 8.357012011846226 14.626181771677963 6.108199585833565 0 1 0
359 0 2 0.5897 8.41035376282848 15.569607566153017 7.31980462864484 0 1 0
250 0 1 -1.1794 11.155362357402396 14.850029188393815 6.6646767011181165 1 -1 -1
252 0 2 0.5897 12.082122280196801 14.529605061277373 6.650317061524773 1 -1 -1
1033 0 1 -1.1794 7.533119059955045 12.215934726298775 8.156764900781667 0 -2 0
1293 0 2 0.5897 3.1641251836525406 16.638106754959487 4.3562551326120555 0 -2 0
544 0 1 -1.1794 1.4863304379118911 18.778331288922924 7.808279916777341 0 -1 0
1277 0 2 0.5897 3.0049991987186253 18.86302792150553 4.9925859206185175 0 -1 -1
1276 0 1 -1.1794 3.195584535517766 19.4146738579761 5.749743782651002 0 -1 -1
1341 0 2 0.5897 4.8315352013559725 18.892124735335077 6.270048324168157 0 -1 0
546 0 2 0.5897 2.1659033875026097 19.083287891041632 7.172216865290509 0 -1 0
1339 0 1 -1.1794 5.780437504569891 18.805228233410585 6.434877879549211 0 -1 0
1340 0 2 0.5897 6.142933178773881 18.2820089916803 5.700198226145585 0 -1 0
1043 0 2 0.5897 1.616423185690454 16.81815702874175 7.778317562736477 0 0 0
389 0 2 0.5897 8.200089766734465 17.237529359691727 4.376273299380984 0 -1 0
388 0 1 -1.1794 8.965425191426357 17.33026425826602 4.938397485335991 0 -1 0
390 0 2 0.5897 8.813872771150184 16.67942604068882 5.642310594609608 0 -1 0
612 0 2 0.5897 11.576274973714062 17.680285438602304 7.524097536061206 0 -2 0
1337 0 2 0.5897 8.043153167335536 19.84426091468634 7.512043287445845 0 -1 -1
2041 0 1 -1.1794 9.285216290238047 19.675169335694168 6.303056281857633 0 1 0
2043 0 2 0.5897 9.084860631929015 18.975759112580068 5.71648769494646 0 1 0
611 0 2 0.5897 10.697761120287216 18.818203720843385 6.858954439919744 0 -2 0
610 0 1 -1.1794 11.549546098098519 18.31864236903158 6.816838734019197 0 -2 0
1131 0 2 0.5897 1.5024910057413725 1.4586499147263254 9.015221421508484 0 2 -1
122 0 2 0.5897 3.1541220293942507 2.9532174814282413 11.401551072634089 0 0 -1
1129 0 1 -1.1794 1.6593346805445086 0.7508541187256522 9.625564538553695 0 2 -1
1820 0 2 0.5897 5.154586143428444 0.6547083394624589 10.447799237484492 0 1 1
1821 0 2 0.5897 6.067834699670399 0.19489701778464558 11.640294475282827 0 1 1
1819 0 1 -1.1794 5.990307972056109 0.7910703461567419 10.870309366925357 0 1 1
121 0 1 -1.1794 2.595947269729419 3.640946928943678 10.980151360342973 0 0 -1
1130 0 2 0.5897 1.2179105474032084 1.1189443836410737 10.434907400108795 0 2 -1
1058 0 2 0.5897 6.313321475399803 2.3751774478103793 11.088082839198746 0 0 -1
1057 0 1 -1.1794 6.45949424747085 3.2993351898325476 11.097231535658704 0 0 -1
1059 0 2 0.5897 6.292360292163471 3.793742153089611 11.92965145356977 0 0 -1
1308 0 2 0.5897 11.704913380667904 2.860394448310015 10.011326872840895 0 1 0
852 0 2 0.5897 7.941496306161591 1.0977103500461858 10.072941974122148 0 0 0
850 0 1 -1.1794 8.849578744321246 1.2771312656494096 10.302368718158645 0 -1 0
851 0 2 0.5897 9.358628619343438 0.6545503732666211 9.732553851181978 0 -1 0
1883 0 2 0.5897 9.434052669285908 1.6409497340303332 11.848306602569524 0 0 0
1881 0 2 0.5897 11.36564067238052 0.7900725597923821 9.484254398818251 0 1 1
1879 0 1 -1.1794 10.874905274444588 0.22814050217685522 8.875765159323002 0 1 1
1306 0 1 -1.1794 12.308884480355724 2.15908044377422 10.239981721188219 0 1 0
782 0 2 0.5897 1.554761350619315 6.057956886172753 8.756678772308424 0 0 0
878 0 2 0.5897 4.971977756084264 7.785924484047269 8.397952714910483 0 0 0
123 0 2 0.5897 3.201552410166754 4.019016098375718 10.34121860937378 0 0 -1
1088 0 2 0.5897 5.488046698089815 4.0534388033208035 9.951916132091743 0 -1 -1
1087 0 1 -1.1794 4.703589200565321 4.385436119853248 9.446540877032005 0 -1 -1
1089 0 2 0.5897 4.951415243045402 5.2999603992134885 9.200719258610544 0 -1 -1
304 0 1 -1.1794 2.1633352749781096 7.414227384831209 9.654052363806901 0 1 0
306 0 2 0.5897 3.119461938648564 7.536505538372999 9.526845420674258 0 1 0
877 0 1 -1.1794 4.728999847205463 7.310022245714053 9.178793081273062 0 0 0
879 0 2 0.5897 5.380659488790267 7.591441046814526 9.866771673633192 0 0 0
1232 0 2 0.5897 2.9559464239476005 4.914556992690702 12.239980095339542 1 0 0
374 0 2 0.5897 6.123674842975995 7.099892278321734 12.17325534972854 0 0 0
373 0 1 -1.1794 6.366421462810681 7.478162168141238 11.308530446277805 0 0 0
503 0 2 0.5897 3.0216861088001474 7.261411089598483 12.378285312339806 1 0 0
305 0 2 0.5897 1.7755836598708319 7.720766702173915 10.485360288073077 0 1 0
75 0 2 0.5897 8.012688040120391 5.797689355039443 8.47042771567532 0 0 -2
125 0 2 0.5897 9.719471379822332 4.402718734735278 11.237941517288501 0 0 0
2133 0 2 0.5897 11.79077632707217 5.007370475851467 8.933070826516508 0 2 0
2131 0 1 -1.1794 11.091009630358233 4.35481361508376 8.844710227141034 0 2 0
126 0 2 0.5897 8.33241879250198 4.099334135863204 10.543240071970116 0 0 0
2132 0 2 0.5897 10.341833026905995 4.613883885579161 9.37980099307652 0 2 0
124 0 1 -1.1794 9.138584015785359 4.624237417330972 10.508527632728386 0 0 0
1108 0 1 -1.1794 8.256076632125989 7.266186806828527 9.25822462421602 0 -1 1
1110 0 2 0.5897 7.616592796740905 7.17156991962021 9.972936265562334 0 -1 1
314 0 2 0.5897 11.22914593771728 5.515190886006514 12.276185623220837 0 1 -1
272 0 2 0.5897 11.164531716039756 7.563426388066814 11.210848622449602 0 0 0
365 0 2 0.5897 9.82622283252631 7.959790435092622 9.453319010460866 0 0 -2
271 0 1 -1.1794 11.644193619267204 7.146195701024324 11.971335275069324 0 0 0
313 0 1 -1.1794 11.16836408279049 4.515653827748514 12.402088468171696 0 1 -1
785 0 2 0.5897 12.098343389478853 7.160727703172201 8.976133982248706 0 -1 1
1109 0 2 0.5897 7.915027081496685 7.958623570824827 8.592273932890388 0 -1 1
230 0 2 0.5897 4.892606824869398 10.347787351457699 8.395827634557955 1 0 -1
335 0 2 0.5897 1.5159992270842215 8.531638127544337 8.444277820293108 0 0 1
375 0 2 0.5897 6.616586308714617 8.395536935882554 11.416725266401707 0 0 0
229 0 1 -1.1794 4.554350690554896 10.709845771894615 9.189924609503096 1 0 -1
504 0 2 0.5897 3.1457227304379005 8.819601462972145 11.86066562132603 1 0 0
4 0 1 -1.1794 2.288631415395753 10.338143467467063 10.787455378009605 0 0 1
5 0 2 0.5897 2.772300874381786 10.503149921530511 9.966969206224372 0 0 1
6 0 2 0.5897 1.3122139581425518 10.465854269875177 10.694740903617735 0 0 1
116 0 2 0.5897 6.035810670572837 10.35562487899211 10.28176373043248 0 0 0
115 0 1 -1.1794 6.522404598565208 10.27652199313858 11.105785438032317 0 0 0
93 0 2 0.5897 5.717697157737248 11.708340958637699 12.275386152516024 0 1 -2
231 0 2 0.5897 4.62451603564071 11.647949603650957 9.030915053409514 1 0 -1
311 0 2 0.5897 2.6137359743265773 11.599789641477036 12.178984191704698 0 0 -1
364 0 1 -1.1794 10.7058866199064 8.316686844268725 9.765438456955058 0 0 -2
117 0 2 0.5897 7.380561271176196 10.665304668517887 10.92026956097813 0 0 0
366 0 2 0.5897 10.711187672716562 9.239490766902776 9.475437160010385 0 0 -2
76 0 1 -1.1794 11.073405300066701 10.836939687255201 8.881149367095471 0 -1 0
77 0 2 0.5897 11.301281809778585 11.79972569017486 9.075097387348828 0 -1 0
894 0 2 0.5897 9.500705553509814 11.299061177554462 9.772609972023677 0 1 0
892 0 1 -1.1794 8.969427905982965 11.28563103377312 10.675146474207487 0 0 0
893 0 2 0.5897 9.609857154451234 10.886025010384545 11.31195895649786 0 0 0
2062 0 1 -1.1794 11.055977194352568 10.493075948410038 12.425889489059804 0 -3 0
2063 0 2 0.5897 11.268016738579867 11.461703315192228 12.424067277619875 0 -3 0
119 0 2 0.5897 1.7099117474226884 12.45520908324848 8.57690108917766 0 -1 0
585 0 2 0.5897 1.8512076478995898 14.653410602013018 8.916940871122705 0 0 -1
583 0 1 -1.1794 1.874143989227727 13.847770300216293 9.408733247998391 0 0 -1
1349 0 2 0.5897 3.4812966868251483 13.675643241248563 9.589427829495888 0 -1 -2
1348 0 1 -1.1794 4.391236159535483 13.519312381357931 9.229293453634988 0 -1 -2
1350 0 2 0.5897 4.892643125856146 14.103903730458505 9.851136947416627 0 -1 -2
80 0 2 0.5897 5.768987058603754 14.004169061443601 12.199442355152755 0 0 -1
79 0 1 -1.1794 5.898615620745004 14.662114170859228 11.44796304969339 0 0 -1
584 0 2 0.5897 1.1967126722284174 14.016474925293775 10.15766253937586 0 0 -1
845 0 2 0.5897 3.225042677713525 15.608672193552296 12.27496008287349 0 1 -1
1540 0 1 -1.1794 11.587869889465443 13.40178607777497 9.806276900218524 0 0 0
1034 0 2 0.5897 7.776123518349472 12.664978065801172 8.931480063139048 0 -2 0
832 0 1 -1.1794 9.474955299725435 15.570894406426358 8.75456387013401 0 0 1
81 0 2 0.5897 6.755249793131409 14.401654685025157 11.103792831782737 0 0 -1
833 0 2 0.5897 9.055721288078573 15.04988445583448 9.495446011813717 0 0 1
2038 0 1 -1.1794 8.633150470123649 14.137358599074345 11.008472985257521 0 0 0
2039 0 2 0.5897 8.990376156751848 13.231700328556398 11.012632409738465 0 0 0
2040 0 2 0.5897 9.310513657936893 14.683736963166973 11.475768657537214 0 0 0
1627 0 1 -1.1794 10.526312314218059 16.03697056317708 11.672454903481487 0 0 2
1542 0 2 0.5897 11.452979368468764 14.23226178075372 9.380714971772614 0 0 0
2120 0 2 0.5897 12.090308414107058 13.433356044412688 12.206977557517696 0 0 -1
86 0 2 0.5897 4.7766153312754795 16.60973680758794 8.35606333628749 0 -2 1
545 0 2 0.5897 1.6561791680738682 19.25510488946215 8.640502625414989 0 0 0
1811 0 2 0.5897 3.3418891806150044 20.008842952767708 9.100994682540623 0 0 -1
1810 0 1 -1.1794 4.255670174969247 19.986086342228198 8.78104674162213 0 0 -1
1001 0 2 0.5897 0.9955322665197304 16.670875287781577 11.078301188222952 1 0 0
87 0 2 0.5897 4.277891071602604 18.063622106111143 8.407530034097617 0 -2 1
1118 0 2 0.5897 6.089671269162583 16.303611046278217 11.09713536931202 0 -1 0
85 0 1 -1.1794 4.342041740236573 17.239330588600392 8.950242678633174 0 -2 1
1119 0 2 0.5897 5.548767350420233 17.43608408450755 10.355448184664974 0 -1 0
1028 0 2 0.5897 3.2775248595123374 16.928174568655102 10.406833975165243 0 -1 0
1027 0 1 -1.1794 2.699973103439662 16.80886755511567 11.205619664998343 0 -1 0
1029 0 2 0.5897 2.85700299518302 17.645458210087355 11.749651240700775 1 -1 0
1117 0 1 -1.1794 6.339761669298247 17.226179005219315 10.889724432449832 0 -1 0
1338 0 2 0.5897 6.816823827612749 19.40466353624133 8.422920130149162 0 -1 -1
1336 0 1 -1.1794 7.651478656693158 19.83263631903479 8.380448057507696 0 -1 -1
1880 0 2 0.5897 11.110533504561536 19.318743088577065 8.936226652082176 0 0 1
647 0 2 0.5897 11.896208115593844 16.039200516081593 9.926402478493465 0 1 1
834 0 2 0.5897 9.442946559837655 16.457351411918157 9.023194276399245 0 0 1
289 0 1 -1.1794 9.015619102975547 17.856846980711776 10.026447143048689 0 -2 0
290 0 2 0.5897 8.711450121064406 18.6985785743603 9.594955581377679 0 -2 0
291 0 2 0.5897 8.201700504479927 17.496055629881646 10.374636620652334 0 -2 0
1629 0 2 0.5897 10.252423481095937 16.89722825142796 11.414363365883492 0 0 2
264 0 2 0.5897 10.022682718496906 18.979133498865238 11.250353436995107 1 1 1
263 0 2 0.5897 10.583331044149924 19.70178271301614 12.447880387638824 0 1 1
262 0 1 -1.1794 10.658017512925158 18.89968896094357 11.935647198384887 0 1 1
1628 0 2 0.5897 11.153367684876587 16.122120003331386 12.429222634408836 0 0 2
167 0 2 0.5897 12.207221512228923 19.389091442513426 10.991140157281894 0 -1 0
646 0 1 -1.1794 12.287952880593894 16.078881535124335 9.09019019192473 0 1 0
2008 0 1 -1.1794 3.071662078594599 1.6042847495477253 12.576413595773813 1 0 0
2104 0 1 -1.1794 1.0580946762917967 2.4114949711644345 14.443427498533577 0 0 0
2009 0 2 0.5897 3.7352180295490016 1.9386619835084586 13.166889841926869 1 0 0
2010 0 2 0.5897 2.2587821957627168 1.9164979193574334 13.008209699318305 0 0 0
1987 0 1 -1.1794 5.4563784740785035 2.068685903260154 14.324655245541317 1 0 1
1988 0 2 0.5897 5.465415962840809 1.2305996305447235 14.83629996029831 1 0 1
1989 0 2 0.5897 5.188840428856002 2.6492690480502716 14.968321946925359 1 0 1
514 0 1 -1.1794 4.729325366819237 0.17572952207590659 16.258403495016818 0 1 -1
2106 0 2 0.5897 1.2635131513978162 1.7642560341638778 15.151251669458645 0 1 0
94 0 1 -1.1794 1.9152066772475185 0.67258937693109 16.429896841597525 0 0 -1
96 0 2 0.5897 2.7558587133427555 0.3444047318470025 16.626717123529957 0 0 -1
1882 0 1 -1.1794 9.766088658561648 2.0110959488010014 12.623677956736037 0 0 0
1884 0 2 0.5897 10.766281421890637 1.9766648388295747 12.677334418066073 0 0 0
933 0 2 0.5897 7.051883959669846 2.878240044268133 14.165735420626925 0 0 1
932 0 2 0.5897 8.295269998535431 3.171877954677709 13.351872740274796 0 0 1
931 0 1 -1.1794 7.901241907624334 3.339576708566333 14.217883164858279 0 0 1
1280 0 2 0.5897 11.873816091713985 2.8163674671411028 16.206587277100187 1 1 1
1095 0 2 0.5897 9.572760503479893 3.6197924279794065 15.096323353625902 0 1 1
1093 0 1 -1.1794 10.544487063966459 3.8178100342700434 14.938927241344663 0 1 1
1050 0 2 0.5897 8.608650954575282 0.6022830639610278 13.779306210062254 0 1 0
1049 0 2 0.5897 8.550606040506745 0.493995906236873 15.285949480566359 0 1 0
1048 0 1 -1.1794 8.243263249461311 0.09143630066617803 14.470501826325878 0 1 0
1231 0 1 -1.1794 3.216913347984408 5.5616491212553445 12.937338013112957 1 0 0
1675 0 1 -1.1794 5.048254090341822 4.426327152541954 15.993581439254777 0 0 1
508 0 1 -1.1794 1.6038900369343925 5.194903928436929 15.089737650277522 0 -1 -1
31 0 1 -1.1794 6.048546009525846 5.215236391145476 13.22918425714341 0 0 0
33 0 2 0.5897 5.086742734482881 5.1825203198509 13.391960294671033 0 0 1
1233 0 2 0.5897 2.7478295962669033 5.2520195265939 13.745437017063903 1 0 0
1676 0 2 0.5897 5.017181149076243 5.4222697183461905 16.038533267245132 0 0 1
505 0 1 -1.1794 4.689946797976284 7.189798654416761 16.311915621833812 0 0 0