LAMMPS data file via write_data, version 23 Jun 2022, timestep = 33104000

2268 atoms
2 atom types

0.7543972138760218 46.69630178605526 xlo xhi
0 20.047001 ylo yhi
0 20.857 zlo zhi

Masses

1 1.008
2 15.999

Atoms # full

371 0 2 0.5897 4.832680782436392 2.1655985435190583 3.179072266362512 0 -1 1
1775 0 2 0.5897 5.619034073479626 1.7281513178050447 0.36064489488866824 0 1 0
370 0 1 -1.1794 4.499568062674799 3.05150553733509 3.3083810331915062 0 -1 1
372 0 2 0.5897 3.5800051316728956 2.902711267913463 3.5626861044299956 0 -1 1
2065 0 1 -1.1794 1.6937648335926792 3.1805649367583966 3.720778306554094 0 1 0
1785 0 2 0.5897 1.4401539405388788 1.9612447262224653 2.426876942159001 0 0 1
1533 0 2 0.5897 2.237237902654077 2.0949526670500656 0.3104718598761796 1 0 1
382 0 1 -1.1794 4.657948595871195 0.29339396461973116 3.047877778261074 0 1 0
1783 0 1 -1.1794 1.311453895856694 1.511248079353798 1.5921852506562377 0 0 1
1784 0 2 0.5897 1.309639893306176 0.5460255942911928 1.7592736650105325 1 0 1
1263 0 2 0.5897 7.351444887072946 2.019171557426452 2.1222513657735647 0 -1 1
1261 0 1 -1.1794 6.890507371011858 1.4448730555634766 1.4790549696215736 0 -1 0
1262 0 2 0.5897 7.127818621008247 0.5481186348826922 1.5725317643294734 0 0 0
1179 0 2 0.5897 9.962742983132763 0.8254786583150602 1.1150205660411696 0 2 2
1177 0 1 -1.1794 10.46401172742809 0.5948638811694748 1.912824511751736 0 2 2
1178 0 2 0.5897 10.62617947556879 1.4222368906184744 2.359483285565218 0 2 2
559 0 1 -1.1794 7.913129466748653 3.3984503364885725 3.2602077418181055 0 2 0
1440 0 2 0.5897 11.210456681037973 3.546579401890304 2.921502903735254 0 1 1
1438 0 1 -1.1794 10.786137674040122 2.800296097387866 3.361295607016907 0 1 1
560 0 2 0.5897 8.843407361148111 3.3001593875612456 3.6384445474532106 0 2 0
2186 0 2 0.5897 9.50357321237846 0.1300264151457233 3.4442686446352777 0 2 0
561 0 2 0.5897 7.440196696212455 3.680864244508419 4.105350267121488 0 2 0
581 0 2 0.5897 5.1351367975881566 4.391976393479777 1.7344685735157686 0 -1 2
2067 0 2 0.5897 1.6019611118049666 4.021218901383029 3.2498246504493586 0 1 0
580 0 1 -1.1794 5.267815886717277 5.076894782060013 1.1158152584184313 0 -1 2
1563 0 2 0.5897 3.8259793932886677 6.705870093731287 3.3722517946109325 0 0 0
1592 0 2 0.5897 1.9100825120957563 5.136398361542209 0.8313312028010736 0 0 -1
582 0 2 0.5897 6.196389692159287 5.032139763461424 0.9187521051764942 0 -1 2
1562 0 2 0.5897 4.984015536466359 6.696603228851574 2.272591407246444 0 0 0
1561 0 1 -1.1794 4.582801570858253 7.188376547376406 2.9922825375871205 0 0 0
1593 0 2 0.5897 1.1952876450635848 6.068452392510374 1.8533432005485238 0 0 -1
1591 0 1 -1.1794 1.3181026230329667 5.155785255136482 1.6289249564916213 0 0 -1
1332 0 2 0.5897 8.064487821444853 4.82511182037767 2.1842747264568607 0 -1 3
1331 0 2 0.5897 8.004944427287338 6.330589679560843 1.4954126193456039 0 -1 3
1330 0 1 -1.1794 7.887247344292681 5.326391933330652 1.3662753877357714 0 -1 3
2180 0 2 0.5897 9.453521290972718 7.722630703252662 3.686709643461119 0 -1 2
442 0 1 -1.1794 10.991935556412937 7.675943239233873 2.4069282329338173 0 2 -1
2087 0 2 0.5897 9.170009400331315 4.562836530963563 0.35238935109709446 0 1 0
444 0 2 0.5897 11.665923577879825 7.329235592786488 2.9826570843169358 0 2 -1
1269 0 2 0.5897 11.34876131870946 4.535734412204965 0.9983192335316284 0 1 2
1267 0 1 -1.1794 12.055898215562676 4.459895526736309 1.659210416783167 0 1 2
1576 0 1 -1.1794 0.9999830795022913 8.24550007711462 1.6973679473970669 0 2 -1
1577 0 2 0.5897 1.6845092127185257 8.334040782195038 0.9445714119845743 0 2 -1
759 0 2 0.5897 4.513654459410903 8.856299423032867 3.45501686365731 0 -1 0
757 0 1 -1.1794 4.489396383443095 9.831092422082195 3.463113184706471 0 -1 0
1343 0 2 0.5897 1.3314777031794192 9.491704479378859 3.0786099463630374 0 0 -1
1782 0 2 0.5897 4.504869689510986 11.002453767309122 1.8594009283773978 0 -1 -1
1344 0 2 0.5897 2.724880086875575 10.14727917809399 3.517899129389034 0 0 -1
1342 0 1 -1.1794 1.7630959699687938 10.25550891552765 3.478081517456659 0 0 -1
21 0 2 0.5897 1.299215387642834 11.384210917463207 2.1330016035471537 1 -1 0
1780 0 1 -1.1794 4.768528838417657 11.763356267231954 1.305245752351578 0 -1 -1
20 0 2 0.5897 1.7447389254756245 11.83857361555134 0.7645078823159593 0 -1 0
595 0 1 -1.1794 5.680922858648743 8.40065782597331 0.034774085182744434 0 1 2
1781 0 2 0.5897 5.78755929065354 11.790017125103748 1.3821328863020008 0 -1 -1
19 0 1 -1.1794 0.9901218476502998 11.96447686404262 1.3952397885645396 0 -1 0
443 0 2 0.5897 11.06598012104302 8.648875386906493 2.479849688829559 0 2 -1
624 0 2 0.5897 6.747982065732397 8.205280570470013 1.5288281209132681 0 1 1
622 0 1 -1.1794 7.678303458518183 8.333769417908039 1.8998803440676149 0 1 1
2157 0 2 0.5897 11.667588606771984 10.866696177447766 2.967596531115952 0 1 0
2155 0 1 -1.1794 11.035627980034889 10.274807844856605 3.3790344337465372 0 1 0
623 0 2 0.5897 7.498407072964186 9.062733213150066 2.503660595719076 0 1 1
203 0 2 0.5897 8.067662745836843 11.374795020227339 3.080499568324056 0 1 -1
202 0 1 -1.1794 8.182469804239323 10.637838837276318 3.680159368527786 0 1 -1
204 0 2 0.5897 9.171197702434862 10.479453465915668 3.519749057209103 0 1 -1
191 0 2 0.5897 8.673715763253146 8.59877153614737 0.4556752940607782 0 0 -1
2156 0 2 0.5897 11.538477651837256 9.920844597614296 4.129353983477393 0 1 0
1711 0 1 -1.1794 11.953676595302213 9.589023064646183 0.5526870367682606 0 0 0
1713 0 2 0.5897 11.005057566281128 9.507790187061927 0.53771488679224 0 0 0
2071 0 1 -1.1794 4.190088953346187 13.88366273667885 2.957438238016555 0 -2 0
2072 0 2 0.5897 3.236629532623212 13.76710118421908 3.1601272380787946 0 -1 0
2073 0 2 0.5897 4.43868272098039 13.158457153331113 2.3497018919101165 0 -2 0
134 0 2 0.5897 1.7772045586881364 14.995839410917355 0.8512299570999602 0 0 0
1386 0 2 0.5897 4.4072637942933435 15.607833270075346 3.37653369520753 0 0 0
135 0 2 0.5897 1.4243070675460805 13.652856975901388 1.5497841020362266 0 0 0
133 0 1 -1.1794 1.3966782669522917 14.60634596207232 1.671422946643545 0 0 0
525 0 2 0.5897 6.01842619968795 15.178794096690106 0.9022865280723192 0 1 0
629 0 2 0.5897 1.8004829129696456 15.859838069117847 3.0867098400058426 0 0 0
523 0 1 -1.1794 5.554934356121739 15.31251100903537 0.06580482051815945 0 1 0
1652 0 2 0.5897 8.158427402583607 12.13061974746253 0.8893304535251023 0 1 1
1651 0 1 -1.1794 7.422368383126564 12.365830320204205 1.521928327037707 0 1 1
553 0 1 -1.1794 11.17247040422101 12.99965810861414 1.135861460826156 0 0 2
1653 0 2 0.5897 7.443354121146511 13.347320246787714 1.709601546336206 0 1 1
1303 0 1 -1.1794 7.86511918599953 15.22529880242713 1.80282513764359 0 0 0
1305 0 2 0.5897 8.338569041921215 15.489087928908654 0.9903520387565136 0 0 0
554 0 2 0.5897 10.9155589490555 13.653776774783617 1.8264169929824807 0 0 2
565 0 1 -1.1794 11.354384417304951 14.724542106730071 3.3322688447463467 0 -1 1
567 0 2 0.5897 10.414161688428479 14.632440043400786 3.6311853828182072 0 -1 0
566 0 2 0.5897 11.426779345993468 15.682011509187271 3.4774469665625674 0 -1 1
1304 0 2 0.5897 8.054884666694129 15.928509214775943 2.466910848329418 0 0 0
555 0 2 0.5897 10.450837654184928 12.556405660798612 0.6534089372226435 0 0 2
383 0 2 0.5897 3.7514305044520992 19.946696297399804 3.2825283147528426 0 0 0
384 0 2 0.5897 4.969452867442868 19.873323269676852 2.287323804387865 0 0 0
1384 0 1 -1.1794 4.494069089373449 16.612208333657605 3.2849683216017977 0 0 0
628 0 1 -1.1794 1.8912762597771182 16.683336170900763 3.533069259536171 0 0 0
630 0 2 0.5897 2.8851904512022513 16.83219472788062 3.4992908032285084 0 0 0
1826 0 2 0.5897 4.38123851285884 17.60867218142716 1.6738949732047919 0 0 0
1825 0 1 -1.1794 4.792669150119532 18.367436476595397 1.1307941358028195 0 0 0
1827 0 2 0.5897 4.2495646133322795 18.40279302828697 0.3274511182359508 0 0 0
104 0 2 0.5897 1.3956593084074165 18.25364829183767 2.556765335708338 0 0 1
1385 0 2 0.5897 5.054714678446975 16.800572718423535 4.02448272095445 0 0 0
103 0 1 -1.1794 1.1098043624062284 18.71397789625911 1.7190573290430442 0 0 1
1100 0 2 0.5897 6.430127598000845 18.601483363962693 1.1736494580047243 0 0 1
1077 0 2 0.5897 2.224882261589534 18.71959939746604 0.11390690758231214 0 -1 1
1017 0 2 0.5897 12.057134347178973 19.57770538598641 1.6092631050181192 0 1 2
1063 0 1 -1.1794 8.61242630019106 17.20876731085995 3.450539417983503 0 -1 -1
1101 0 2 0.5897 7.657759932322313 18.20621735256477 2.0898257595466756 0 0 1
1099 0 1 -1.1794 7.357229494876544 18.82917052358465 1.4300306284156186 0 0 1
1065 0 2 0.5897 9.564405173786746 17.284306778838467 3.6837435562987353 0 -1 -1
1521 0 2 0.5897 11.721225337475119 17.959148252533954 3.186649220252105 0 0 1
1519 0 1 -1.1794 11.29853358830765 17.43439092007896 3.923090170899898 0 1 1
128 0 2 0.5897 11.984017215441842 17.43310975565639 0.6072971762862825 0 1 2
2066 0 2 0.5897 0.957077517680878 3.2726921115013137 4.331043211145534 0 1 0
2096 0 2 0.5897 5.87409639607051 0.11427573972718384 4.607084273041161 0 0 1
1624 0 1 -1.1794 3.2147490015132227 1.4130862022606023 6.113511606531246 0 0 0
1626 0 2 0.5897 4.147975754181473 1.5042447196323256 6.410468057437741 0 0 0
295 0 1 -1.1794 5.717061892192018 2.036881056389895 7.1155813602297 0 1 0
1625 0 2 0.5897 2.660213998101482 1.3648459203271759 6.90938718496112 0 0 0
513 0 2 0.5897 2.498403750484669 0.5603360906053572 4.811651953099992 0 0 -1
296 0 2 0.5897 6.145636156661605 2.8026918286788263 6.614191613058547 0 1 0
1395 0 2 0.5897 2.7791620511530053 3.4497260299303796 6.301534804646517 0 1 2
297 0 2 0.5897 6.4052121479507225 1.7355600793369315 7.775252282737852 0 1 0
781 0 1 -1.1794 1.0093187295862165 1.4819697552571998 8.273173782204887 0 0 0
2097 0 2 0.5897 6.538528296756967 0.5802071925849234 5.972557815669062 0 0 1
1439 0 2 0.5897 11.395503721948634 2.6843330669965706 4.190596530757626 0 1 1
1202 0 2 0.5897 9.674188218006575 1.5110442553674288 5.963507784420669 0 1 1
1201 0 1 -1.1794 9.740257448720545 2.0890671729755073 6.712868193786185 0 1 1
1203 0 2 0.5897 9.337916991443862 2.938302635855489 6.438656446010321 0 1 1
2185 0 1 -1.1794 9.232231957019087 0.36795637384259655 4.319440006597718 0 2 0
126 0 2 0.5897 8.58077878824734 1.3351506328265508 8.02350086863172 0 0 0
276 0 2 0.5897 5.563611833735651 4.1228741920531 4.516718833031734 0 0 1
1863 0 2 0.5897 5.806985753228904 6.988503311903804 4.352765041680448 0 0 -1
274 0 1 -1.1794 6.221218827153244 4.201356375083365 5.224884912069658 0 0 1
28 0 1 -1.1794 2.488757499562248 6.3052506883653345 4.563757136255101 0 0 1
1393 0 1 -1.1794 2.9517682714624613 4.359846242305716 6.4702465338658275 0 1 2
30 0 2 0.5897 2.7717663467022517 5.76907116287526 5.304521648372136 0 0 1
1394 0 2 0.5897 2.3145988499401904 4.681403060990629 7.161287711991756 0 1 2
527 0 2 0.5897 4.647602610363858 4.713950966772778 7.2670852399595525 0 1 0
526 0 1 -1.1794 5.024422503723928 5.157893267836001 8.011414114191181 0 1 0
528 0 2 0.5897 5.98620833716388 4.971897051144312 8.10127980309823 0 1 0
29 0 2 0.5897 1.5228125822857375 6.318682032399626 4.654791751913508 0 0 1
275 0 2 0.5897 6.437107904227229 5.1309060422415 5.337170242150088 0 0 1
1861 0 1 -1.1794 6.35206349553131 6.976483026079659 5.147692911541317 0 0 -1
1347 0 2 0.5897 6.0729113160739185 7.834923555104988 6.620885313575936 0 -1 0
2018 0 2 0.5897 2.8309100811750207 7.763733932124635 5.464919917978704 1 -1 0
120 0 2 0.5897 1.8650406490003357 7.861831445452597 7.950829474924762 0 -1 0
334 0 1 -1.1794 0.8130168394740593 5.335507374540698 8.28009984752788 0 0 1
1862 0 2 0.5897 7.193194112419602 7.187039992854592 4.738671371475814 0 0 -1
2179 0 1 -1.1794 8.922642609860924 7.475362064942216 4.412461637381177 0 0 2
1036 0 1 -1.1794 9.4471201211257 5.135288199771135 6.249975628683387 0 1 1
1038 0 2 0.5897 9.186383951371914 5.810207848043955 5.609946327590252 0 1 1
1037 0 2 0.5897 8.91220765951936 5.353909528220543 7.006431643708257 0 1 1
468 0 2 0.5897 11.235957091627391 5.28317774475758 6.249945125302878 0 1 3
466 0 1 -1.1794 12.222564924997254 5.200844506709009 6.023030730751289 0 1 2
758 0 2 0.5897 5.057404299319263 10.123572358157682 4.197748085000763 0 -1 0
1346 0 2 0.5897 4.784574414420718 8.511023532824408 7.0471789819177 0 -1 0
1345 0 1 -1.1794 5.702529729096114 8.312150457476076 7.337897369206818 0 -1 0
2017 0 1 -1.1794 3.1449743288695946 8.46106174721076 6.1026644072774365 0 -1 0
2019 0 2 0.5897 2.7247352096155755 9.332950283284484 5.987893108297752 0 -1 0
533 0 2 0.5897 6.0544385365862965 10.806228538643104 6.393193732492767 0 -1 1
1600 0 1 -1.1794 2.7852012685977026 11.5190238485284 6.2816549510544775 0 -1 0
1602 0 2 0.5897 2.1156741744572436 11.40288445672168 6.942592292458494 0 -1 0
1601 0 2 0.5897 3.495360612921334 11.87081898643121 6.8166111030713346 0 -1 0
532 0 1 -1.1794 6.3214063869174995 11.25349333319273 5.594805633768711 0 -1 1
1042 0 1 -1.1794 0.9366958918795167 11.483590172928196 8.323214098104438 0 0 0
2181 0 2 0.5897 9.016236191621962 8.155787464747279 5.064028323958174 0 0 2
534 0 2 0.5897 7.216948198363448 10.941458817431057 5.292622908391957 0 -1 1
1052 0 2 0.5897 9.185640490451016 8.840470399389742 7.073709984192214 0 3 1
1053 0 2 0.5897 7.666171036565325 8.828386216004658 6.951167731227518 0 3 1
1051 0 1 -1.1794 8.454488602275916 9.208360024606062 6.5135647403511 0 3 1
1941 0 2 0.5897 8.83292662394198 10.81501500704353 6.050942614304885 0 3 -1
1939 0 1 -1.1794 9.27770667091725 11.666115585579954 6.2637518945420805 0 3 -1
313 0 1 -1.1794 10.744537330139195 8.506546704010562 7.738189177309138 0 1 1
1221 0 2 0.5897 11.723031545104277 8.544095824682872 6.284955625010025 0 -2 0
2207 0 2 0.5897 10.427103623653828 11.614348923011917 7.727610725642416 0 -3 -3
314 0 2 0.5897 11.016959510190182 9.419810075822214 7.949693191898433 0 1 1
2206 0 1 -1.1794 11.179089246769308 11.25332044116831 8.188615786982291 0 -3 -3
1219 0 1 -1.1794 12.105681089056382 8.475354613424905 5.400229207801953 0 -2 0
2241 0 2 0.5897 4.973525216204446 13.992299078715769 4.488689784906331 1 0 1
1291 0 1 -1.1794 2.1271470597978723 13.4446470245572 4.399473671508192 0 -2 0
1292 0 2 0.5897 1.186619523458736 13.263039113954065 4.28137096733498 0 -2 0
1293 0 2 0.5897 2.3988187163471415 12.710196147537962 4.9162518841563845 0 -2 0
1277 0 2 0.5897 2.2248336557069637 14.715782655166821 5.671920294974477 0 -1 -1
1340 0 2 0.5897 5.3792673435958385 14.864546450079986 6.3934021256469435 0 -1 0
1276 0 1 -1.1794 2.376435180225581 15.298282153928632 6.412913660576149 0 -1 -1
1339 0 1 -1.1794 5.349035723603405 15.479216094669605 7.164429986380576 0 -1 0
1341 0 2 0.5897 4.400967664422291 15.648693058109561 7.222330145117269 0 -1 0
546 0 2 0.5897 1.8118563886949572 14.523108724682027 7.9225550785803165 0 -1 0
2240 0 2 0.5897 5.861778108950345 13.023371360156727 5.3758853995649885 1 0 1
2239 0 1 -1.1794 5.782002008604256 13.96487286931138 5.0745302649282875 1 0 1
1923 0 2 0.5897 11.913161862974462 13.392528307752748 4.56045605816741 0 -1 2
1566 0 2 0.5897 8.31347501238788 12.0465362335456 7.70944291437592 0 -1 1
1921 0 1 -1.1794 11.990082660477979 12.547593714453978 4.955969168628071 0 -1 2
1922 0 2 0.5897 11.233823996139908 12.068874322064815 4.661304706255392 0 -1 2
1940 0 2 0.5897 9.062958621602005 12.289837626760011 5.545664944448635 0 3 -1
1368 0 2 0.5897 8.025252602602311 13.93649712105548 4.314202680108275 0 2 -1
1366 0 1 -1.1794 8.926929627090937 13.868669686760326 4.639875390319587 0 2 -1
1367 0 2 0.5897 8.90953199117701 14.387419775852175 5.4820887168275245 0 2 -1
291 0 2 0.5897 8.821949618335694 15.48675048370851 7.342523908747569 0 -2 1
289 0 1 -1.1794 9.423202050769588 15.76243810724767 6.6105436541467855 0 -2 1
1558 0 1 -1.1794 11.989281515894568 15.409303351181094 7.600108653865427 0 2 -3
1560 0 2 0.5897 11.504882311753471 15.208702061508507 6.814607790562172 0 2 -3
1338 0 2 0.5897 6.701310814154397 15.150824401115948 8.304996986313094 0 -1 -1
512 0 2 0.5897 1.3359495415514782 19.84342341657165 4.245707514147619 0 -1 -1
511 0 1 -1.1794 2.268455057753834 19.916519546433058 4.179467462970111 0 -1 -1
1278 0 2 0.5897 2.4092367886264876 16.188984053736224 6.119896539643075 0 -1 -1
1860 0 2 0.5897 1.4987550592269105 18.217070290125427 7.558997477393627 0 -1 0
342 0 2 0.5897 2.7974877891312393 18.671210949451837 5.67121724663192 0 -2 1
340 0 1 -1.1794 2.8495498459593547 17.991150131348505 6.356602513428162 0 -2 1
341 0 2 0.5897 3.6850449584604346 18.143647217054017 6.857653578228285 0 -2 1
576 0 2 0.5897 6.147359974519381 16.69447505894504 5.905482819013892 0 1 0
568 0 1 -1.1794 4.94180106606283 18.35308574157828 8.071907853332753 0 -1 1
569 0 2 0.5897 5.898143994419657 18.256068469511387 7.999513551212994 0 -1 1
1858 0 1 -1.1794 0.9944055364101082 18.586512275883663 8.23615587370055 0 -1 0
224 0 2 0.5897 0.8164454136644199 16.780822899623985 4.947213711093966 1 -1 0
1859 0 2 0.5897 1.135047405485102 19.54336195940284 8.207528757870701 0 -1 0
1064 0 2 0.5897 8.134401830724272 17.45262122630033 4.278904131061675 0 -1 -1
2187 0 2 0.5897 8.374998750373882 20.001881217612464 4.554737000212326 0 1 -1
2095 0 1 -1.1794 6.527595912646721 19.962520403770053 5.311113685557264 0 -1 1
575 0 2 0.5897 6.50201034595638 18.180613654450422 5.59822689597786 0 1 0
574 0 1 -1.1794 6.5902927612747515 17.241706163122913 5.248601236767418 0 1 0
290 0 2 0.5897 9.089307586620116 16.642817753696832 6.292226366964736 0 -2 1
2172 0 2 0.5897 9.627741429379544 19.17290585107939 5.685068280564017 0 1 0
2170 0 1 -1.1794 9.715620548503905 18.614499675379317 6.432470711703913 0 1 0
2171 0 2 0.5897 10.53520219530687 18.829147886874676 6.8775560232161235 0 1 0
1290 0 2 0.5897 8.507574632658699 18.412575748289107 7.564033846603238 0 3 -2
1520 0 2 0.5897 11.909133980416067 17.52489738387059 4.7110171749166 0 1 1
1288 0 1 -1.1794 7.802165256081395 18.40746120590079 8.245873813893514 0 3 -2
256 0 1 -1.1794 12.12381996595016 19.24403160002322 8.056580036944828 0 2 5
1088 0 2 0.5897 4.542268260049303 1.2638575585332348 9.660481650555901 0 -1 -1
1087 0 1 -1.1794 4.469248084033277 0.30038435470775116 9.711301134479088 0 -1 -1
1089 0 2 0.5897 4.868782300138796 0.22460998710439353 10.591824649330709 0 -1 -1
877 0 1 -1.1794 4.620690859281216 2.995084650769082 10.212293396388667 0 0 0
879 0 2 0.5897 5.234369304572744 3.1274622944414983 10.985223621291144 0 0 0
306 0 2 0.5897 2.5090200030813516 3.5681877235532506 10.545552301152897 0 1 0
305 0 2 0.5897 1.0677401907734805 3.558452448368916 10.876526578271523 0 1 0
304 0 1 -1.1794 1.6689282735190203 3.4162055812950607 10.116202302561426 0 1 0
123 0 2 0.5897 3.0262210159212697 0.06711316974860275 10.608940814218803 0 0 -1
121 0 1 -1.1794 2.445331321196295 0.03855048044814762 11.361923429200422 0 0 -1
782 0 2 0.5897 1.2627633557907072 2.1381256748780766 8.964561340615408 0 0 0
373 0 1 -1.1794 6.491857059927758 3.5774909366971848 12.113979957077392 0 0 0
878 0 2 0.5897 5.039139942203361 3.582219110647399 9.530158833744007 0 0 0
1057 0 1 -1.1794 5.976294955290926 0.004128028068720625 12.410998880259989 0 0 -1
124 0 1 -1.1794 7.866427826072103 1.2013382564341157 8.678814373259184 0 0 0
543 0 2 0.5897 8.359366324185117 2.3293700717809074 10.074955501981815 0 0 0
541 0 1 -1.1794 8.541444111621477 3.261280412418797 10.213532548758845 0 0 0
542 0 2 0.5897 8.01120962274939 3.485545076086666 10.991937399137262 0 0 0
1964 0 2 0.5897 10.332804514412393 3.824254555598843 9.531313412247671 0 1 1
2195 0 2 0.5897 7.722603286837116 0.2638407127596539 11.941858334831508 0 0 0
125 0 2 0.5897 7.876471961002056 0.23469901405293586 8.668425876049733 0 0 0
2194 0 1 -1.1794 8.654619786318555 0.35301446992544055 11.71372288564485 0 0 0
2196 0 2 0.5897 9.091780351924024 0.9895776602152295 12.3187544732428 0 0 0
72 0 2 0.5897 11.856946119691631 3.1864603156052165 12.008256184720608 0 2 2
6 0 2 0.5897 1.358095797866679 6.54237111590089 11.192808473351944 0 0 1
230 0 2 0.5897 4.400313013062581 6.535104355580099 8.903961468007058 1 0 -1
4 0 1 -1.1794 2.2903321548017437 6.571698139060543 11.467165086436907 0 0 1
5 0 2 0.5897 2.933530352477745 6.848809707733797 10.739527694655647 0 0 1
116 0 2 0.5897 5.921971531537318 6.522517562886172 10.825394683239036 0 0 0
229 0 1 -1.1794 4.334116231360461 7.078623946252694 9.736803457008262 1 0 -1
335 0 2 0.5897 1.2177893116668639 4.578883751154836 8.791610012183115 0 0 1
336 0 2 0.5897 1.0144030002681177 6.195578068742363 8.694405302924054 0 0 1
115 0 1 -1.1794 6.448264492254298 6.260694223087426 11.553470668138214 0 0 0
118 0 1 -1.1794 1.1478633071537845 7.892865941645844 8.570789162117402 0 -1 0
231 0 2 0.5897 4.554031366651076 7.976618396410746 9.484853961284609 1 0 -1
375 0 2 0.5897 6.462322437275537 4.550939210381987 12.181892416294446 0 0 0
504 0 2 0.5897 3.043617784580914 4.780933198049992 12.30146836478866 1 0 0
117 0 2 0.5897 6.268491725902274 6.873062889406643 12.295182402096783 0 0 0
315 0 2 0.5897 10.858123481992482 7.985199906148324 8.57994708154908 0 1 1
1963 0 1 -1.1794 11.142916118561175 4.051774327667898 9.041244925116164 0 1 1
625 0 1 -1.1794 7.835076257542853 5.312837024229685 8.424627067741238 0 -3 3
627 0 2 0.5897 7.706940162322521 6.195513558227303 8.81999725371915 0 -3 3
1965 0 2 0.5897 11.046154700710952 5.023402531093765 9.070120581581657 0 1 1
626 0 2 0.5897 8.141796312327427 4.702059305520363 9.143977574119775 0 -3 3
74 0 2 0.5897 10.320105699526943 6.920974459294371 10.44567301292082 0 0 -2
2039 0 2 0.5897 8.17182291728324 7.011629547110298 11.4087279294242 0 0 0
2038 0 1 -1.1794 9.061832685742946 7.074439502041286 11.701887244518904 0 0 0
73 0 1 -1.1794 10.950560054630113 6.710719117406033 9.686463853588078 0 0 -2
2040 0 2 0.5897 9.190496691911994 7.755489261863497 12.391249068248655 0 0 0
71 0 2 0.5897 11.790258723837935 4.0875403626363935 10.740247449441641 0 2 2
75 0 2 0.5897 11.733540290535492 7.12843409686417 10.109356116175345 0 0 -2
70 0 1 -1.1794 11.878860475071145 4.099721041345048 11.701213472638191 0 2 2
358 0 1 -1.1794 7.531402317504919 7.966398304796669 9.286210303755182 0 1 0
1078 0 1 -1.1794 4.821542422229609 11.718488387960466 8.395124590021204 0 -1 -1
585 0 2 0.5897 1.2891058071076804 10.471398202821758 9.716112244246215 0 0 -1
1350 0 2 0.5897 4.532821657554388 10.255115280890115 9.29443828618473 0 -1 -2
1348 0 1 -1.1794 4.386262508579097 9.730151709057 10.062054629015622 0 -1 -2
1349 0 2 0.5897 3.4389292156825135 9.755696716725467 10.247577881625162 0 -1 -2
81 0 2 0.5897 5.4212239516819505 10.253531899655574 11.334471398738737 0 0 -1
583 0 1 -1.1794 1.4401801561499605 9.755497491458478 10.364262641946304 0 0 -1
119 0 2 0.5897 1.2486906099974648 8.508290360282967 9.33395049311595 0 -1 0
79 0 1 -1.1794 6.154695420532737 10.493651168715695 12.040432550846754 0 0 -1
360 0 2 0.5897 6.662171751653595 8.13656726562746 8.931723970565992 0 1 0
359 0 2 0.5897 7.866959082423596 8.824129016959738 9.6594600435231 0 1 0
80 0 2 0.5897 7.023697202226241 10.325258535121916 11.606345248806829 0 0 -1
1173 0 2 0.5897 8.472394333805486 11.016024000773175 9.62541806586407 0 1 1
1171 0 1 -1.1794 8.449473904570429 10.465416875459141 10.45241922450562 0 1 1
1172 0 2 0.5897 9.433027406498814 10.198948885163304 10.50465012371419 0 1 1
802 0 1 -1.1794 11.121040449114654 9.792887340304091 11.18643501542096 0 -2 -1
803 0 2 0.5897 11.480338837378415 9.36762577359682 12.001786880543998 0 -2 -1
804 0 2 0.5897 11.876514166430775 10.069726507674602 10.721417417224753 0 -2 -1
2208 0 2 0.5897 11.062724471923751 11.53566982531903 9.12649260330555 0 -3 -3
699 0 2 0.5897 8.675430627137004 11.89737470566072 12.11799315003532 0 -1 1
1079 0 2 0.5897 5.774842618590041 12.066267282580805 8.40446239350353 0 -1 -1
1080 0 2 0.5897 4.427182592985897 12.328684564736669 9.003081241121006 0 -1 -1
544 0 1 -1.1794 1.252026927917408 14.18441951624747 8.63642662924094 0 -1 0
1043 0 2 0.5897 0.9741619466540128 12.410655714418972 8.425758370242267 0 0 0
87 0 2 0.5897 4.489390084812436 14.79436313536153 10.023472058233772 0 -2 1
85 0 1 -1.1794 4.342711683401865 13.829507506948563 10.177336325916539 0 -2 1
86 0 2 0.5897 4.902073438193221 13.654494033269618 10.94407935303303 0 -2 1
1028 0 2 0.5897 2.8015082507876925 13.742067211395476 11.12891130123038 0 -1 0
1027 0 1 -1.1794 2.2409511816374144 13.299543326623839 11.816897529174136 0 -1 0
545 0 2 0.5897 1.2406895868226269 14.975937772262693 9.223553603931123 0 0 0
1118 0 2 0.5897 6.3396185181221405 12.175681138177291 11.835457305566917 0 -1 0
1117 0 1 -1.1794 6.403636740714792 13.144444928742923 11.985360104772104 0 -1 0
1564 0 1 -1.1794 7.999169294995055 12.250886557792493 8.569943804591356 0 -1 1
1336 0 1 -1.1794 7.535529581389463 14.841002456920016 8.655406577362887 0 -1 -1
1565 0 2 0.5897 7.9479175133465585 13.212820605182689 8.747678210045443 0 -1 1
1161 0 2 0.5897 9.835603143075845 13.89584893821954 10.510549250591403 0 -3 0
1119 0 2 0.5897 7.218727356444838 13.427016206284426 11.498022940254986 0 -1 0
1159 0 1 -1.1794 8.980420430135432 13.884600702041109 11.005164139275443 0 -3 0
2221 0 1 -1.1794 11.38974377822412 13.337758458002657 10.038060830571856 0 0 0
1337 0 2 0.5897 7.779939038091048 15.249978346980235 9.472881469529291 0 -1 -1
1160 0 2 0.5897 9.123689358783555 14.530601708741724 11.729579396254767 0 -3 0
2223 0 2 0.5897 11.716906913835047 13.084791827211248 10.971212118366688 0 0 -1
2222 0 2 0.5897 12.151277106139187 13.909665290551951 9.82374493907273 0 0 0
570 0 2 0.5897 4.783690899758782 19.170495838266408 8.529957607556948 0 -1 1
122 0 2 0.5897 2.6256983040763058 19.2318325265036 11.795129375050658 0 -1 -1
1810 0 1 -1.1794 4.229672953660254 16.49190762704125 10.035852389684086 0 0 -1
1812 0 2 0.5897 4.376119971427503 17.13414803647868 9.347832371937919 0 0 -1
1811 0 2 0.5897 3.3635334933408156 16.73568609392463 10.435323103840533 0 0 -1
1820 0 2 0.5897 5.621938598742674 16.95897252302768 11.63026961551853 0 0 1
1129 0 1 -1.1794 1.4226734895688058 16.615314913382946 10.321534707751404 0 1 -1
1131 0 2 0.5897 1.224332572688775 17.287238538106596 9.631619798031643 0 1 -1
1819 0 1 -1.1794 6.193206457921864 17.14459824682325 12.361448864527846 0 0 1
258 0 2 0.5897 11.911996947660905 19.29599836328506 8.962915700335879 0 2 5
1398 0 2 0.5897 10.10005378176511 19.5302941093267 10.775654024584492 0 -3 1
1326 0 2 0.5897 11.378555439869384 16.13149288478436 9.327379673735622 0 -2 0
1325 0 2 0.5897 11.479693563038325 16.100561803426366 10.801945861967415 0 -2 0
1396 0 1 -1.1794 10.956652893843293 19.14907592192248 10.641197155974364 0 -3 1
1324 0 1 -1.1794 10.876788685274807 16.397278678079456 10.109677103520855 0 -2 0
851 0 2 0.5897 8.948027814652805 16.554925972907757 10.791904946983472 0 -2 0
1397 0 2 0.5897 10.836228792841363 18.26617533201251 10.330867764902646 0 -3 1
1289 0 2 0.5897 8.213184747469716 18.017627113896904 9.024156271486937 0 3 -2
852 0 2 0.5897 7.589324072810566 17.069142549474886 11.337180350309856 0 -1 0
850 0 1 -1.1794 8.132444616292737 17.00784372001988 10.533451299905062 0 -2 0
1710 0 2 0.5897 12.111015506949265 19.066808883826717 12.021139267639303 0 2 1
508 0 1 -1.1794 1.0005829933891253 1.2216431550683502 15.422450468050004 0 -1 -1
509 0 2 0.5897 1.1318744127118583 0.3432520881002033 15.794755428275334 0 -1 -1
1232 0 2 0.5897 2.719496096145785 1.191556560651315 12.633410608658911 1 0 0
1059 0 2 0.5897 5.794111106710505 0.6387589782248515 13.129816401233025 0 0 -1
1231 0 1 -1.1794 2.7609773362589354 1.9339319672319941 13.353554114590814 1 0 0
33 0 2 0.5897 4.475488122245369 2.1402925447848715 14.110949833545902 0 0 1
1233 0 2 0.5897 2.051908675702121 1.6769700245487411 13.913994860137711 1 0 0
31 0 1 -1.1794 5.44259919805096 2.0569671229725164 14.080907219581276 0 0 0
32 0 2 0.5897 5.856625202036662 2.1416637321653513 14.945520484413777 0 0 0
374 0 2 0.5897 6.3325148568300875 3.1596423700715057 12.948486541148515 0 0 0
510 0 2 0.5897 0.9844167156546869 1.7942088932281095 16.275761824792266 0 -1 -1
503 0 2 0.5897 3.132077060741916 3.41984257400419 13.066906159547896 1 0 0
1144 0 1 -1.1794 7.585629301893909 1.6654961412908222 15.613585429430799 0 2 1
1335 0 2 0.5897 8.891688451331424 1.817579642177835 14.24510459882532 0 -2 3
1333 0 1 -1.1794 9.648618441748246 2.150399855137803 13.725284760235377 0 -2 3
1334 0 2 0.5897 9.645734315063768 3.139227471441636 13.543502803989966 0 -2 3
1146 0 2 0.5897 7.585717645629705 0.6857015013165315 15.848747513902136 0 2 1
1035 0 2 0.5897 10.556211138599732 1.3409014055391708 15.381387553213843 0 -2 0
1033 0 1 -1.1794 10.882345651136056 0.7158959505451141 16.10362797789591 0 -2 0
1145 0 2 0.5897 8.114413739974152 2.0759661313616267 16.31732801779981 0 2 1
1404 0 2 0.5897 12.195410167556071 2.8028510085067007 16.31097311706522 0 1 -1
1504 0 1 -1.1794 1.285465885323982 7.787294219721684 15.789527980214508 1 0 0
797 0 2 0.5897 4.629933044033526 4.62632681557256 15.659075183524736 0 2 1
1779 0 2 0.5897 1.9441014940203447 4.973590400955126 14.224756233035796 0 0 0
502 0 1 -1.1794 3.3797646424249557 4.367160011999129 13.111531252939336 1 0 0
798 0 2 0.5897 4.667409209177212 5.10775384787138 14.210364129703471 0 2 1
796 0 1 -1.1794 5.078849897404954 5.300301886327991 15.090798718633778 0 2 1
2052 0 2 0.5897 4.766102185337264 6.597726013777909 16.37599589663733 0 0 0
311 0 2 0.5897 2.7200424568473824 7.6566908086198495 12.92845364706852 0 0 -1
2058 0 2 0.5897 1.1742377785839502 4.0186288347077594 16.555888937654114 0 0 0
312 0 2 0.5897 2.5413507817840815 7.854909590861485 14.51134099230502 0 0 -1
93 0 2 0.5897 4.9339862386911335 7.996896757922377 13.807057023817233 0 1 -2
310 0 1 -1.1794 3.2021594114752565 7.970832038192917 13.764025954245044 0 0 -1
1505 0 2 0.5897 1.2895109029133152 6.824052409326495 15.845510266440545 1 0 0
1777 0 1 -1.1794 1.233312439074995 5.0621247827225435 14.964877539110436 0 0 0
301 0 1 -1.1794 11.572387533433831 5.64510740756547 15.235666505547169 0 0 1
303 0 2 0.5897 11.754701596033447 4.792839525373736 15.643561115997457 0 0 1
1091 0 2 0.5897 9.253325487217156 5.4922497270506385 12.763891243932484 0 1 2