LAMMPS (23 Jun 2022)
echo both

include		in.partitions
variable        pid world 0
include		in.temp
variable	temperature equal 270.0
variable        tempDamp equal 0.100 # this is 0.1 ps
include		in.pressure
variable        pressure equal 6079.5
variable        pressureDamp equal 1.0 #this is 1ps
include		in.seed
variable        seed world 745823

units           metal
atom_style	full
read_restart	restart.lmp.${pid}
read_restart	restart.lmp.0
Reading restart file ...
  restart file = 23 Jun 2022, LAMMPS = 23 Jun 2022
  restoring atom style full from restart
  orthogonal box = (0.75439721 0 0) to (46.696302 20.047001 20.857)
  4 by 1 by 1 MPI processor grid
Summary of lammps deepmd module ...
  >>> Info of deepmd-kit:
  installed to:       /u/sigbjobo/software/DEEPMD_FROM_SOURCE/deepmd-kit/install
  source:             v2.1.3
  source branch:       master
  source commit:      5a32c49
  source commit at:   2022-07-01 09:52:58 +0800
  surpport model ver.:1.1 
  build float prec:   double
  build with tf inc:  /u/sigbjobo/software/DEEPMD_FROM_SOURCE/tensorflow/install/include;/u/sigbjobo/software/DEEPMD_FROM_SOURCE/tensorflow/install/include
  build with tf lib:  /u/sigbjobo/software/DEEPMD_FROM_SOURCE/tensorflow/install/lib/libtensorflow_cc.so;/u/sigbjobo/software/DEEPMD_FROM_SOURCE/tensorflow/install/lib/libtensorflow_framework.so
  set tf intra_op_parallelism_threads: 0
  set tf inter_op_parallelism_threads: 0
  >>> Info of lammps module:
  use deepmd-kit at:  /u/sigbjobo/software/DEEPMD_FROM_SOURCE/deepmd-kit/install
  source:             v2.1.3
  source branch:      master
  source commit:      5a32c49
  source commit at:   2022-07-01 09:52:58 +0800
  build float prec:   double
  build with tf inc:  /u/sigbjobo/software/DEEPMD_FROM_SOURCE/tensorflow/install/include;/u/sigbjobo/software/DEEPMD_FROM_SOURCE/tensorflow/install/include
  build with tf lib:  /u/sigbjobo/software/DEEPMD_FROM_SOURCE/tensorflow/install/lib/libtensorflow_cc.so;/u/sigbjobo/software/DEEPMD_FROM_SOURCE/tensorflow/install/lib/libtensorflow_framework.so
  restoring pair style deepmd from restart
  2268 atoms
Finding 1-2 1-3 1-4 neighbors ...
  special bond factors lj:    0        0        0       
  special bond factors coul:  0        0        0       
     0 = max # of 1-2 neighbors
     0 = max # of 1-3 neighbors
     0 = max # of 1-4 neighbors
     1 = max # of special neighbors
  special bonds CPU = 0.000 seconds
  read_restart CPU = 0.030 seconds
include 	in.setup
variable	out_freq equal 500
variable	out_freq2 equal 1000
variable	out_freq3 equal 5000

timestep        0.0005

neigh_modify    delay 7 every 1

include         in.deepmd
# This is deepMD model

# create groups ###
#group ox type 2
#group hy type 1

mass 2 15.999
mass 1 1.008

pair_style      deepmd ../graph.pb
pair_coeff      * *

bond_style      none
angle_style     none
dihedral_style  none
improper_style  none
neigh_modify exclude none


neighbor        2.0 bin
neigh_modify    every 10 delay 0 check no

thermo          ${out_freq}
thermo          500
thermo_style 	custom step temp pe etotal epair emol press lx ly lz vol pxx pyy pzz pxy pxz pyz
#thermo_modify	flush yes
restart 	${out_freq} restart.lmp.${pid} restart2.lmp.${pid}
restart 	500 restart.lmp.${pid} restart2.lmp.${pid}
restart 	500 restart.lmp.0 restart2.lmp.${pid}
restart 	500 restart.lmp.0 restart2.lmp.0

include		in.dump
dump            myDump all atom ${out_freq3} dump.water.${pid}
dump            myDump all atom 5000 dump.water.${pid}
dump            myDump all atom 5000 dump.water.0
dump            myDump2 all dcd ${out_freq2} dump.dcd.${pid}
dump            myDump2 all dcd 1000 dump.dcd.${pid}
dump            myDump2 all dcd 1000 dump.dcd.0
dump_modify     myDump append yes
dump_modify     myDump2 append yes


timer           timeout 23:50:00 every 1000
New timer settings: style=normal  mode=nosync  timeout=23:50:00

fix             1 all plumed plumedfile plumed.dat outfile plumed.out
fix             3 all nph x ${pressure} ${pressure} ${pressureDamp}
fix             3 all nph x 6079.5 ${pressure} ${pressureDamp}
fix             3 all nph x 6079.5 6079.5 ${pressureDamp}
fix             3 all nph x 6079.5 6079.5 1
fix             4 all temp/csvr ${temperature} ${temperature} ${tempDamp} ${seed}
fix             4 all temp/csvr 270 ${temperature} ${tempDamp} ${seed}
fix             4 all temp/csvr 270 270 ${tempDamp} ${seed}
fix             4 all temp/csvr 270 270 0.1 ${seed}
fix             4 all temp/csvr 270 270 0.1 745823

run             40000000 upto

CITE-CITE-CITE-CITE-CITE-CITE-CITE-CITE-CITE-CITE-CITE-CITE-CITE

Your simulation uses code contributions which should be cited:

- USER-DEEPMD package:

@article{Wang_ComputPhysCommun_2018_v228_p178,
  author = {Wang, Han and Zhang, Linfeng and Han, Jiequn and E, Weinan},
  doi = {10.1016/j.cpc.2018.03.016},
  url = {https://doi.org/10.1016/j.cpc.2018.03.016},
  year = 2018,
  month = {jul},
  publisher = {Elsevier {BV}},
  volume = 228,
  journal = {Comput. Phys. Commun.},
  title = {{DeePMD-kit: A deep learning package for many-body potential energy representation and molecular dynamics}},
  pages = {178--184}
}

CITE-CITE-CITE-CITE-CITE-CITE-CITE-CITE-CITE-CITE-CITE-CITE-CITE

Generated 0 of 1 mixed pair_coeff terms from geometric mixing rule
Neighbor list info ...
  update every 10 steps, delay 0 steps, check no
  max neighbors/atom: 2000, page size: 100000
  master list distance cutoff = 8
  ghost atom cutoff = 8
  binsize = 4, bins = 12 6 6
  1 neighbor lists, perpetual/occasional/extra = 1 0 0
  (1) pair deepmd, perpetual
      attributes: full, newton on
      pair build: full/bin
      stencil: full/bin/3d
      bin: standard
Per MPI rank memory allocation (min/avg/max) = 6.185 | 6.188 | 6.19 Mbytes
   Step          Temp          PotEng         TotEng         E_pair         E_mol          Press            Lx             Ly             Lz           Volume          Pxx            Pyy            Pzz            Pxy            Pxz            Pyz      
  33104000   270.0277      -346.80987     -267.68291     -346.80987      0              7369.1209      45.941905      20.047001      20.857         19209.243      7560.2739      8051.4964      6495.5924     -1537.8453     -302.43372      2080.8991    
  33104500   277.23282     -349.33031     -268.09201     -349.19951      0              6734.4937      45.793828      20.047001      20.857         19147.329      9042.1548      5565.1042      5596.2219      1218.9042     -989.46503      187.6108     
  33105000   271.10712     -347.71379     -268.27053     -347.5826       0              5131.425       45.520968      20.047001      20.857         19033.241      6680.7266      3072.3887      5641.1598     -2078.5616      153.47276      1035.0402    
  33105500   275.2946      -350.69343     -270.0231      -350.57267      0              5848.5402      45.55855       20.047001      20.857         19048.954      6272.0826      5806.2239      5467.314      -691.01279     -774.54844      342.41246    
  33106000   271.6185      -347.96004     -268.36692     -347.83409      0              3859.2454      45.946285      20.047001      20.857         19211.074      3567.6557      2894.9527      5115.1278      560.5081      -1517.598       3003.743     
  33106500   273.32764     -347.09515     -267.0012      -346.98144      0              3193.7788      45.928606      20.047001      20.857         19203.683      3342.8725      3920.2342      2318.2297      2094.8849     -778.46774     -1269.5382    
  33107000   269.5866      -347.14638     -268.14867     -346.98715      0              6469.9681      45.512488      20.047001      20.857         19029.695      8995.1935      3883.2428      6531.4681     -1269.8494      499.9884       1826.0151    
  33107500   268.93935     -349.53157     -270.72353     -349.40158      0              6058.5733      45.702231      20.047001      20.857         19109.03       5638.3298      6035.3864      6502.0038     -618.93917     -305.55653     -445.56221    
  33108000   264.70018     -348.51938     -270.95356     -348.4167       0              3008.6553      45.8599        20.047001      20.857         19174.955      3241.6218      1972.8472      3811.4967     -1701.2376      180.9951       703.6971     
  33108500   268.55466     -349.47885     -270.78354     -349.32919      0              4194.4351      45.682354      20.047001      20.857         19100.72       4908.1301      4705.7056      2969.4695     -1703.3548     -1113.1302      1376.8819    
  33109000   274.16755     -349.95744     -269.61737     -349.8404       0              7110.6916      45.563592      20.047001      20.857         19051.063      7359.2892      8662.5904      5310.1953     -163.17755     -1042.8314     -786.90602    
  33109500   261.33475     -347.96243     -271.38279     -347.80298      0              4365.3442      45.727316      20.047001      20.857         19119.519      6296.2029      4346.0871      2453.7425     -497.12514      402.92487      2129.722     
  33110000   268.42362     -349.72996     -271.07305     -349.59226      0              5869.677       45.857932      20.047001      20.857         19174.132      7338.8244      3791.6511      6478.5555      936.9925       414.13127      505.89192    
  33110500   271.31906     -351.69676     -272.19139     -351.54928      0              5720.3968      45.605215      20.047001      20.857         19068.466      6249.5999      7011.2068      3900.3838     -586.91306     -633.91927     -556.86094    
  33111000   267.32117     -347.66763     -269.33377     -347.54415      0              3159.8485      45.695742      20.047001      20.857         19106.317      2336.7291      3325.5349      3817.2814      333.63792     -1327.1064     -1116.8224    
  33111500   271.6834      -349.12718     -269.51504     -348.97628      0              3856.2224      45.872691      20.047001      20.857         19180.303      4292.2752      4332.0569      2944.3352     -467.40501      340.35125     -2306.2642    
  33112000   266.23118     -348.90588     -270.89143     -348.749        0              4833.2559      45.662077      20.047001      20.857         19092.241      5084.3891      3603.6616      5811.717       1292.4858      690.43022     -162.76222    
  33112500   266.87489     -349.9034      -271.70032     -349.77455      0              4359.8659      45.636944      20.047001      20.857         19081.733      5441.1098      4049.9077      3588.5802      165.4807       1585.9438     -2609.0644    
  33113000   279.45005     -350.11643     -268.22841     -349.99531      0              3336.2636      45.67723       20.047001      20.857         19098.577      3202.3572      3773.754       3032.6797      329.54754      466.66865      536.48768    
  33113500   272.15062     -348.92504     -269.17599     -348.79833      0              4322.8752      45.656974      20.047001      20.857         19090.107      4146.3733      3795.8504      5026.4017      665.22573     -1186.4546      412.15878    
  33114000   267.99568     -346.27955     -267.74804     -346.14408      0              3943.6183      45.956389      20.047001      20.857         19215.299      2832.9497      5124.1849      3873.7204      482.6649      -274.74298      340.78449    
  33114500   283.72806     -347.57885     -264.43724     -347.41731      0              6265.8354      45.895938      20.047001      20.857         19190.024      6357.631       5530.6421      6909.233       131.67886      37.931699      1092.4763    
  33115000   270.79552     -348.14801     -268.79605     -347.99377      0              5746.0472      45.810989      20.047001      20.857         19154.504      8389.1347      2950.6607      5898.3462     -516.73195      2847.5989     -1835.6561    
  33115500   267.19386     -348.9687      -270.67215     -348.83849      0              5022.207       45.850565      20.047001      20.857         19171.052      4116.2166      6159.7595      4790.645       1127.9509     -2261.526       876.89644    
  33116000   268.43604     -348.16166     -269.5011      -348.0222       0              3621.292       45.911965      20.047001      20.857         19196.724      3055.2309      4753.0795      3055.5657     -713.00638      1695.1056     -2788.6502    
  33116500   270.78128     -347.64669     -268.2989      -347.5072       0              7222.6758      45.754706      20.047001      20.857         19130.971      7387.1565      7144.137       7136.7338      1156.1741     -916.98446      2257.4315    
  33117000   269.66413     -346.57467     -267.55425     -346.42807      0              4788.4377      45.643072      20.047001      20.857         19084.295      4522.9152      3087.1209      6755.2769     -1392.3618     -595.44097      553.75986    
  33117500   273.13242     -351.36675     -271.33001     -351.23528      0              6096.5331      45.828834      20.047001      20.857         19161.966      7594.5678      3097.2759      7597.7557      1852.9607      2058.8806      1139.5153    
  33118000   266.21992     -351.15607     -273.14492     -351.01536      0              3944.2812      46.008028      20.047001      20.857         19236.891      3569.7405      4103.7239      4159.3791     -84.662859     -929.78361     -158.0839     
  33118500   263.15022     -351.47726     -274.36563     -351.31043      0              4861.1771      45.730929      20.047001      20.857         19121.03       8045.7942      2911.4909      3626.2461      907.57111      1522.1917      123.40456    
  33119000   268.43288     -348.73613     -270.0765      -348.6191       0              3081.4504      45.687105      20.047001      20.857         19102.706      5121.1556      2223.4884      1899.7072     -717.09442      1399.9148      201.75877    
  33119500   271.98053     -350.79218     -271.09298     -350.66452      0              5479.3084      45.890722      20.047001      20.857         19187.842      6948.987       1885.7957      7603.1423     -782.66082     -84.842179     -1463.5436    
  33120000   273.61032     -351.40675     -271.22996     -351.28536      0              4165.4704      45.58991       20.047001      20.857         19062.067      6734.1001      2967.7049      2794.6063     -176.95408     -2241.9581      218.23747    
  33120500   274.90421     -351.7476      -271.19166     -351.61718      0              6215.1543      45.505131      20.047001      20.857         19026.619      8905.9242      2715.7238      7023.8148      1086.4901      1357.182      -614.94743    
  33121000   268.26894     -351.00869     -272.39711     -350.8646       0              4832.7564      45.962971      20.047001      20.857         19218.051      3704.4035      5574.0968      5219.7688      787.1247      -981.84124      1673.8162    
  33121500   272.02518     -351.35914     -271.64686     -351.1936       0              4258.1052      46.012064      20.047001      20.857         19238.578      4336.8635      3323.2834      5114.1688     -913.78789      814.07734     -902.59954    
  33122000   269.16459     -352.69776     -273.82372     -352.53188      0              4745.1638      45.599075      20.047001      20.857         19065.899      3525.8949      8164.0919      2545.5046      1803.686      -525.17036     -830.80919    
  33122500   266.60116     -350.86758     -272.74471     -350.74057      0              6632.1908      45.509847      20.047001      20.857         19028.591      6110.0063      7528.3088      6258.2573      536.01413     -891.00277      290.39694    
  33123000   269.67052     -351.90573     -272.88344     -351.78592      0              4941.1135      45.795839      20.047001      20.857         19148.17       6407.1108      5282.6323      3133.5975     -16.990745     -549.35366     -1064.9074    
  33123500   268.64929     -351.09854     -272.37551     -350.96785      0              6827.2088      45.8481        20.047001      20.857         19170.021      9823.4485      3711.5861      6946.592       112.50657     -762.76535      379.34416    
  33124000   255.81569     -348.67962     -273.71724     -348.54871      0              6983.0406      45.790601      20.047001      20.857         19145.98       6544.4429      7884.2324      6520.4466     -1586.5198     -325.50762      1480.6305    
  33124500   266.59253     -350.33562     -272.21528     -350.20413      0              4717.6305      45.750158      20.047001      20.857         19129.07       5244.9867      2117.0174      6790.8874     -241.05825     -1361.8479      1041.2354    
  33125000   271.16845     -353.97771     -274.51647     -353.8114       0              6661.219       45.689331      20.047001      20.857         19103.637      5978.6218      6737.2333      7267.8018      905.49127      446.86182     -241.36003    
  33125500   259.65398     -351.28487     -275.19775     -351.11846      0              5954.3602      45.792242      20.047001      20.857         19146.666      6186.184       6094.5196      5582.3769     -333.39973     -690.08568      894.43672    
  33126000   265.80838     -349.42223     -271.53167     -349.2576       0              5396.9724      45.767203      20.047001      20.857         19136.196      6998.7562      5483.6519      3708.5091      1065.8841     -850.3383      -473.32777    
  33126500   269.63204     -350.21997     -271.20895     -350.06248      0              4437.3033      45.747381      20.047001      20.857         19127.909      4782.9453      4328.7708      4200.1938     -133.02913      1362.2155      481.15346    
  33127000   273.45519     -354.75375     -274.62243     -354.59349      0              4775.0342      45.910841      20.047001      20.857         19196.254      6186.168       4005.3134      4133.6211     -966.1857      -923.12419      389.96082    
  33127500   269.64119     -350.9966      -271.98291     -350.85801      0              5688.6188      45.984173      20.047001      20.857         19226.916      5714.2654      6625.464       4726.1269     -217.6985      -495.94629     -96.137244    
  33128000   271.46468     -348.62929     -269.08125     -348.49896      0              6026.0884      45.77856       20.047001      20.857         19140.945      8114.328       6246.8574      3717.0798      350.58377      659.33197      1306.671     
  33128500   266.82628     -349.16909     -270.98025     -349.04266      0              5703.7957      45.866673      20.047001      20.857         19177.787      4893.4639      7604.2238      4613.6995     -1600.2584      628.13677     -310.95113    
  33129000   278.35497     -349.41858     -267.85145     -349.31114      0              3938.0803      46.029619      20.047001      20.857         19245.918      4204.4242      3673.9492      3935.8675     -868.72089      260.71774     -342.42541    
  33129500   271.43214     -349.75538     -270.21687     -349.61745      0              5270.4262      46.117041      20.047001      20.857         19282.471      3865.9802      6484.7766      5460.5216      445.66183      1101.1926      189.96035    
  33130000   277.39704     -348.71837     -267.43196     -348.55884      0              7067.7761      45.948855      20.047001      20.857         19212.149      9492.711       6180.813       5529.8044     -192.44438      291.38395      555.39712    
  33130500   260.24076     -349.28615     -273.02708     -349.17277      0              5503.9386      45.944945      20.047001      20.857         19210.514      5557.5552      4875.2983      6078.9623     -342.97541     -31.783925      784.97901    
  33131000   276.69031     -351.51015     -270.43082     -351.38997      0              4528.7862      45.860528      20.047001      20.857         19175.218      3377.5067      7071.055       3137.7969      1067.7458     -1025.9182      1738.3153    
  33131500   273.62465     -351.76338     -271.58239     -351.63248      0              3787.5368      45.723536      20.047001      20.857         19117.938      2687.8218      5485.2627      3189.526      -869.40824      297.05446      1991.2105    
  33132000   267.61386     -351.49304     -273.07341     -351.37806      0              5001.6006      45.81495       20.047001      20.857         19156.161      5486.4287      4954.253       4564.1201      948.51491     -338.02592      140.93939    
  33132500   269.16844     -350.38119     -271.50602     -350.25043      0              3720.7184      45.943872      20.047001      20.857         19210.065      3522.3754      3411.9945      4227.7853      98.546007      373.80671     -176.5009     
  33133000   269.21964     -352.68932     -273.79915     -352.58035      0              5902.7916      46.076442      20.047001      20.857         19265.496      5952.2145      5561.6717      6194.4886      2928.8723     -1767.3068      851.70639    
  33133500   265.99177     -348.01946     -270.07516     -347.9214       0              6064.4383      46.20379       20.047001      20.857         19318.743      6595.5808      5676.1908      5921.5433      425.23258     -1101.4793      665.56522    
  33134000   276.37339     -346.53453     -265.54808     -346.44201      0              6214.3111      46.052283      20.047001      20.857         19255.395      6620.5538      6582.3499      5440.0297      377.54243     -314.00716     -228.86449    
  33134500   278.5873      -351.27733     -269.64213     -351.1717       0              7051.8222      45.906686      20.047001      20.857         19194.518      7700.9063      7504.4312      5950.1293     -939.93188     -747.11247      1310.4179    
  33135000   279.74539     -349.69188     -267.71732     -349.56236      0              4608.2841      45.976202      20.047001      20.857         19223.583      4594.0797      3734.203       5496.5695     -217.71829      851.05117      634.70937    
  33135500   274.83203     -351.0175      -270.48272     -350.88639      0              6070.5011      46.128478      20.047001      20.857         19287.253      8271.3292      5081.759       4858.4152     -58.22345      -1224.5611     -1296.6284    
  33136000   270.481       -350.55141     -271.29161     -350.41748      0              6074.0347      46.218675      20.047001      20.857         19324.966      8017.0271      3382.8298      6822.2473      408.67857     -49.736825      1200.0569    
  33136500   274.21715     -349.24817     -268.89357     -349.11659      0              7333.3744      45.983169      20.047001      20.857         19226.497      8132.4349      5559.8022      8307.8861      47.077782      759.41425      1498.9655    
  33137000   273.52247     -349.06637     -268.91533     -348.96103      0              4299.6037      45.715         20.047001      20.857         19114.369      2559.3987      5571.385       4768.0273     -58.727257     -1597.0224      892.40199    
  33137500   262.83624     -351.36605     -274.34643     -351.2379       0              5302.1012      45.97862       20.047001      20.857         19224.594      6336.6571      5244.0336      4325.613       534.56661     -1592.1654      922.25671    
  33138000   267.02389     -353.1961      -274.94936     -353.06499      0              7013.7481      46.180267      20.047001      20.857         19308.907      6836.718       7638.7971      6565.7291     -91.933953      1157.9026     -194.9944     
  33138500   261.21065     -352.81907     -276.27579     -352.68883      0              5085.6904      46.173909      20.047001      20.857         19306.249      5471.8077      4087.1992      5698.0641     -79.83868      -707.30516      472.01229    
  33139000   271.21626     -354.43839     -274.96314     -354.30678      0              4863.447       45.995897      20.047001      20.857         19231.818      6867.3027      3797.1564      3925.882      -56.962898      724.7105       159.47876    
  33139500   266.54498     -350.26769     -272.16128     -350.14004      0              5344.2916      46.038107      20.047001      20.857         19249.467      7378.6478      3811.162       4843.0649      1141.456      -757.93797     -840.15919    
  33140000   269.15605     -351.85183     -272.98029     -351.72017      0              5615.4085      46.08455       20.047001      20.857         19268.886      5716.0814      5962.3643      5167.7797     -711.79805      384.34139     -473.84185    
  33140500   265.51023     -350.29457     -272.49138     -350.17125      0              5309.7495      45.882224      20.047001      20.857         19184.289      6032.4733      4091.5266      5805.2486     -969.65862     -668.71981      267.43523    
  33141000   267.42049     -349.59794     -271.23498     -349.46644      0              5296.9786      45.674243      20.047001      20.857         19097.328      5175.4688      5515.5177      5199.9493     -932.84421     -1707.4995      238.39225    
  33141500   271.45782     -351.4264      -271.88037     -351.27945      0              5332.9099      45.735782      20.047001      20.857         19123.059      5703.8822      6029.2474      4265.6001      244.27928     -1047.873       531.125      
  33142000   274.32386     -349.90454     -269.51866     -349.77377      0              5813.1266      45.885484      20.047001      20.857         19185.652      6046.7815      4984.9954      6407.603      -1502.388      -1143.747      -496.07338    
  33142500   266.95855     -347.94085     -269.71325     -347.78542      0              8868.814       45.604022      20.047001      20.857         19067.967      8981.5186      9466.5903      8158.3331      942.81007     -365.25563     -450.28189    
  33143000   272.03185     -351.15974     -271.4455      -351.02626      0              3958.4323      45.639589      20.047001      20.857         19082.839      5235.2615      4978.93        1661.1054      390.20237     -292.20088     -20.99832     
  33143500   278.34015     -350.43958     -268.8768      -350.2727       0              6084.4082      45.748334      20.047001      20.857         19128.307      5749.4643      6353.3148      6150.4454      1148.142      -336.08006     -1278.4978    
  33144000   264.55393     -349.36765     -271.84468     -349.22968      0              5805.8045      45.792265      20.047001      20.857         19146.675      6393.889       4228.4242      6795.1004     -1740.4802     -248.03615      1260.6009    
  33144500   263.2217      -349.50293     -272.37035     -349.39168      0              6550.8894      45.780025      20.047001      20.857         19141.558      7307.9568      5630.8861      6713.8255      282.73083     -2500.5092      1381.7967    
  33145000   267.8464      -350.78408     -272.29632     -350.65473      0              6851.4249      45.890066      20.047001      20.857         19187.568      7736.6637      5779.9247      7037.6862     -496.76498     -284.46114     -2280.4012    
  33145500   265.05877     -348.0218      -270.3509      -347.92569      0              5763.9721      46.028975      20.047001      20.857         19245.649      3561.7841      8244.6001      5485.5321     -140.03461      422.57916      824.09165    
  33146000   281.19818     -353.14246     -270.74218     -353.02142      0              4835.3525      45.853944      20.047001      20.857         19172.465      6404.114       3054.7438      5047.1998      1417.8735     -846.85709      394.04537    
  33146500   269.62056     -349.47063     -270.46298     -349.34925      0              5324.3691      45.780161      20.047001      20.857         19141.615      5868.7851      5136.087       4968.2353      864.0112      -1.2514547      22.798259    
  33147000   269.17302     -348.82648     -269.94997     -348.69894      0              5919.3126      45.68709       20.047001      20.857         19102.7        5643.9665      7410.129       4703.8423      578.89854      125.14816     -568.76527    
  33147500   267.55555     -348.35881     -269.95627     -348.23223      0              5692.0587      45.55527       20.047001      20.857         19047.583      6104.6376      3935.4572      7036.0813      124.02454     -330.70768     -590.70345    
  33148000   258.95147     -348.83637     -272.95511     -348.697        0              4725.4246      45.763938      20.047001      20.857         19134.832      4848.6799      5704.9906      3622.6034     -351.27986      1665.3322      1853.054     
  33148500   262.1236      -347.79694     -270.98614     -347.71004      0              5290.9649      45.652297      20.047001      20.857         19088.152      4643.507       6089.303       5140.0847     -326.03617     -925.10859      17.712591    
  33149000   269.48849     -351.56167     -272.59271     -351.44995      0              9537.649       45.284547      20.047001      20.857         18934.388      12312.048      7968.8564      8332.0427     -190.25007      879.29594     -1162.2507    
  33149500   264.86375     -351.33498     -273.72123     -351.20618      0              4934.2324      45.617543      20.047001      20.857         19073.621      5357.0467      3875.6475      5570.0031      1417.7736      48.726776      1717.1664    
  33150000   267.00404     -350.06388     -271.82295     -349.93549      0              4349.786       45.784573      20.047001      20.857         19143.459      7396.5408      3560.0438      2092.7733     -342.18135      2047.3365     -217.07359    
  33150500   275.14962     -350.47984     -269.85199     -350.3862       0              5243.3304      45.600444      20.047001      20.857         19066.471      6156.4895      4806.0704      4767.4313     -138.27918      1425.4306      598.08372    
  33151000   271.98025     -350.48392     -270.7848      -350.35239      0              7307.4552      45.307932      20.047001      20.857         18944.166      6740.913       7868.2487      7313.2038      178.78407     -87.054969     -992.20255    
  33151500   265.87292     -346.72569     -268.81622     -346.58753      0              6429.0356      45.456701      20.047001      20.857         19006.37       6993.0972      5430.109       6863.9006     -754.22646     -1035.2926      179.33338    
  33152000   260.02984     -348.73762     -272.54036     -348.60716      0              7229.2888      45.789952      20.047001      20.857         19145.708      9196.7324      3744.2869      8746.8471      1566.0358     -98.350527      1126.3486    
  33152500   272.03155     -350.03565     -270.32149     -349.86873      0              3978.344       45.669191      20.047001      20.857         19095.216      3113.0588      3689.2495      5132.7236     -132.6956       328.70959     -1891.6585    
  33153000   276.63744     -349.62481     -268.56098     -349.48396      0              5812.6904      45.29593       20.047001      20.857         18939.148      7452.1003      3619.4561      6366.5149      1905.343       130.16756      518.03255    
  33153500   284.53884     -348.73328     -265.35409     -348.59476      0              7433.4874      45.441239      20.047001      20.857         18999.904      6108.1582      7810.6072      8381.6967      1774.6299      1186.4002      1568.081     
  33154000   265.1458      -348.14706     -270.45066     -347.98924      0              5132.1305      45.869893      20.047001      20.857         19179.133      4369.2664      7449.8441      3577.2809      1199.7908     -1841.4506     -206.59367    
  33154500   268.92778     -349.98792     -271.18327     -349.83026      0              5842.5942      45.796943      20.047001      20.857         19148.631      5656.6513      5873.7606      5997.3708      135.43645     -235.40258      1396.626     
  33155000   276.68712     -350.75115     -269.67276     -350.64103      0              7232.6521      45.496498      20.047001      20.857         19023.01       8916.1195      7518.7077      5263.129      -694.29854     -144.7229      -170.06628    
  33155500   272.76339     -351.44401     -271.51541     -351.31576      0              5055.3597      45.556368      20.047001      20.857         19048.042      8348.0211      1301.2466      5516.8112      692.73851     -1896.1916     -1600.906     
  33156000   264.10527     -350.61609     -273.22459     -350.47676      0              4062.7474      45.741172      20.047001      20.857         19125.312      3328.7924      2129.1776      6730.2721      1192.6596      1018.0998     -39.772447    
  33156500   276.89455     -350.90851     -269.76934     -350.7453       0              3551.6393      45.771586      20.047001      20.857         19138.029      5510.0346      1401.9318      3742.9516     -1492.1252      320.93274     -292.4863     
  33157000   271.82214     -353.00458     -273.35179     -352.84156      0              5205.5361      45.806096      20.047001      20.857         19152.459      5561.8425      4729.3163      5325.4496      621.89011     -535.77951      1565.8098    
  33157500   271.06691     -352.15078     -272.7193      -352.01362      0              6986.0907      45.661363      20.047001      20.857         19091.943      6161.1084      7605.4396      7191.7242     -682.18942     -795.12672      1143.5846    
  33158000   268.07043     -349.70575     -271.15234     -349.56637      0              6338.3944      45.887021      20.047001      20.857         19186.295      8467.2621      5061.864       5486.057       30.295109      942.52342     -639.75821    
  33158500   269.889       -355.09752     -276.0112      -354.9581       0              4646.5442      45.817352      20.047001      20.857         19157.165      5289.9768      3005.1586      5644.4973     -1769.5734     -1904.5866     -607.78486    
  33159000   275.93342     -351.73184     -270.87432     -351.58842      0              5594.7923      45.686136      20.047001      20.857         19102.301      7947.0199      5244.4664      3592.8905      1102.7409      765.28563     -2063.0156    
  33159500   265.425       -350.1411      -272.36288     -350.01144      0              6516.4846      45.641762      20.047001      20.857         19083.747      10058.634      2675.9132      6814.9072      32.547164      2259.0865     -1328.407     
  33160000   279.39432     -350.83401     -268.96232     -350.69244      0              4998.859       45.681376      20.047001      20.857         19100.311      5193.543       4277.6353      5525.3988      952.54048     -320.14784     -73.641109    
  33160500   269.47603     -350.61885     -271.65355     -350.45938      0              4157.0928      46.057824      20.047001      20.857         19257.711      4085.686       4040.7902      4344.8023     -1284.316       511.72829     -1332.1074    
  33161000   267.23194     -352.4396      -274.13189     -352.31327      0              5709.9846      45.688855      20.047001      20.857         19103.438      6567.9607      2364.1761      8197.8172     -384.62296      2122.4989      56.682297    
  33161500   267.0783      -349.75669     -271.49401     -349.64814      0              5097.4698      45.286296      20.047001      20.857         18935.12       5571.352       3578.0786      6142.9789     -144.20956      497.06504      12.769441    
  33162000   272.96065     -351.976       -271.98959     -351.90018      0              6731.8489      45.561382      20.047001      20.857         19050.139      5987.599       6273.589       7934.3587     -68.063388      1574.985      -423.8851     
  33162500   271.21141     -348.58301     -269.10918     -348.51525      0              4863.7151      45.883356      20.047001      20.857         19184.763      4634.594       5016.9304      4939.6209     -307.82348     -1310.7219     -447.31071    
  33163000   271.19927     -351.13268     -271.66241     -351.01823      0              4436.1879      45.663701      20.047001      20.857         19092.92       5336.2156      5335.9242      2636.424       446.62399      506.23684      1520.0433    
  33163500   277.7224      -351.54719     -270.16543     -351.41632      0              5493.3306      45.557985      20.047001      20.857         19048.718      6612.7903      5306.4979      4560.7037      717.32278      176.30033      237.74049    
  33164000   273.3173      -352.60884     -272.51792     -352.51042      0              4955.7718      45.803588      20.047001      20.857         19151.41       3910.2206      4736.1884      6220.9064      308.5061       568.73431     -337.62151    
  33164500   265.09347     -349.57388     -271.89281     -349.45417      0              7654.5058      45.891747      20.047001      20.857         19188.271      8128.3444      6936.0712      7899.1017     -209.44403     -854.09128     -311.73202    
  33165000   268.14151     -351.22341     -272.64917     -351.08663      0              6137.9813      45.581526      20.047001      20.857         19058.561      6694.117       5286.9621      6432.8649     -2381.2592     -412.59838     -953.3663     
  33165500   265.30144     -347.66254     -269.92053     -347.55701      0              4967.6637      45.454517      20.047001      20.857         19005.456      6955.1709      3428.2693      4519.5509      693.63906     -329.47039      863.3758     
  33166000   274.74989     -351.89704     -271.38632     -351.79833      0              6940.6454      45.88336       20.047001      20.857         19184.764      7077.2037      7759.2884      5985.4441     -61.091945      584.75575      908.47587    
  33166500   270.72538     -352.52261     -273.19121     -352.41252      0              5342.2439      45.763043      20.047001      20.857         19134.457      5215.2648      6869.9344      3941.5326      149.62463     -74.052223     -3261.946     
  33167000   278.26019     -348.25395     -266.7146      -348.11493      0              5849.721       45.393309      20.047001      20.857         18979.864      8303.0453      6063.1307      3182.987       542.97156      357.0917      -2487.8929    
  33167500   270.46463     -350.82495     -271.56995     -350.6685       0              4177.945       45.483559      20.047001      20.857         19017.599      3658.6142      3071.8686      5803.3522     -16.713294      155.05577      387.54096    
  33168000   273.30325     -349.37631     -269.28951     -349.26564      0              3082.3446      45.69112       20.047001      20.857         19104.385      3320.8657      2688.7938      3237.3743      1131.7148     -1316.5733     -890.04881    
  33168500   268.53955     -351.45919     -272.7683      -351.35711      0              6494.7228      45.780098      20.047001      20.857         19141.588      5805.6336      8226.6831      5451.8518      766.66404      1485.7549     -1483.1854    
  33169000   264.26622     -351.80074     -274.36209     -351.66985      0              6936.9585      45.520095      20.047001      20.857         19032.876      9303.3298      5113.3182      6394.2273     -1958.6522     -242.32036      42.835883    
  33169500   263.32822     -350.84905     -273.68526     -350.72197      0              5887.5074      45.281174      20.047001      20.857         18932.978      5392.8046      7770.3524      4499.3651      1022.0479      1094.1991      2563.6806    
  33170000   274.8639      -349.75571     -269.21158     -349.65886      0              6951.5672      45.418227      20.047001      20.857         18990.283      8515.2575      5029.1134      7310.3306     -421.44204      167.87549      144.31219    
  33170500   272.7566      -349.02739     -269.10078     -348.89593      0              5333.6983      45.829888      20.047001      20.857         19162.406      6127.6007      7417.5731      2455.9211      1231.145      -110.38649      1227.2565    
  33171000   262.48775     -349.42571     -272.5082      -349.29413      0              6376.889       45.90409       20.047001      20.857         19193.432      5688.8668      6205.1078      7236.6925     -65.869452     -1475.7844      784.5588     
  33171500   264.04149     -349.10556     -271.73276     -348.99767      0              5344.1302      45.769143      20.047001      20.857         19137.008      7063.1233      3880.2312      5089.036       22.098148      1214.3514      1904.0642    
  33172000   262.73541     -349.37061     -272.38053     -349.30391      0              6472.5941      45.726328      20.047001      20.857         19119.106      5829.034       5076.4178      8512.3306      240.13854     -1325.8293      609.16375    
  33172500   274.42464     -349.42547     -269.01006     -349.36532      0              4727.9511      45.667295      20.047001      20.857         19094.423      6316.7478      4704.8248      3162.2807      15.993679      317.56188     -795.59079    
  33173000   268.32378     -350.53078     -271.90313     -350.41098      0              5870.5209      45.568182      20.047001      20.857         19052.982      7545.2769      5522.0209      4544.2651     -1060.3729      1162.3902      353.63614    
  33173500   268.03953     -349.76639     -271.22203     -349.62809      0              4808.9972      45.575162      20.047001      20.857         19055.9        8220.3939      5325.6728      880.92475      213.69067      1056.0214     -1868.2455    
  33174000   268.56921     -352.68189     -273.98232     -352.53416      0              3012.9969      45.966417      20.047001      20.857         19219.492      3239.0091      1564.9529      4235.0288      1217.8435      3307.2122      390.42845    
  33174500   273.09966     -353.35229     -273.32514     -353.2234       0              4558.5397      45.996464      20.047001      20.857         19232.056      6583.7892      4020.881       3070.9488     -776.91884     -419.08335     -114.24787    
  33175000   270.55062     -351.65058     -272.37039     -351.54096      0              7234.5229      45.635754      20.047001      20.857         19081.235      7967.0554      4836.61        8899.9033      1369.1177      667.84993     -1376.4504    
  33175500   278.50538     -352.55006     -270.93886     -352.45089      0              6204.4832      45.504931      20.047001      20.857         19026.536      7391.461       5942.3895      5279.599       492.06325      778.28279      629.48489    
  33176000   275.22513     -348.00784     -267.35787     -347.88066      0              5207.9139      45.663287      20.047001      20.857         19092.747      4029.6864      6731.3884      4862.667       2068.1997      153.47069     -1479.3278    
  33176500   269.89216     -350.75047     -271.66323     -350.62218      0              5202.9785      45.612105      20.047001      20.857         19071.347      4842.975       5391.1281      5374.8325      519.28558      466.62591      1191.3305    
  33177000   275.77609     -352.97222     -272.16079     -352.84198      0              4016.1282      45.635145      20.047001      20.857         19080.98       6528.0526      1567.0614      3953.2705      1188.4644     -111.93895     -1590.2023    
  33177500   280.23609     -351.46751     -269.34915     -351.3359       0              7999.6792      45.650221      20.047001      20.857         19087.284      10931.111      6494.9918      6572.9352     -1686.1246     -884.84198     -1559.8997    
  33178000   269.41568     -349.08522     -270.1376      -348.96317      0              5104.4698      45.651476      20.047001      20.857         19087.809      4209.6783      4914.8851      6188.846      -1126.1932      1250.6861      191.69633    
  33178500   272.11551     -350.32023     -270.58147     -350.20908      0              6536.775       45.503734      20.047001      20.857         19026.035      8810.3329      5837.6488      4962.3434      396.71112      1398.5339      76.104386    
  33179000   270.08252     -349.44972     -270.30669     -349.37437      0              6091.0673      45.468712      20.047001      20.857         19011.392      5653.1259      5161.3968      7458.6794      1033.6919     -1058.297      -1018.4774    
  33179500   272.19308     -351.25092     -271.48943     -351.13755      0              4934.6402      45.610149      20.047001      20.857         19070.529      6016.4473      4514.9989      4272.4745      1096.2396      1032.9002     -189.72547    
  33180000   274.12272     -352.85447     -272.52754     -352.73718      0              6026.5811      45.744797      20.047001      20.857         19126.828      6729.5896      4348.4525      7001.7013      1580.2396     -842.37226      101.89131    
  33180500   265.57982     -354.77395     -276.95037     -354.66194      0              4994.1742      45.65434       20.047001      20.857         19089.006      5403.3663      4994.4694      4584.6867      355.78753      661.19732     -1393.7814    
  33181000   260.26808     -352.45316     -276.18609     -352.34271      0              5329.6894      45.572523      20.047001      20.857         19054.797      6419.1677      4671.0186      4898.8818     -982.22062     -210.46623     -411.91884    
  33181500   269.60458     -351.15586     -272.15289     -351.02969      0              8108.2673      45.624734      20.047001      20.857         19076.627      10592.486      7995.0993      5737.2168      128.20178      215.30824      219.77824    
  33182000   276.88725     -350.2954      -269.15836     -350.19983      0              5496.1775      45.838496      20.047001      20.857         19166.006      5255.9831      4235.9574      6996.5919      922.3684      -497.58994     -327.86356    
  33182500   266.7602      -351.15043     -272.98096     -351.07395      0              6436.3429      45.810821      20.047001      20.857         19154.434      8530.4067      6937.8445      3840.7774      53.745732     -1100.1594     -130.3118     
  33183000   265.56419     -350.84358     -273.02458     -350.7466       0              3517.9259      45.503175      20.047001      20.857         19025.801      5086.3133      4069.4281      1398.0361      542.53908     -988.15179     -864.38028    
  33183500   268.29467     -349.26822     -270.6491      -349.20115      0              2376.4791      45.461532      20.047001      20.857         19008.389      2186.4452      3196.7003      1746.2917      396.57411      731.84437      742.78675    
  33184000   265.24236     -348.17972     -270.45503     -348.07562      0              3699.8452      45.885922      20.047001      20.857         19185.835      3337.3377      3656.5263      4105.6717     -621.55154      287.54745     -811.59524    
  33184500   269.27747     -350.40447     -271.49735     -350.35849      0              1288.5879      45.926699      20.047001      20.857         19202.885      2719.0985      1509.1229     -362.45781      79.089225      1603.6985     -384.39901    
  33185000   268.07265     -349.69199     -271.13792     -349.68436      0              7162.392       45.48764       20.047001      20.857         19019.306      7332.8809      7618.7487      6535.5465      1368.0978     -933.49438     -274.37892    
  33185500   268.84182     -350.96521     -272.18576     -350.86808      0              7741.8256      45.147354      20.047001      20.857         18877.025      4934.2269      9111.9827      9179.2671     -890.60586      234.16197      1273.3082    
  33186000   263.7538      -350.07671     -272.78821     -349.95048      0              4372.0475      45.526531      20.047001      20.857         19035.567      5359.0737      3154.3169      4602.7518      679.39628      184.84195     -1418.5135    
  33186500   274.90964     -348.01095     -267.45342     -347.9105       0              8276.0045      45.699179      20.047001      20.857         19107.754      10872.095      6291.8437      7664.0745     -204.45144     -662.68854      42.27912     
  33187000   269.11486     -349.16847     -270.30901     -349.04234      0              5942.0722      45.517919      20.047001      20.857         19031.966      4568.4506      5201.223       8056.543       484.01347      1407.0629     -2079.4463    
  33187500   270.11691     -348.97251     -269.81941     -348.84336      0              4816.4559      45.067284      20.047001      20.857         18843.546      6156.7083      2503.9629      5788.6966      509.49031      563.19839     -538.21068    
  33188000   274.60545     -347.25601     -266.78762     -347.12661      0              7512.8344      45.335493      20.047001      20.857         18955.69       7305.0175      8443.5765      6789.9093      1777.3451      1175.9662     -648.03913    
  33188500   259.27115     -348.09591     -272.12098     -347.966        0              5860.4351      45.885262      20.047001      20.857         19185.56       7216.5602      5189.2737      5175.4715      1588.8069     -1843.8119     -1707.2492    
  33189000   266.65487     -350.02975     -271.89114     -349.93785      0              3815.5968      45.864898      20.047001      20.857         19177.045      3574.592       2386.8129      5485.3854     -44.646169      862.01887      90.891017    
  33189500   278.98004     -349.97953     -268.22924     -349.87798      0              7700.8543      45.552398      20.047001      20.857         19046.382      9674.7076      6365.0476      7062.8076     -675.88256     -1405.3736     -1178.2326    
  33190000   272.21459     -349.53233     -269.76454     -349.42227      0              5305.019       45.676094      20.047001      20.857         19098.102      2920.136       8374.9033      4620.0176      479.56974     -1293.2324      2048.1427    
  33190500   265.51619     -350.41237     -272.60743     -350.28263      0              5914.8869      45.769508      20.047001      20.857         19137.16       7918.1501      4307.1198      5519.3907      755.70403      41.139987      102.78414    
  33191000   268.8979      -349.1929      -270.39701     -349.09172      0              6127.5501      45.550834      20.047001      20.857         19045.728      5913.9976      6160.1476      6308.5049      279.84214     -1591.8747     -1062.3433    
  33191500   271.39232     -350.08061     -270.55378     -349.97485      0              5003.7761      45.486325      20.047001      20.857         19018.756      7308.5005      2741.3407      4961.4872      2439.6242     -697.46035      1754.235     
  33192000   276.57476     -350.12857     -269.08311     -350.02103      0              3900.5337      45.699809      20.047001      20.857         19108.018      2856.396       3863.9373      4981.2678     -894.56917      92.583406     -487.08755    
  33192500   267.55361     -348.9628      -270.56083     -348.86976      0              4402.758       45.911965      20.047001      20.857         19196.725      2198.3645      5854.8374      5155.0722      163.5297      -816.18067     -261.12769    
  33193000   269.03619     -353.23199     -274.39557     -353.10489      0              4780.5586      45.709702      20.047001      20.857         19112.155      3533.3164      5675.64        5132.7193     -1023.6478      1582.8889      6.7392575    
  33193500   259.11997     -350.32889     -274.39825     -350.22628      0              7087.435       45.486409      20.047001      20.857         19018.791      6806.1586      7670.1629      6785.9836     -194.04803     -530.18021      243.09079    
  33194000   258.17494     -351.06293     -275.40921     -351.01139      0              6003.3311      45.622808      20.047001      20.857         19075.822      5465.0431      7229.2571      5315.6931      808.94118     -299.18665      806.12241    
  33194500   262.43561     -347.77546     -270.87323     -347.6815       0              5912.7503      45.836761      20.047001      20.857         19165.28       7862.9582      6046.0453      3829.2474     -1006.4048      37.115499      1446.0462    
  33195000   268.19031     -350.11899     -271.53045     -350.00013      0              3433.4422      45.983616      20.047001      20.857         19226.683      2927.3128      2965.6685      4407.3454      1468.3301     -275.0754      -614.36118    
  33195500   264.54992     -349.88526     -272.36347     -349.75532      0              5935.864       45.627772      20.047001      20.857         19077.898      7484.6335      3982.5696      6340.3888      518.00282      461.27642      93.249375    
  33196000   269.9445      -348.49351     -269.39093     -348.40224      0              6801.7366      45.358635      20.047001      20.857         18965.366      8998.2395      5840.3158      5566.6544      230.12749     -124.86404     -1113.1887    
  33196500   271.7946      -348.1385      -268.49379     -348.02608      0              6354.9703      45.659232      20.047001      20.857         19091.052      7372.3377      5215.4093      6477.164      -628.63275      582.43114     -2160.0037    
  33197000   273.28472     -349.91672     -269.83535     -349.80194      0              3770.1525      45.89481       20.047001      20.857         19189.552      2200.425       4860.944       4249.0884     -375.6385      -1211.4256     -119.12078    
  33197500   260.87325     -348.95961     -272.5152      -348.84094      0              6254.6122      45.802711      20.047001      20.857         19151.043      5149.5603      6170.1414      7444.135       312.56485      683.18522      271.0551     
  33198000   267.46979     -348.43357     -270.05616     -348.32685      0              7057.8786      45.456742      20.047001      20.857         19006.387      9832.6901      6455.5742      4885.3717      114.49333     -256.10429      348.84089    
  33198500   270.0566      -349.86169     -270.72626     -349.75537      0              4008.9317      45.490548      20.047001      20.857         19020.522      7172.7781      2853.685       2000.332       842.3362      -495.07378      462.12997    
  33199000   271.29155     -350.73971     -271.2424      -350.6637       0              7074.8165      45.632435      20.047001      20.857         19079.848      8025.5093      5384.2001      7814.7401      403.90053      275.71049      476.92387    
  33199500   265.22739     -348.49585     -270.77554     -348.37611      0              5149.2832      45.481442      20.047001      20.857         19016.714      5352.9794      2887.9109      7206.9592      630.9166       195.06574     -1065.8795    
  33200000   271.133       -350.43843     -270.98758     -350.32471      0              5294.6353      45.423211      20.047001      20.857         18992.366      5428.8712      5539.1637      4915.8711      166.55276     -2101.155       1169.6628    
  33200500   261.16147     -348.05035     -271.52149     -347.9492       0              5220.8683      45.715428      20.047001      20.857         19114.548      4469.5819      3833.9046      7359.1184      1992.9357     -930.09576      239.29112    
  33201000   268.5879      -349.84923     -271.14418     -349.75905      0              6155.5618      45.816762      20.047001      20.857         19156.918      5307.5285      8049.8894      5109.2673     -735.87688      524.2148       2224.2415    
  33201500   262.65684     -347.84127     -270.87421     -347.76779      0              6235.9706      45.491308      20.047001      20.857         19020.839      7048.3913      4720.3341      6939.1864      217.97149     -733.3836      -1389.3121    
  33202000   273.24822     -351.29972     -271.22904     -351.18357      0              4754.5232      45.498647      20.047001      20.857         19023.908      4183.5285      5878.36        4201.6813      1748.8458      561.78224     -240.27116    
  33202500   270.58109     -352.56256     -273.27344     -352.44035      0              5538.5301      45.570519      20.047001      20.857         19053.959      5807.4027      7172.0053      3636.1823      678.6532       338.58017     -2014.1263    
  33203000   270.06978     -347.93602     -268.79674     -347.83999      0              7754.7221      45.392914      20.047001      20.857         18979.699      7336.8308      6489.785       9437.5505      201.2891      -1787.7223     -212.96967    
  33203500   269.6231      -346.44182     -267.43343     -346.38453      0              6250.6483      45.485365      20.047001      20.857         19018.354      6228.0829      5620.5868      6903.2754      1368.9299     -4.7463685      122.58196    
  33204000   274.31033     -348.72044     -268.33853     -348.59174      0              6788.1487      45.713168      20.047001      20.857         19113.603      7384.139       6013.3764      6966.9308     -375.79767     -456.26783     -346.39795    
  33204500   271.9479      -349.04668     -269.35704     -348.94555      0              5147.631       45.785407      20.047001      20.857         19143.808      6078.5749      4488.9162      4875.4021     -18.047422      1693.3681     -373.71342    
  33205000   265.01315     -348.03989     -270.38236     -347.94948      0              6414.3687      45.521121      20.047001      20.857         19033.305      7431.6961      5134.9313      6676.4787      887.16092     -382.75863     -1323.3908    
  33205500   268.8001      -348.74848     -269.98125     -348.60678      0              6395.5067      45.585325      20.047001      20.857         19060.15       6903.5591      5471.5395      6811.4214      225.76646      1568.8862      929.2565     
  33206000   270.88835     -348.88248     -269.50332     -348.78105      0              4184.3401      45.747123      20.047001      20.857         19127.801      5643.818       3804.6501      3104.5522      1129.8683     -459.21423      379.78359    
  33206500   269.98651     -350.16436     -271.04947     -350.05787      0              4895.141       45.603663      20.047001      20.857         19067.817      7412.2134      5435.5309      1837.6787     -725.99612     -289.5182       691.79864    
  33207000   265.22367     -348.89564     -271.17642     -348.78839      0              6159.1206      45.449768      20.047001      20.857         19003.471      6605.845       5253.3432      6618.1734      2137.5538      1395.1962      390.14908    
  33207500   267.49795     -349.92527     -271.53961     -349.81945      0              5481.7341      45.538792      20.047001      20.857         19040.693      8130.7936      2565.8231      5748.5857      1422.2291     -1096.6806      1215.3999    
  33208000   266.0368      -348.05334     -270.09585     -347.94914      0              5221.7544      45.901806      20.047001      20.857         19192.477      6383.5554      5835.9514      3445.7563     -336.14688      414.34621     -555.65758    
  33208500   263.81707     -348.42428     -271.11724     -348.3325       0              4893.4468      45.876984      20.047001      20.857         19182.098      4187.0651      4906.5281      5586.7472     -331.76002      1439.7656      1229.4645    
  33209000   270.40402     -347.90621     -268.66898     -347.81         0              5256.9281      45.453615      20.047001      20.857         19005.079      6334.0531      4539.6224      4897.1087      754.0019       944.72701     -368.39008    
  33209500   274.34181     -346.40486     -266.01373     -346.30027      0              6736.4358      45.334488      20.047001      20.857         18955.27       4311.8469      5996.6086      9900.852       557.01713      253.74526      23.45293     
  33210000   269.087       -349.73538     -270.88408     -349.65992      0              5773.158       45.546957      20.047001      20.857         19044.107      4320.95        7449.1506      5549.3736     -204.06377      1129.8034     -1458.0533    
  33210500   272.16248     -347.53621     -267.78369     -347.46397      0              7887.757       45.763708      20.047001      20.857         19134.735      8043.869       7837.4458      7781.9561      444.11657      805.37765      820.09158    
  33211000   272.23974     -348.58418     -268.80902     -348.45285      0              4915.0101      45.57431       20.047001      20.857         19055.544      8902.6956      1213.3691      4628.9655     -464.55895      1715.657      -1774.1442    
  33211500   273.4173      -347.44891     -267.32868     -347.33462      0              5636.8212      45.544312      20.047001      20.857         19043.001      5720.0129      6542.7822      4647.6684      125.77355     -639.74326     -615.53048    
  33212000   269.59605     -346.29611     -267.29564     -346.18041      0              8091.0399      45.500845      20.047001      20.857         19024.827      6666.3081      11210.732      6396.0798     -330.65728     -172.78759     -1503.1732    
  33212500   271.80528     -346.58671     -266.93886     -346.52444      0              6272.9551      45.585937      20.047001      20.857         19060.405      7141.5917      5234.0219      6443.2516      1133.8078     -813.45828     -98.968773    
  33213000   273.7064      -348.27356     -268.06862     -348.16968      0              6849.5651      45.588887      20.047001      20.857         19061.639      7996.2437      2736.414       9816.0378     -813.86578      620.23915      1362.4026    
  33213500   270.96532     -349.01701     -269.61529     -348.90324      0              6598.78        45.764916      20.047001      20.857         19135.24       5154.4615      5738.4854      8903.393      -271.2589      -1106.7071     -83.988957    
  33214000   266.93589     -347.86954     -269.64859     -347.76495      0              3186.8362      45.87802       20.047001      20.857         19182.532      1749.7401      4841.1878      2969.5806      598.52588     -350.52502      786.18397    
  33214500   269.52441     -350.74001     -271.76053     -350.6312       0              3746.4376      45.719469      20.047001      20.857         19116.238      4907.1257      2538.3461      3793.8408      173.06652     -8.8622973     -332.30054    
  33215000   270.71384     -348.63155     -269.30353     -348.53433      0              3950.245       45.572859      20.047001      20.857         19054.938      4186.292       3640.6721      4023.7707     -917.46482      66.530032     -112.57813    
  33215500   274.65794     -351.51644     -271.03266     -351.40012      0              4114.3479      45.588833      20.047001      20.857         19061.616      7839.0983      2528.6627      1975.2827     -1284.1738     -172.62444     -555.69802    
  33216000   269.68966     -350.08111     -271.05321     -349.95241      0              7522.7493      45.656268      20.047001      20.857         19089.812      6774.7121      6653.8172      9139.7185     -670.73015     -590.74344      2034.6558    
  33216500   274.31535     -352.24894     -271.86556     -352.11974      0              4257.4713      45.782369      20.047001      20.857         19142.538      4394.5468      3034.5055      5343.3615      678.1168      -480.32784      2295.2278    
  33217000   275.98486     -352.22873     -271.35613     -352.11931      0              4342.9758      45.866805      20.047001      20.857         19177.842      7573.7324      972.18048      4483.0145     -223.83255      321.098       -1019.9939    
  33217500   265.34554     -348.66719     -270.91226     -348.54816      0              6125.8576      45.843362      20.047001      20.857         19168.04       3465.7231      6580.338       8331.5116      934.73353      802.3677      -355.8817     
  33218000   266.41608     -349.41529     -271.34666     -349.30452      0              4505.4579      45.793262      20.047001      20.857         19147.092      4818.7698      4610.7925      4086.8114     -120.18466     -462.89806     -703.7892     
  33218500   277.58704     -350.6627      -269.32061     -350.54183      0              4611.8692      45.850551      20.047001      20.857         19171.046      5319.7863      6025.6433      2490.1779      331.39804      547.18234     -1543.7171    
  33219000   277.96513     -350.07864     -268.62575     -349.9471       0              5519.8786      45.657376      20.047001      20.857         19090.276      7309.2708      5384.1211      3866.2438      349.72242     -610.60913     -380.52048    
  33219500   274.89994     -349.34311     -268.78842     -349.21339      0              5310.0605      45.425061      20.047001      20.857         18993.14       3975.6848      5877.7053      6076.7915     -170.3971       1051.2579      1056.5106    
  33220000   271.48539     -351.76747     -272.21335     -351.61485      0              6510.5295      45.599794      20.047001      20.857         19066.2        5979.7732      6741.5819      6810.2335     -35.945355     -340.19557      833.3268     
  33220500   272.68142     -348.90968     -269.00509     -348.79826      0              5574.7131      45.639568      20.047001      20.857         19082.83       5549.4637      4770.5668      6404.1087      389.27591      364.9004       456.40691    
  33221000   269.71993     -350.19884     -271.16207     -350.06923      0              5288.0994      45.42171       20.047001      20.857         18991.739      4051.0738      7800.9084      4012.316       332.71064      993.80066     -1164.5611    
  33221500   261.41289     -350.01788     -273.41534     -349.92714      0              4296.8791      45.419284      20.047001      20.857         18990.725      6020.7907      1695.7973      5174.0493      408.47199     -1735.8142      698.93596    
  33222000   269.43788     -350.18294     -271.22882     -350.06739      0              4939.5906      45.471009      20.047001      20.857         19012.352      3897.9987      6313.0032      4607.7698      744.91013     -264.40029     -1581.1152    
  33222500   270.30362     -349.41329     -270.20548     -349.31729      0              5344.1629      45.511172      20.047001      20.857         19029.145      6554.489       6358.005       3119.9947      481.71299      1234.3844     -19.448523    
  33223000   280.05485     -351.68635     -269.62111     -351.57367      0              5022.8637      45.707759      20.047001      20.857         19111.342      5287.5004      5078.541       4702.5496     -1399.18        12.653665      320.13105    
  33223500   272.2941      -350.06404     -270.27295     -349.92163      0              7136.1339      45.603574      20.047001      20.857         19067.78       7538.1178      6667.4368      7202.847       7.5111111     -944.01403     -422.47967    
  33224000   265.11217     -348.16838     -270.48184     -348.0609       0              5624.4886      45.37937       20.047001      20.857         18974.036      5812.4107      6146.2518      4914.8034     -529.7027       43.986303      1899.0254    
  33224500   269.01508     -350.66087     -271.83064     -350.53404      0              6035.0476      45.387348      20.047001      20.857         18977.372      7890.2345      6790.0832      3424.8251      696.32939     -251.27236     -1987.6567    
  33225000   269.32359     -350.70896     -271.78833     -350.63304      0              6366.5412      45.639621      20.047001      20.857         19082.852      3841.5414      7275.7958      7982.2863     -829.95616      645.618        757.62607    
  33225500   271.0226      -349.64937     -270.23087     -349.538        0              4537.6529      45.828752      20.047001      20.857         19161.931      4956.5039      4168.1378      4488.3168     -238.73574     -1039.7447     -996.36468    
  33226000   266.78065     -348.64148     -270.46601     -348.54158      0              5570.8688      45.919611      20.047001      20.857         19199.921      8718.604       3963.8493      4030.1532     -383.97342     -470.59471     -980.17618    
  33226500   270.92899     -349.03625     -269.64518     -348.91254      0              4123.6962      45.683937      20.047001      20.857         19101.381      6545.8958      4000.6837      1824.5091     -351.38448     -761.59972      837.4258     
  33227000   266.56266     -350.61629     -272.5047      -350.48844      0              6972.1964      45.569395      20.047001      20.857         19053.489      9221.7635      5099.7743      6595.0512      395.1982      -1153.1576     -735.78622    
  33227500   270.55546     -349.77498     -270.49337     -349.69655      0              4698.5015      45.783457      20.047001      20.857         19142.993      3955.6653      7195.2856      2944.5534     -409.79454      1700.9645     -186.56202    
  33228000   272.19766     -349.42617     -269.66335     -349.33118      0              5742.2567      45.550104      20.047001      20.857         19045.423      6457.1019      4757.4309      6012.2373      1275.5408     -1064.2145     -1709.1731    
  33228500   279.29359     -352.3102      -270.46803     -352.18166      0              7186.8435      45.555649      20.047001      20.857         19047.742      8136.3387      5459.0637      7965.1282      1396.4708     -1872.1705      1889.2026    
  33229000   276.10997     -349.11728     -268.20801     -348.99377      0              5156.3717      45.836424      20.047001      20.857         19165.139      5729.9475      5395.5027      4343.6649     -959.34426     -830.52105     -821.84525    
  33229500   268.48696     -349.85238     -271.17691     -349.74778      0              4973.92        45.864465      20.047001      20.857         19176.864      4559.8328      3515.2582      6846.669       459.54666     -577.48999     -930.9234     
  33230000   276.66252     -350.19109     -269.11991     -350.06064      0              6388.9088      45.651378      20.047001      20.857         19087.768      5248.3171      8870.4176      5047.9916     -415.85568      671.08136     -625.96654    
  33230500   263.69198     -350.88673     -273.61634     -350.75724      0              5320.38        45.570768      20.047001      20.857         19054.063      5158.7799      7239.5478      3562.8123     -486.34984     -659.39004     -417.21346    
  33231000   275.61822     -351.15391     -270.38874     -351.04274      0              7513.795       45.74612       20.047001      20.857         19127.381      9871.35        7157.4301      5512.605      -992.84053      1194.072       2083.5783    
  33231500   269.00754     -349.80962     -270.9816      -349.68897      0              2298.047       45.903808      20.047001      20.857         19193.314      1976.783       3769.9556      1147.4026     -89.010622      574.66628      2277.425     
  33232000   273.71415     -352.04208     -271.83488     -351.93714      0              6519.8622      45.41955       20.047001      20.857         18990.836      6179.7964      4956.8285      8422.9617     -870.52777      36.932231      1246.1778    
  33232500   264.49692     -348.15118     -270.64492     -348.10661      0              6040.4982      45.303628      20.047001      20.857         18942.367      7501.4438      5117.505       5502.546       854.3073      -414.4377      -966.23038    
  33233000   267.95199     -349.98585     -271.46714     -349.89645      0              6137.1594      45.526688      20.047001      20.857         19035.632      5921.6077      6465.1527      6024.7179     -1040.6615      358.09614     -259.90571    
  33233500   271.52966     -349.39422     -269.82714     -349.25487      0              6890.0834      45.75317       20.047001      20.857         19130.329      6559.8987      7198.4231      6911.9283      1401.5085     -115.51821     -584.73085    
  33234000   267.21725     -349.77682     -271.47342     -349.68995      0              5010.8957      45.985158      20.047001      20.857         19227.328      5524.684       4383.2574      5124.7457     -1115.2168     -480.24858      1664.7939    
  33234500   267.53339     -347.37597     -268.97992     -347.26936      0              7264.7682      45.467909      20.047001      20.857         19011.056      7879.2626      5083.6862      8831.3556      628.92734     -1620.0852     -1192.5174    
  33235000   266.43259     -353.09771     -275.02423     -352.96763      0              3889.2348      45.491967      20.047001      20.857         19021.115      5349.2888      2161.5479      4156.8676      229.74029     -109.27247     -2287.3454    
  33235500   266.58758     -354.32317     -276.20428     -354.24802      0              5190.0871      45.689602      20.047001      20.857         19103.75       5840.417       5551.6452      4178.1991      736.84048      431.79964      544.04105    
  33236000   274.78298     -354.13752     -273.61711     -354.03974      0              6546.8557      45.649055      20.047001      20.857         19086.796      7625.932       6197.3203      5817.3147     -1591.8624     -582.27088     -1184.3911    
  33236500   270.60667     -349.03919     -269.74257     -348.92261      0              4069.6238      45.533695      20.047001      20.857         19038.562      4714.0448      4388.9811      3105.8455     -971.56806     -371.74254      1522.3124    
  33237000   269.49178     -348.22624     -269.25632     -348.12538      0              6555.0842      45.680221      20.047001      20.857         19099.828      8869.2057      5664.89        5131.157      -566.20468     -366.65609      68.421983    
  33237500   259.74913     -348.04116     -271.92616     -348.01294      0              7308.6823      45.661864      20.047001      20.857         19092.152      6180.1344      8073.2108      7672.7017     -82.060153      1298.6907      82.798193    
  33238000   265.99062     -351.32306     -273.3791      -351.2352       0              4522.9947      45.748197      20.047001      20.857         19128.25       4960.6778      3478.0884      5130.2178     -1403.7398     -904.80461      72.308289    
  33238500   277.4478      -351.84757     -270.54628     -351.75383      0              5212.6712      45.582126      20.047001      20.857         19058.812      2334.6419      7971.7415      5331.6304     -1424.9945      1049.5522     -1005.9429    
  33239000   265.26323     -352.62096     -274.89015     -352.54401      0              6869.309       45.474265      20.047001      20.857         19013.713      6692.158       5278.4521      8637.317       521.58122      93.97056      -1211.2619    
  33239500   268.06898     -351.67838     -273.12539     -351.56806      0              5047.7135      45.726667      20.047001      20.857         19119.248      6120.3304      5052.9697      3969.8404      1333.176      -422.7268      -1127.6452    
  33240000   270.06784     -351.34132     -272.2026      -351.20987      0              6069.9655      45.864452      20.047001      20.857         19176.859      5953.0546      8077.9876      4178.8541      603.8951      -433.2524       1052.1392    
  33240500   265.70268     -349.35888     -271.49929     -349.22836      0              7143.1439      45.580517      20.047001      20.857         19058.139      6310.0721      7610.9595      7508.4        -645.552        687.5546       989.44606    
  33241000   274.57772     -350.73219     -270.27192     -350.60288      0              6756.7748      45.405039      20.047001      20.857         18984.769      8003.625       6472.6738      5794.0256     -1420.5697     -588.25667     -61.987348    
  33241500   275.04097     -348.70854     -268.11252     -348.60845      0              5569.2251      45.620975      20.047001      20.857         19075.056      5373.9294      4889.595       6444.1509     -754.55805      234.83988      502.984      
  33242000   275.10884     -349.89835     -269.28245     -349.81117      0              5345.8801      45.953567      20.047001      20.857         19214.119      4305.8116      6557.2833      5174.5455      1143.8065      123.93926     -1063.9655    
  33242500   270.33091     -351.07054     -271.85473     -350.94856      0              4561.8219      46.052312      20.047001      20.857         19255.407      4425.1685      4247.0266      5013.2706     -513.62628     -373.62104      515.17205    
  33243000   268.14539     -353.80329     -275.22791     -353.69894      0              7311.4232      45.84918       20.047001      20.857         19170.473      6948.0032      5540.0021      9446.2642      237.00643      304.84227      1254.7473    
  33243500   270.42982     -350.40411     -271.15931     -350.30951      0              3635.0309      45.614089      20.047001      20.857         19072.176      3820.8507      4418.7111      2665.5308      431.00105     -1246.5345      556.5047     
  33244000   271.89689     -350.31108     -270.63639     -350.22795      0              4347.8775      45.9025        20.047001      20.857         19192.767      3893.2081      4797.2647      4353.1596     -641.01252     -382.57185      475.78075    
  33244500   270.50801     -347.66815     -268.40044     -347.56725      0              5251.6578      46.011058      20.047001      20.857         19238.157      4833.5735      5611.5102      5309.8899      1352.9425      768.86395     -1351.5627    
  33245000   268.54735     -349.93207     -271.23891     -349.83695      0              5402.5729      45.833587      20.047001      20.857         19163.953      6347.1839      5514.9466      4345.5882     -1531.7374     -687.34042      484.42676    
  33245500   274.66072     -351.98309     -271.4985      -351.87253      0              8013.7266      45.541179      20.047001      20.857         19041.692      7201.8222      8825.1966      8014.161       1200.0353      1785.724      -1711.0437    
  33246000   273.31218     -351.20662     -271.1172      -351.06781      0              4707.8386      45.696592      20.047001      20.857         19106.673      5200.3452      3940.9139      4982.2566      10.14603       351.66474     -342.26954    
  33246500   273.72041     -349.30102     -269.09198     -349.18776      0              7351.1216      46.00863       20.047001      20.857         19237.142      5858.955       10180.666      6013.7441      549.67754     -764.39273     -241.60599    
  33247000   268.60068     -348.82719     -270.11839     -348.72191      0              4709.0575      45.87282       20.047001      20.857         19180.357      5544.8154      3809.9551      4772.4019     -632.64135      947.54542     -117.66023    
  33247500   274.69287     -349.56785     -269.07385     -349.46207      0              4541.6194      45.976264      20.047001      20.857         19223.609      8268.0901      1128.0643      4228.7039     -334.0969      -4.3515769     -1445.7396    
  33248000   269.37739     -348.41651     -269.48011     -348.30269      0              5046.9141      46.093244      20.047001      20.857         19272.521      3670.1146      6129.4397      5341.1881      310.66249     -2251.9479      2143.7535    
  33248500   269.66555     -348.20866     -269.18782     -348.09858      0              7456.2897      45.922478      20.047001      20.857         19201.12       6890.8837      7004.9932      8472.992       1058.1244     -376.51779     -1846.209     
  33249000   264.97699     -347.70302     -270.05608     -347.61071      0              7999.9953      45.800174      20.047001      20.857         19149.983      9883.5973      9947.6535      4168.7351     -567.06009     -307.76408      166.81692    
  33249500   264.44882     -348.24076     -270.7486      -348.17313      0              6635.0381      45.883701      20.047001      20.857         19184.907      7803.8975      5013.7305      7087.4863      339.59753     -2266.07        1055.9847    
  33250000   268.90846     -350.26551     -271.46652     -350.1791       0              4757.5483      45.791323      20.047001      20.857         19146.282      4307.6166      3645.1686      6319.8595      300.48318     -1282.96       -1606.9563    
[...]
  35850500   271.9017      -354.94381     -275.26771     -354.79972      0              5657.5437      45.496043      20.047001      20.857         19022.819      8540.9407      3676.8859      4754.8045      771.18448     -121.70098     -79.282535    
  35851000   266.89401     -348.87729     -270.6686      -348.73779      0              5133.1415      45.420156      20.047001      20.857         18991.089      6426.9727      5148.4117      3824.0401      260.81313      1793.0469      489.701      
  35851500   267.63765     -350.88111     -272.45452     -350.75181      0              6008.5331      45.458963      20.047001      20.857         19007.315      3123.3397      8780.8414      6121.4182      861.94396     -530.70172     -1059.9576    
  35852000   274.29086     -348.22619     -267.84998     -348.14442      0              4961.6366      45.423395      20.047001      20.857         18992.444      4969.9004      5028.5896      4886.4199     -1781.1325      1600.8978     -626.77805    
  35852500   277.74548     -347.99398     -266.60546     -347.86094      0              5434.2152      45.527202      20.047001      20.857         19035.847      7367.9186      4593.901       4340.826       795.28471      388.19097      26.962811    
  35853000   274.07657     -347.54045     -267.22704     -347.4355       0              2133.8587      45.794354      20.047001      20.857         19147.549      1867.8472      3060.9731      1472.7556      527.22612     -777.72998     -91.443428    
  35853500   266.92753     -350.07965     -271.86115     -349.96048      0              5469.0056      45.78592       20.047001      20.857         19144.023      6334.5701      4584.5427      5487.9039      1482.5359      799.0218       26.130928    
  35854000   265.52883     -351.22325     -273.41461     -351.11205      0              3977.8821      45.644316      20.047001      20.857         19084.815      3998.0739      5291.3807      2644.1916     -785.32029      1006.3426     -344.266      
  35854500   276.73328     -352.10195     -271.01004     -351.93425      0              5597.248       45.391935      20.047001      20.857         18979.29       7725.0159      4514.3869      4552.3412      1772.1457      334.82101      1130.3697    
  35855000   270.43055     -350.18227     -270.93726     -350.04125      0              3624.4748      45.582662      20.047001      20.857         19059.036      4144.1747      4395.3975      2333.8523      1038.6411     -88.840983      887.92514    
  35855500   273.89346     -349.69509     -269.43534     -349.56817      0              5452.0423      45.77989       20.047001      20.857         19141.501      4783.4988      5541.5588      6031.0693      199.03401     -42.319765      1541.4187    
  35856000   268.37878     -352.37366     -273.72988     -352.268        0              4525.0994      45.759768      20.047001      20.857         19133.088      7365.5413      2901.7833      3307.9737     -44.397241      280.898       -619.6639     
  35856500   267.26502     -347.41648     -269.09907     -347.25         0              7673.7038      45.293183      20.047001      20.857         18937.999      10883.278      7901.7472      4236.0865      572.06492      1826.75        631.33864    
  35857000   265.02634     -348.61316     -270.95176     -348.48293      0              8423.3925      45.443072      20.047001      20.857         19000.671      6869.2837      10182.637      8218.2571      1160.1349     -624.40109     -785.42855    
  35857500   264.69504     -349.12958     -271.56527     -349.01406      0              4031.3526      45.72071       20.047001      20.857         19116.757      5319.4575      4260.1146      2514.4859      1757.6559      658.34507     -1029.6328    
  35858000   269.10098     -349.87445     -271.01905     -349.74945      0              5893.7777      45.396356      20.047001      20.857         18981.138      6296.0472      6540.5623      4844.7236     -1471.0809     -66.141253     -1764.4377    
  35858500   267.02363     -349.36885     -271.12219     -349.24163      0              7374.1764      45.332905      20.047001      20.857         18954.608      8418.2264      7151.3628      6552.9401      176.23966     -385.96321      1295.9944    
  35859000   265.02212     -348.24687     -270.58671     -348.10683      0              7139.206       45.647122      20.047001      20.857         19085.988      8600.4714      8133.5251      4683.6216     -83.427299     -2209.6108      2163.0647    
  35859500   262.98322     -349.25413     -272.19144     -349.14028      0              5397.6535      46.049314      20.047001      20.857         19254.153      3029.5354      8459.3038      4704.1212     -754.4745       1495.2387      21.48589     
  35860000   273.60298     -350.92086     -270.74623     -350.77145      0              4801.5147      45.901561      20.047001      20.857         19192.374      6598.5334      5134.5758      2671.4349      477.12381      405.50598      710.59323    
  35860500   273.04825     -347.97596     -267.96388     -347.86469      0              6150.417       45.682872      20.047001      20.857         19100.936      8530.1396      4137.0526      5784.0587      1011.3801      407.01631      632.46885    
  35861000   270.84703     -348.20153     -268.83448     -348.06981      0              3454.2829      45.818947      20.047001      20.857         19157.832      3173.487       4801.4455      2387.9163      1674.0587     -1047.1212      278.95401    
  35861500   275.05784     -352.07703     -271.47608     -351.93924      0              3488.0451      45.736895      20.047001      20.857         19123.524      2693.1869      4559.7598      3211.1887      1363.1134      809.41505      516.6355     
  35862000   274.01079     -351.25991     -270.96577     -351.11953      0              6160.3495      45.627533      20.047001      20.857         19077.798      5805.3712      6494.6237      6181.0536     -1223.0191      523.38622     -279.18933    
  35862500   272.92963     -351.42954     -271.45222     -351.28935      0              4541.5984      45.792996      20.047001      20.857         19146.981      6301.975       1734.7296      5588.0906      781.99759      1349.4788      2079.1715    
  35863000   261.99726     -347.31522     -270.54145     -347.18835      0              4271.6773      46.001139      20.047001      20.857         19234.01       4451.5807      3490.2904      4873.1608     -85.863498      2751.3419      3.5404212    
  35863500   271.15682     -350.45921     -271.00138     -350.29161      0              4401.7176      45.922896      20.047001      20.857         19201.295      4421.434       5003.0192      3780.6998     -188.43899      1368.1627     -825.2722     
  35864000   270.54983     -349.57845     -270.29849     -349.43827      0              5187.1652      45.739955      20.047001      20.857         19124.804      4362.1123      5327.0537      5872.3296     -2311.5607      2505.8307     -1144.5693    
  35864500   265.61555     -349.93143     -272.09737     -349.80447      0              4683.6225      45.683995      20.047001      20.857         19101.406      7327.77        4280.327       2442.7704     -549.80002      507.05837     -833.09513    
  35865000   265.36677     -348.57829     -270.81713     -348.45835      0              4985.1263      45.582315      20.047001      20.857         19058.891      4393.2245      4833.6428      5728.5116     -234.74247     -111.19662     -79.378282    
  35865500   268.80682     -350.46443     -271.69523     -350.33402      0              7989.9979      45.477409      20.047001      20.857         19015.028      8671.9813      7826.654       7471.3585     -350.87713      572.55664     -818.63543    
  35866000   265.5612      -348.41468     -270.59656     -348.27732      0              3913.6146      45.817969      20.047001      20.857         19157.423      4901.722       4338.6748      2500.4469      1770.8932      2577.5445      1112.0962    
  35866500   271.39489     -353.09431     -273.56672     -352.92727      0              4991.2379      45.836093      20.047001      20.857         19165.001      6838.0531      4007.0428      4128.6179     -1179.0781     -291.20908     -1221.7598    
  35867000   272.58769     -348.74217     -268.86505     -348.62694      0              6934.1057      45.528995      20.047001      20.857         19036.597      8873.168       4607.6981      7321.4512      1102.694      -811.09194     -540.04381    
  35867500   276.63057     -349.99429     -268.93248     -349.82869      0              5883.5865      45.53368       20.047001      20.857         19038.556      9045.9215      3978.8765      4625.9614      109.16204     -449.28916     -630.78758    
  35868000   266.5803      -350.21704     -272.10028     -350.06548      0              4139.679       45.799157      20.047001      20.857         19149.557      3898.8655      5677.7379      2842.4337      670.39927      1383.8153      578.96018    
  35868500   271.40259     -348.49828     -268.96844     -348.35786      0              2856.4168      45.890965      20.047001      20.857         19187.944      1300.4017      3643.1882      3625.6605      1586.6892      975.53702      997.73487    
  35869000   266.01427     -347.68704     -269.73615     -347.52876      0              5270.4193      45.680138      20.047001      20.857         19099.793      6089.3568      6377.145       3344.7561     -199.74075     -399.15117     -1415.905     
  35869500   275.32806     -348.73122     -268.05108     -348.56678      0              3722.9763      45.672057      20.047001      20.857         19096.414      5682.2371      1449.4696      4037.2223     -359.26225     -4.7584965      3328.8313    
  35870000   273.58484     -347.55412     -267.3848      -347.4272       0              4893.2782      45.90076       20.047001      20.857         19192.04       3848.2435      6413.1329      4418.4583     -737.46068      151.86339      855.2386     
  35870500   269.40829     -349.72394     -270.77849     -349.56488      0              5246.4106      45.805582      20.047001      20.857         19152.244      6496.5746      5533.5223      3709.1349      478.76924      561.6098      -1223.0146    
  35871000   273.40288     -350.62884     -270.51284     -350.4981       0              6922.1267      45.492343      20.047001      20.857         19021.272      7056.5799      8727.6288      4982.1713     -452.89763      938.51194      1673.0006    
  35871500   275.10878     -353.1805      -272.56461     -353.04939      0              5284.2369      45.603556      20.047001      20.857         19067.773      6366.7814      5417.5826      4068.3467      200.17828     -1283.4683     -326.41778    
  35872000   269.59662     -350.90338     -271.90274     -350.77239      0              4096.1842      45.969787      20.047001      20.857         19220.901      4804.4243      3939.142       3544.9863      324.85609     -234.57318      3166.8126    
  35872500   255.41857     -348.17935     -273.33334     -348.05922      0              3325.0557      45.85384       20.047001      20.857         19172.421      3992.1717      3078.3202      2904.6752     -322.72483      1256.5146     -1455.4815    
  35873000   267.73017     -350.44638     -271.99267     -350.31864      0              5964.9994      45.5802        20.047001      20.857         19058.007      9040.2368      7182.9973      1671.7642      294.43878     -678.01072      1377.1053    
  35873500   272.03        -348.83282     -269.11912     -348.72048      0              4824.1966      45.839065      20.047001      20.857         19166.244      6520.6922      3924.6545      4027.2431      817.1579      -782.39552     -1520.1655    
  35874000   268.32368     -348.86011     -270.23249     -348.75287      0              4028.6013      45.818965      20.047001      20.857         19157.839      4775.5834      2798.2074      4512.0131     -74.52952      -949.67081     -407.83157    
  35874500   266.66149     -350.79342     -272.65287     -350.69316      0              5286.7682      45.548105      20.047001      20.857         19044.588      5237.2237      5834.0683      4789.0126      57.995387     -856.14467     -638.6796     
  35875000   266.4045      -350.31896     -272.25372     -350.18873      0              4912.3672      45.588315      20.047001      20.857         19061.4        6746.2562      3790.0756      4200.7699      1136.562      -2453.4132     -1571.7779    
  35875500   270.61959     -350.15926     -270.85886     -350.02764      0              3364.4762      45.871271      20.047001      20.857         19179.71       4536.868       1866.8604      3689.7001     -618.75602     -834.88921     -1311.7347    
  35876000   267.49777     -350.21472     -271.82911     -350.08785      0              5256.675       45.717042      20.047001      20.857         19115.223      5415.052       6553.0939      3801.8791      28.718085     -1174.0994      674.71436    
  35876500   273.59441     -351.43488     -271.26276     -351.27704      0              5082.7697      45.610863      20.047001      20.857         19070.828      6326.1181      4613.7113      4308.4798      1097.6239     -1002.5728     -552.63826    
  35877000   274.29212     -348.89236     -268.51579     -348.7627       0              5789.1373      45.890143      20.047001      20.857         19187.6        5700.3162      5663.2022      6003.8935     -665.07518      403.49149     -1086.4776    
  35877500   272.78859     -351.227       -271.29101     -351.13108      0              5378.5205      46.02814       20.047001      20.857         19245.3        7825.0538      5291.2977      3019.21        22.446606      440.44541     -166.21942    
  35878000   271.92924     -351.75872     -272.07455     -351.60057      0              5044.9393      45.763899      20.047001      20.857         19134.815      7634.7091      4487.4615      3012.6473     -583.86367     -1753.9292      334.36671    
  35878500   269.37326     -350.50713     -271.57194     -350.36887      0              6712.9371      45.525952      20.047001      20.857         19035.325      7504.6273      4465.7509      8168.4331      1198.6881     -1529.298       298.48355    
  35879000   268.53361     -350.86308     -272.17394     -350.72655      0              5760.5904      45.633956      20.047001      20.857         19080.484      6034.6054      6094.3932      5152.7726     -112.2391       537.12681     -1122.7389    
  35879500   269.79835     -348.61206     -269.55231     -348.47354      0              7349.0189      45.603721      20.047001      20.857         19067.842      9944.2849      4687.7354      7415.0366      297.75493     -716.43041      1271.7805    
  35880000   265.17813     -348.11979     -270.41392     -348.00987      0              4459.999       45.535349      20.047001      20.857         19039.254      4780.638       3340.2713      5259.0876     -98.611679     -1365.5554     -427.83482    
  35880500   271.2263      -350.63823     -271.16004     -350.50016      0              5914.6644      45.548462      20.047001      20.857         19044.736      5417.073       5060.5769      7266.3433     -759.67098     -660.38441      543.83233    
  35881000   268.58573     -350.68516     -271.98074     -350.57953      0              6483.2615      45.601635      20.047001      20.857         19066.969      7913.4276      6242.0796      5294.2775      1079.0374     -1157.2764      103.27057    
  35881500   279.86754     -350.38748     -268.37713     -350.25544      0              7974.9069      45.443466      20.047001      20.857         19000.835      9124.4799      6594.8455      8205.3953     -542.32433      921.90882     -425.4275     
  35882000   273.97926     -350.36226     -270.07737     -350.24374      0              2244.3964      45.681062      20.047001      20.857         19100.179      1653.6816      3711.2078      1368.2998      711.30841     -317.88926     -447.90825    
  35882500   269.20751     -347.89803     -269.01141     -347.77897      0              4559.5512      45.740694      20.047001      20.857         19125.113      4526.237       4445.0249      4707.3916     -14.18171       126.7567       1190.5597    
  35883000   271.10464     -351.33067     -271.88814     -351.20449      0              4847.7184      45.434941      20.047001      20.857         18997.271      5354.5523      4487.5765      4701.0265     -1509.6425      24.660621      782.23532    
  35883500   262.89346     -347.47528     -270.43889     -347.39212      0              7120.5066      45.283996      20.047001      20.857         18934.158      8131.8132      5852.4756      7377.2311      1116.9382     -588.56816      862.10823    
  35884000   271.622       -350.84398     -271.24984     -350.71622      0              5743.5223      45.437608      20.047001      20.857         18998.386      6344.5059      5569.0552      5317.006       816.81859      1242.1512     -1433.84      
  35884500   274.02873     -350.71349     -270.41409     -350.58178      0              6137.8338      45.644136      20.047001      20.857         19084.74       6813.1622      4092.5316      7507.8077     -518.82217      1405.5485      404.52569    
  35885000   271.61441     -347.56929     -267.97738     -347.42109      0              6328.3025      45.604826      20.047001      20.857         19068.304      8456.6741      4614.4678      5913.7656      1114.7482     -1074.4121     -929.32364    
  35885500   277.56875     -348.04873     -266.71199     -347.90437      0              4620.4144      45.601403      20.047001      20.857         19066.872      5049.3305      2907.65        5904.2627      2034.1934     -350.62075     -2115.9585    
  35886000   267.85153     -348.96167     -270.4724      -348.83053      0              2655.6008      45.659389      20.047001      20.857         19091.117      2750.0805      4245.4659      971.25588      120.15899      697.40397      3.8946374    
  35886500   266.09584     -349.11242     -271.13763     -349.02909      0              5283.9524      45.785856      20.047001      20.857         19143.996      4210.9151      4900.7583      6740.1838      412.40705      1398.1193      537.031      
  35887000   272.01974     -350.12196     -270.41127     -349.99707      0              3836.53        45.730747      20.047001      20.857         19120.954      2801.9625      3962.5559      4745.0717     -911.40512      421.58953      839.46205    
  35887500   267.75745     -349.41965     -270.95794     -349.29904      0              5132.3184      45.652201      20.047001      20.857         19088.112      7091.8337      4659.7016      3645.4198      1.2381415      935.86097      75.749286    
  35888000   273.65465     -349.79151     -269.60173     -349.67653      0              3534.2329      45.834474      20.047001      20.857         19164.324      4295.7098      4472.7917      1834.1971      1493.2297     -1104.437      -169.06007    
  35888500   267.1575      -349.22559     -270.93969     -349.09808      0              6922.2661      45.828125      20.047001      20.857         19161.67       6964.6188      7044.2207      6757.9587      102.37708     -747.9056      -834.06991    
  35889000   269.04672     -348.47477     -269.63527     -348.34721      0              3511.2271      45.851182      20.047001      20.857         19171.31       4700.4537      3166.7983      2666.4292     -761.29878     -713.77226      1451.0187    
ERROR on proc 0: Cannot open restart file restart.lmp.0: Permission denied (../write_restart.cpp:233)
Last command: run             40000000 upto
