LAMMPS (23 Jun 2022)
echo both

include		in.partitions
variable        pid world 0
include		in.temp
variable	temperature equal 270.0
variable        tempDamp equal 0.100 # this is 0.1 ps
include		in.pressure
variable        pressure equal 6079.5
variable        pressureDamp equal 1.0 #this is 1ps
include		in.seed
variable        seed world 745823

units           metal
atom_style	full
read_restart	restart.lmp.${pid}
read_restart	restart.lmp.0
Reading restart file ...
  restart file = 23 Jun 2022, LAMMPS = 23 Jun 2022
  restoring atom style full from restart
  orthogonal box = (0.86130872 0 0) to (46.58939 20.047001 20.857)
  4 by 1 by 1 MPI processor grid
Summary of lammps deepmd module ...
  >>> Info of deepmd-kit:
  installed to:       /u/sigbjobo/software/DEEPMD_FROM_SOURCE/deepmd-kit/install
  source:             v2.1.3
  source branch:       master
  source commit:      5a32c49
  source commit at:   2022-07-01 09:52:58 +0800
  surpport model ver.:1.1 
  build float prec:   double
  build with tf inc:  /u/sigbjobo/software/DEEPMD_FROM_SOURCE/tensorflow/install/include;/u/sigbjobo/software/DEEPMD_FROM_SOURCE/tensorflow/install/include
  build with tf lib:  /u/sigbjobo/software/DEEPMD_FROM_SOURCE/tensorflow/install/lib/libtensorflow_cc.so;/u/sigbjobo/software/DEEPMD_FROM_SOURCE/tensorflow/install/lib/libtensorflow_framework.so
  set tf intra_op_parallelism_threads: 0
  set tf inter_op_parallelism_threads: 0
  >>> Info of lammps module:
  use deepmd-kit at:  /u/sigbjobo/software/DEEPMD_FROM_SOURCE/deepmd-kit/install
  source:             v2.1.3
  source branch:      master
  source commit:      5a32c49
  source commit at:   2022-07-01 09:52:58 +0800
  build float prec:   double
  build with tf inc:  /u/sigbjobo/software/DEEPMD_FROM_SOURCE/tensorflow/install/include;/u/sigbjobo/software/DEEPMD_FROM_SOURCE/tensorflow/install/include
  build with tf lib:  /u/sigbjobo/software/DEEPMD_FROM_SOURCE/tensorflow/install/lib/libtensorflow_cc.so;/u/sigbjobo/software/DEEPMD_FROM_SOURCE/tensorflow/install/lib/libtensorflow_framework.so
  restoring pair style deepmd from restart
  2268 atoms
Finding 1-2 1-3 1-4 neighbors ...
  special bond factors lj:    0        0        0       
  special bond factors coul:  0        0        0       
     0 = max # of 1-2 neighbors
     0 = max # of 1-3 neighbors
     0 = max # of 1-4 neighbors
     1 = max # of special neighbors
  special bonds CPU = 0.000 seconds
  read_restart CPU = 0.045 seconds
include 	in.setup
variable	out_freq equal 500
variable	out_freq2 equal 1000
variable	out_freq3 equal 5000

timestep        0.0005

neigh_modify    delay 7 every 1

include         in.deepmd
# This is deepMD model

# create groups ###
#group ox type 2
#group hy type 1

mass 2 15.999
mass 1 1.008

pair_style      deepmd ../graph.pb
pair_coeff      * *

bond_style      none
angle_style     none
dihedral_style  none
improper_style  none
neigh_modify exclude none


neighbor        2.0 bin
neigh_modify    every 10 delay 0 check no

thermo          ${out_freq}
thermo          500
thermo_style 	custom step temp pe etotal epair emol press lx ly lz vol pxx pyy pzz pxy pxz pyz
#thermo_modify	flush yes
restart 	${out_freq} restart.lmp.${pid} restart2.lmp.${pid}
restart 	500 restart.lmp.${pid} restart2.lmp.${pid}
restart 	500 restart.lmp.0 restart2.lmp.${pid}
restart 	500 restart.lmp.0 restart2.lmp.0

include		in.dump
dump            myDump all atom ${out_freq3} dump.water.${pid}
dump            myDump all atom 5000 dump.water.${pid}
dump            myDump all atom 5000 dump.water.0
dump            myDump2 all dcd ${out_freq2} dump.dcd.${pid}
dump            myDump2 all dcd 1000 dump.dcd.${pid}
dump            myDump2 all dcd 1000 dump.dcd.0
dump_modify     myDump append yes
dump_modify     myDump2 append yes


timer           timeout 23:50:00 every 1000
New timer settings: style=normal  mode=nosync  timeout=23:50:00

fix             1 all plumed plumedfile plumed.dat outfile plumed.out
fix             3 all nph x ${pressure} ${pressure} ${pressureDamp}
fix             3 all nph x 6079.5 ${pressure} ${pressureDamp}
fix             3 all nph x 6079.5 6079.5 ${pressureDamp}
fix             3 all nph x 6079.5 6079.5 1
fix             4 all temp/csvr ${temperature} ${temperature} ${tempDamp} ${seed}
fix             4 all temp/csvr 270 ${temperature} ${tempDamp} ${seed}
fix             4 all temp/csvr 270 270 ${tempDamp} ${seed}
fix             4 all temp/csvr 270 270 0.1 ${seed}
fix             4 all temp/csvr 270 270 0.1 745823

run             40000000 upto

CITE-CITE-CITE-CITE-CITE-CITE-CITE-CITE-CITE-CITE-CITE-CITE-CITE

Your simulation uses code contributions which should be cited:

- USER-DEEPMD package:

@article{Wang_ComputPhysCommun_2018_v228_p178,
  author = {Wang, Han and Zhang, Linfeng and Han, Jiequn and E, Weinan},
  doi = {10.1016/j.cpc.2018.03.016},
  url = {https://doi.org/10.1016/j.cpc.2018.03.016},
  year = 2018,
  month = {jul},
  publisher = {Elsevier {BV}},
  volume = 228,
  journal = {Comput. Phys. Commun.},
  title = {{DeePMD-kit: A deep learning package for many-body potential energy representation and molecular dynamics}},
  pages = {178--184}
}

CITE-CITE-CITE-CITE-CITE-CITE-CITE-CITE-CITE-CITE-CITE-CITE-CITE

Generated 0 of 1 mixed pair_coeff terms from geometric mixing rule
Neighbor list info ...
  update every 10 steps, delay 0 steps, check no
  max neighbors/atom: 2000, page size: 100000
  master list distance cutoff = 8
  ghost atom cutoff = 8
  binsize = 4, bins = 12 6 6
  1 neighbor lists, perpetual/occasional/extra = 1 0 0
  (1) pair deepmd, perpetual
      attributes: full, newton on
      pair build: full/bin
      stencil: full/bin/3d
      bin: standard
Per MPI rank memory allocation (min/avg/max) = 6.186 | 6.189 | 6.192 Mbytes
   Step          Temp          PotEng         TotEng         E_pair         E_mol          Press            Lx             Ly             Lz           Volume          Pxx            Pyy            Pzz            Pxy            Pxz            Pyz      
  15298000   271.30356     -348.46082     -268.95999     -348.46082      0              6063.6234      45.728082      20.047001      20.857         19119.839      8081.0037      5626.0181      4483.8485      127.3991       22.58798      -2387.9831    
  15298500   275.24919     -348.87126     -268.21423     -348.85578      0              6464.4757      45.655898      20.047001      20.857         19089.658      8129.7728      4385.6375      6878.0168      657.48967      361.49901     -179.56667    
  15299000   267.75524     -345.74116     -267.28011     -345.72371      0              5952.3969      45.518109      20.047001      20.857         19032.045      5185.5304      6521.0392      6150.6211      395.066        1817.6052      572.05017    
  15299500   268.76008     -347.67917     -268.92366     -347.67632      0              6162.5634      45.578247      20.047001      20.857         19057.19       5870.198       6365.1789      6252.3132     -964.95867      1147.2432      993.94109    
  15300000   271.58732     -346.11927     -266.53529     -346.11795      0              5363.7494      45.812622      20.047001      20.857         19155.187      7057.4698      4313.7939      4719.9844     -56.695532      812.19887     -383.98484    
  15300500   278.21987     -348.05571     -266.52818     -348.04045      0              4452.8004      45.871767      20.047001      20.857         19179.917      4536.2662      6510.8457      2311.2894      119.3819      -1443.635      -2150.989     
  15301000   272.1646      -347.52495     -267.77181     -347.51161      0              6046.3019      45.678767      20.047001      20.857         19099.22       5863.2544      6469.3829      5806.2684      2206.5931     -1279.3113      110.28269    
  15301500   270.62492     -348.55973     -269.25777     -348.48445      0              7694.2676      45.300149      20.047001      20.857         18940.912      8371.4813      7493.4373      7217.8843     -224.0119      -332.61817     -14.585641    
  15302000   262.37195     -348.1636      -271.28002     -348.13839      0              5621.0183      45.524621      20.047001      20.857         19034.768      5349.4822      6332.6822      5180.8904      597.11253      1402.6292      177.01342    
  15302500   266.52709     -349.41426     -271.3131      -349.41743      0              5781.6087      46.079788      20.047001      20.857         19266.895      5115.9659      6423.4976      5805.3626     -872.45614      1025.2773     -1436.8516    
  15303000   272.33534     -349.17839     -269.37522     -349.20198      0              6941.7642      45.770187      20.047001      20.857         19137.444      9255.4126      4224.305       7345.5748     -496.92907     -613.4421       1515.7729    
  15303500   265.76376     -348.76024     -270.88275     -348.7452       0              6411.0895      45.450007      20.047001      20.857         19003.57       5125.314       4992.1687      9115.7857      1220.288       754.13514      1740.0896    
  15304000   270.20428     -350.25339     -271.07468     -350.16854      0              3267.9216      45.742012      20.047001      20.857         19125.664      5991.9577      3723.8186      87.988351      1854.8292     -201.69844      937.66663    
  15304500   267.11839     -349.60793     -271.33349     -349.5743       0              4392.7725      45.989452      20.047001      20.857         19229.123      4202.0789      4830.6706      4145.5678     -867.48487      1264.2768     -608.17411    
  15305000   272.6517      -348.07966     -268.18378     -348.08245      0              4714.2724      45.767789      20.047001      20.857         19136.442      5911.7054      4940.1784      3290.9334     -343.78632     -905.30118     -1295.4327    
  15305500   274.67333     -348.7288      -268.24052     -348.73606      0              7210.1756      45.712248      20.047001      20.857         19113.219      7535.304       7040.1523      7055.0706     -1790.5403      505.49313      278.61274    
  15306000   267.2157      -348.49281     -270.18986     -348.38893      0              5151.6482      45.804489      20.047001      20.857         19151.787      6663.0672      4326.6154      4465.2619      652.37231      63.748931      622.45831    
  15306500   271.34706     -350.39557     -270.882       -350.33352      0              5970.7185      45.855068      20.047001      20.857         19172.935      4899.6623      6679.7458      6332.7476     -49.620872     -139.71809     -173.14563    
  15307000   271.8079      -346.93217     -267.28355     -346.90688      0              5101.6448      45.863225      20.047001      20.857         19176.345      5322.6563      6708.4534      3273.8248      1213.3625     -2506.3392      563.24739    
  15307500   273.7744      -349.02721     -268.80234     -348.97087      0              4521.8811      45.843135      20.047001      20.857         19167.945      3748.1144      3995.4155      5822.1134     -271.90298      1958.5375     -896.4795     
  15308000   272.6298      -346.39739     -266.50793     -346.30165      0              5871.5404      45.71099       20.047001      20.857         19112.693      6086.0521      6853.3699      4675.1994      169.26361      1800.8251     -952.55471    
  15308500   280.33847     -346.49631     -264.34796     -346.42859      0              5577.5973      45.683696      20.047001      20.857         19101.28       6708.2935      6070.9333      3953.5653     -653.23395     -42.931466      762.52458    
  15309000   269.05483     -347.01809     -268.17621     -346.89986      0              5722.6016      45.780767      20.047001      20.857         19141.868      6984.5668      4371.2307      5812.0073      421.97556      376.98457     -386.53741    
  15309500   261.88242     -346.49931     -269.75918     -346.39939      0              3500.7662      45.689355      20.047001      20.857         19103.647      2625.7479      4055.5022      3821.0487      12.484253      998.37971      745.34438    
  15310000   271.79985     -347.65024     -268.00399     -347.54213      0              4666.6468      45.41738       20.047001      20.857         18989.929      6720.0824      5821.6536      1458.2044     -121.03465     -168.34297     -1241.2788    
  15310500   269.26289     -347.24036     -268.33752     -347.2582       0              5569.7306      45.496998      20.047001      20.857         19023.219      5688.149       6430.0705      4590.9722      786.16692      1080.6274      1736.0667    
  15311000   271.73184     -346.06421     -266.43788     -346.02054      0              4927.5685      45.687544      20.047001      20.857         19102.89       3548.0843      5217.662       6016.9592     -1573.5802     -1993.3329     -1064.2144    
  15311500   272.48948     -350.18078     -270.33244     -350.11012      0              5035.5004      45.582383      20.047001      20.857         19058.92       7080.17        1721.6649      6304.6663     -184.23839     -1191.4108      3488.9389    
  15312000   264.93091     -349.10062     -271.46719     -349.049        0              5355.9215      45.712012      20.047001      20.857         19113.12       6430.9882      4036.0057      5600.7705      297.98212      1317.4105     -103.64759    
  15312500   259.27927     -349.53789     -273.56058     -349.44146      0              3679.9305      45.709411      20.047001      20.857         19112.033      6191.635       589.29509      4258.8614      1161.3248     -719.36084     -1243.9299    
  15313000   276.80347     -349.30856     -268.19608     -349.27732      0              6032.9872      45.483767      20.047001      20.857         19017.686      7738.3758      4010.1598      6350.4261      1032.9188     -169.77621      209.22109    
  15313500   265.73243     -347.28737     -269.41906     -347.25194      0              4044.1305      45.781977      20.047001      20.857         19142.374      5012.2716      3187.2279      3932.892       188.30491     -412.0425      -1809.6087    
  15314000   267.56197     -347.28932     -268.8849      -347.2674       0              4192.3052      45.961569      20.047001      20.857         19217.465      5666.0834      5768.1547      1142.6775      293.03915     -810.42258     -209.64275    
  15314500   271.14863     -348.00383     -268.5484      -347.96998      0              5855.7785      45.811331      20.047001      20.857         19154.648      7522.2428      4458.0574      5587.0354      1120.5828      670.30285     -126.02952    
  15315000   271.74632     -348.14762     -268.51704     -348.1492       0              5601.9721      45.681939      20.047001      20.857         19100.546      8490.1696      6231.9001      2083.8465     -485.95373     -1218.9341     -804.11266    
  15315500   267.14848     -347.48831     -269.20505     -347.42765      0              4936.2657      45.717602      20.047001      20.857         19115.457      6759.9025      3644.1803      4404.7144      1651.9581      1486.6176     -497.57381    
  15316000   264.91682     -349.32284     -271.69354     -349.32065      0              3764.6624      45.897836      20.047001      20.857         19190.817      4839.8608      4247.925       2206.2013      1084.9057      1029.8575     -861.18981    
  15316500   268.82765     -349.48894     -270.71363     -349.44592      0              7116.0804      45.598759      20.047001      20.857         19065.767      5630.4294      7402.9437      8314.8679     -1200.6219      1658.4629      1789.351     
  15317000   262.8549      -347.72668     -270.70158     -347.71764      0              5058.2937      45.787123      20.047001      20.857         19144.526      6387.3858      5571.1056      3216.3897      296.22541      274.33132     -262.32058    
  15317500   268.66252     -349.01953     -270.29261     -348.98986      0              4488.3871      45.978325      20.047001      20.857         19224.471      2684.7347      4458.9186      6321.5079      498.02915      554.64081      8.984006     
  15318000   269.28835     -351.06183     -272.15152     -351.00177      0              4712.8668      46.009541      20.047001      20.857         19237.523      5138.8374      3845.5212      5154.2417      882.15663      2760.6918     -1315.7289    
  15318500   263.92122     -347.82606     -270.4885      -347.71894      0              6556.4288      45.642493      20.047001      20.857         19084.053      7879.0026      5050.6334      6739.6502     -1241.4766     -353.35733      235.68353    
  15319000   270.00717     -351.86787     -272.74693     -351.79921      0              1511.9243      45.701309      20.047001      20.857         19108.645      1950.9497      728.08079      1856.7425      1155.2284     -484.58176     -1408.3373    
  15319500   265.34609     -351.07823     -273.32314     -350.96848      0              6249.5846      45.712117      20.047001      20.857         19113.164      7522.9841      6201.2273      5024.5424      333.01271      2191.8089     -262.61148    
  15320000   271.43849     -349.99429     -270.45392     -349.93203      0              6712.7093      45.606017      20.047001      20.857         19068.802      8312.7728      4603.6925      7221.6626     -242.93932      112.51857     -246.17218    
  15320500   270.64205     -349.74005     -270.43307     -349.62811      0              5090.0428      45.784353      20.047001      20.857         19143.368      5384.7023      3919.411       5966.015       1162.891      -797.57295      69.652899    
  15321000   258.22028     -348.87979     -273.2128      -348.7954       0              3986.6746      45.95723       20.047001      20.857         19215.651      4009.9891      2236.4247      5713.6101     -931.71147      954.75428     -851.03419    
  15321500   270.73913     -349.0548      -269.71937     -348.96845      0              6676.6256      45.781643      20.047001      20.857         19142.234      7292.7154      6819.276       5917.8853      2126.9953      870.75777     -938.79736    
  15322000   271.93938     -347.42157     -267.73442     -347.32498      0              4073.6965      45.571121      20.047001      20.857         19054.211      2854.2925      5677.1735      3689.6236     -1176.52        392.64176     -985.72811    
  15322500   271.70696     -348.41207     -268.79303     -348.30482      0              4827.9446      45.494323      20.047001      20.857         19022.1        5858.3953      2981.353       5644.0855      1010.3909      889.34404     -365.22751    
  15323000   275.51369     -345.88162     -265.14708     -345.77852      0              3351.2217      45.931814      20.047001      20.857         19205.024      3154.5567      2858.3123      4040.7961     -31.578443     -988.28561      465.77881    
  15323500   269.35792     -346.58681     -267.65612     -346.53413      0              3524.3423      46.203126      20.047001      20.857         19318.465      914.6275       6121.712       3536.6874     -988.67768      1000.0893      623.05696    
  15324000   282.61222     -347.26754     -264.4529      -347.15683      0              7213.6708      45.73766       20.047001      20.857         19123.844      10091.536      4642.9133      6906.5633      775.16825     -714.91801     -722.50492    
  15324500   268.86621     -347.78939     -269.00278     -347.72524      0              4312.3503      45.766584      20.047001      20.857         19135.938      4448.3212      5273.1224      3215.6074     -770.77446      1967.9367     -1914.7932    
  15325000   271.46449     -346.31585     -266.76786     -346.3036       0              4786.7354      45.755634      20.047001      20.857         19131.359      7379.8336      2375.9302      4604.4425     -1128.3021      1827.9427      1631.2595    
  15325500   281.03549     -350.59635     -268.24374     -350.50315      0              8425.1816      45.556664      20.047001      20.857         19048.166      10998.421      8901.4499      5375.6733     -1415.7881      711.34531     -261.04992    
  15326000   264.56008     -348.61995     -271.09518     -348.51465      0              3586.4064      45.769905      20.047001      20.857         19137.326      5083.2893      2618.6982      3057.2318      546.22742     -802.68472     -363.09662    
  15326500   276.36128     -349.94904     -268.96613     -349.84307      0              6155.866       45.617402      20.047001      20.857         19073.562      6535.1707      7409.6037      4522.8237      81.6404        70.807781     -62.898384    
  15327000   265.38089     -347.43437     -269.66908     -347.33752      0              3804.7327      45.489355      20.047001      20.857         19020.023      5131.7367      3868.4885      2413.973      -1061.3491      1411.6786     -320.28429    
  15327500   270.69952     -346.4967      -267.17287     -346.40488      0              8026.1745      45.548355      20.047001      20.857         19044.692      8606.7506      9109.0027      6362.7703     -594.33154      2146.4674     -3054.583     
  15328000   279.77133     -345.42632     -263.44416     -345.41053      0              7121.396       45.635304      20.047001      20.857         19081.047      5957.6616      6577.6093      8828.9173      1478.5434     -371.06433      863.63206    
  15328500   277.12536     -348.45476     -267.24796     -348.42693      0              5153.7134      45.568741      20.047001      20.857         19053.216      4897.145       7077.9776      3486.0177      1073.884       1890.2195     -1707.0017    
  15329000   272.23507     -344.81894     -265.04515     -344.79782      0              4010.4831      45.502565      20.047001      20.857         19025.546      4043.3509      3658.1025      4329.9958     -289.18404      362.92919     -1589.8585    
  15329500   271.02726     -347.18362     -267.76375     -347.13724      0              3081.6556      45.529672      20.047001      20.857         19036.88       3097.4152      2052.405       4095.1467     -939.6291       217.43957      1174.1537    
  15330000   268.43879     -347.73988     -269.07853     -347.7071       0              4895.6956      45.770934      20.047001      20.857         19137.757      4666.695       5541.7046      4478.6873      861.99204      1906.2069      1032.6144    
  15330500   276.44947     -347.63814     -266.62939     -347.58056      0              3838.064       45.727582      20.047001      20.857         19119.63       5646.3372      3000.0549      2867.7998     -95.021831     -1578.0578      759.72181    
  15331000   273.22642     -346.95668     -266.89239     -346.87522      0              5888.712       45.518406      20.047001      20.857         19032.169      4335.0422      7995.9642      5335.1295     -482.4057      -353.18721     -477.84228    
  15331500   260.67183     -347.40602     -271.02064     -347.37209      0              6355.1933      45.702929      20.047001      20.857         19109.322      5879.1827      7696.5365      5489.8608     -758.36218      2436.0857      161.11764    
  15332000   265.70871     -349.7154      -271.85405     -349.65276      0              3806.4281      45.955516      20.047001      20.857         19214.934      5212.2837      3211.5537      2995.447      -1483.4871      1610.1456      1110.4789    
  15332500   264.81809     -350.50283     -272.90246     -350.48721      0              5350.9141      45.896509      20.047001      20.857         19190.262      6599.3925      3229.7869      6223.5629      468.1834      -423.51902     -387.80462    
  15333000   271.29275     -351.74182     -272.24415     -351.63754      0              5151.809       45.545125      20.047001      20.857         19043.341      4675.2419      5381.5585      5398.6265      1408.8314      974.16275     -145.67295    
  15333500   273.14394     -349.98994     -269.94982     -349.91522      0              5082.1075      45.577458      20.047001      20.857         19056.861      6716.9283      4904.3134      3625.0808     -2649.6048     -325.50507     -354.26376    
  15334000   270.86564     -349.60273     -270.23023     -349.53875      0              5716.2945      45.708332      20.047001      20.857         19111.582      4327.3333      6585.3411      6236.2091     -480.92902     -825.37774      129.97534    
  15334500   267.90621     -349.28575     -270.78046     -349.23103      0              4338.5988      45.67272       20.047001      20.857         19096.691      6280.3956      2255.5014      4479.8993     -1413.9743      429.82879     -780.43411    
  15335000   270.23296     -349.51185     -270.32475     -349.43671      0              7361.1864      45.379255      20.047001      20.857         18973.988      9395.5538      4582.4399      8105.5655     -111.82223      1379.2211      544.40807    
  15335500   267.29398     -350.22864     -271.90275     -350.23377      0              5906.401       45.694817      20.047001      20.857         19105.931      4633.7124      7073.1918      6012.2987     -670.48018      530.25792     -1606.7481    
  15336000   271.3233      -348.05513     -268.54852     -348.05059      0              3780.676       46.016829      20.047001      20.857         19240.571      5426.0561      332.54401      5583.428      -1215.1875      86.142762     -955.35363    
  15336500   276.03241     -348.73152     -267.84499     -348.67859      0              7274.1553      45.910743      20.047001      20.857         19196.214      9965.2815      6746.9625      5110.2219     -107.94458      108.62339      728.14284    
  15337000   272.8582      -349.47552     -269.51913     -349.42514      0              4347.203       45.55199       20.047001      20.857         19046.212      4147.4934      5362.187       3531.9287     -73.866673      751.23127      1773.5981    
  15337500   265.7159      -344.65245     -266.78899     -344.66115      0              4945.4542      45.609867      20.047001      20.857         19070.411      4687.8124      4391.4243      5757.1259     -900.19245      720.69005      2608.8667    
  15338000   268.78946     -348.91132     -270.1472      -348.80738      0              7393.1398      45.877046      20.047001      20.857         19182.124      8591.8019      6267.3247      7320.2929      65.724781      1301.8101     -891.58095    
  15338500   265.66783     -348.90819     -271.05882     -348.80162      0              5651.8436      45.689839      20.047001      20.857         19103.849      7104.1835      4770.3856      5080.9617      202.78806      1730.2907     -1673.744     
  15339000   263.22236     -349.37044     -272.23766     -349.32348      0              6053.1934      45.861559      20.047001      20.857         19175.649      6708.3235      6800.7054      4650.5515     -16.619354      2176.0429      1197.8655    
  15339500   266.58972     -347.36962     -269.2501      -347.32223      0              4751.1372      46.029447      20.047001      20.857         19245.846      4907.48        2907.621       6438.3107      157.68993      161.78317     -1937.3236    
  15340000   274.34715     -349.30519     -268.91249     -349.22542      0              5560.7957      45.844407      20.047001      20.857         19168.477      4841.934       5453.0615      6387.3916     -490.55232      622.01981      692.63605    
  15340500   278.87147     -350.65855     -268.94007     -350.58066      0              5774.1302      45.676368      20.047001      20.857         19098.217      4390.2617      6214.2968      6717.8321     -560.82284      588.49808     -1271.0895    
  15341000   272.57787     -349.00334     -269.1291      -348.90337      0              6244.8539      45.584166      20.047001      20.857         19059.665      5957.0615      6530.7773      6246.7231     -719.67122      307.81779      376.458      
  15341500   273.35752     -348.95437     -268.85166     -348.94435      0              5146.722       45.559046      20.047001      20.857         19049.162      4497.689       4543.6089      6398.8682      484.72284     -2469.9402      196.96205    
  15342000   264.75573     -350.22922     -272.64712     -350.21018      0              5270.8749      45.658899      20.047001      20.857         19090.913      6636.2897      5308.4201      3867.9147      759.04465     -1689.1863      1438.9561    
  15342500   271.22944     -349.98858     -270.50947     -349.94339      0              4909.8856      45.680154      20.047001      20.857         19099.8        4037.9995      3555.7838      7135.8736      827.866       -283.11603     -307.06887    
  15343000   269.47474     -351.5504      -272.58548     -351.49021      0              4761.5478      45.874409      20.047001      20.857         19181.022      6538.4013      5846.8853      1899.3567     -712.44547      922.14162      1039.9671    
  15343500   263.71584     -350.3874      -273.11003     -350.3696       0              6690.9014      45.763461      20.047001      20.857         19134.632      5431.0211      8231.7026      6409.9804      524.20241      718.65358      1109.3703    
  15344000   269.19302     -350.00711     -271.12474     -349.95678      0              4179.7005      45.875613      20.047001      20.857         19181.525      1343.7266      5670.3585      5525.0164     -419.40099      953.42123      974.56054    
  15344500   277.66635     -351.35946     -269.99412     -351.25118      0              4440.6943      45.705704      20.047001      20.857         19110.483      7270.4405      3435.9508      2615.6916     -688.18862     -558.49275      368.90131    
  15345000   269.6115      -348.67567     -269.67067     -348.61278      0              4536.0018      45.583855      20.047001      20.857         19059.535      2495.043       6325.8628      4787.0995      1483.3192      2634.3899      2233.168     
  15345500   278.27346     -350.18815     -268.64492     -350.09465      0              5519.57        45.57083       20.047001      20.857         19054.089      8036.9984      4078.4395      4443.2719     -44.073443      1593.4317     -577.25075    
  15346000   268.41429     -350.217       -271.56282     -350.15129      0              6895.6036      45.732144      20.047001      20.857         19121.538      6280.2072      8336.3269      6070.2767      889.18583      757.12473      2083.7527    
  15346500   271.35674     -350.08192     -270.56551     -350.03733      0              6191.8902      45.565431      20.047001      20.857         19051.832      8284.2916      5176.1491      5115.2299      237.33753      125.88481      1263.0073    
  15347000   273.81958     -347.8323      -267.59419     -347.76851      0              5881.2545      45.743         20.047001      20.857         19126.077      5316.0732      10148.357      2179.3332      1047.6625     -238.73148      2129.365     
  15347500   277.19998     -345.5414      -264.31272     -345.50894      0              6266.7252      45.915228      20.047001      20.857         19198.089      5668.9991      7886.4882      5244.6882      138.76888      39.74086       476.13057    
  15348000   264.97017     -345.82952     -268.18458     -345.76293      0              4888.0872      45.818954      20.047001      20.857         19157.835      4302.5178      5373.1147      4988.6291     -616.81566      892.35272     -2185.8476    
  15348500   267.74911     -347.7551      -269.29584     -347.63725      0              5390.2297      45.395198      20.047001      20.857         18980.654      5396.5849      7947.5132      2826.591       413.49884      151.58155      316.58162    
  15349000   275.12042     -348.67689     -268.05759     -348.57286      0              7850.2209      45.46144       20.047001      20.857         19008.351      7515.4914      5596.5235      10438.648      160.55584      123.43975     -719.4646     
  15349500   278.24033     -351.6017      -270.06817     -351.5389       0              3974.1069      45.821379      20.047001      20.857         19158.849      4800.9267      2920.7872      4200.6067     -895.0039       1104.2968     -1146.9081    
  15350000   272.43513     -351.54671     -271.7143      -351.48085      0              3884.5589      45.773147      20.047001      20.857         19138.682      4545.4481      3086.9722      4021.2564      32.200238      999.4955      -1075.919     
  15350500   278.83324     -349.84852     -268.14125     -349.86246      0              8138.4159      45.49281       20.047001      20.857         19021.468      10153.137      8627.752       5634.3586      1058.5005     -355.71546     -977.67881    
  15351000   268.25048     -349.84626     -271.24008     -349.80636      0              6195.3298      45.752563      20.047001      20.857         19130.075      5475.7125      5207.7531      7902.5238     -902.97135     -3050.1025      1113.9872    
  15351500   268.28824     -350.03489     -271.41765     -350.03179      0              6027.4581      46.092462      20.047001      20.857         19272.194      5245.6109      5450.2673      7386.4962      612.2755      -795.95578     -241.60053    
  15352000   274.70114     -348.13498     -267.63855     -348.0718       0              7554.6106      45.780769      20.047001      20.857         19141.869      11211.713      5876.5038      5575.6153      2227.2437     -425.48311      312.79212    
  15352500   271.96223     -352.67773     -272.98389     -352.57097      0              5717.3752      45.413571      20.047001      20.857         18988.336      5831.7947      6195.2134      5125.1176      426.75713     -2095.1375     -2508.8384    
  15353000   271.13666     -348.62322     -269.1713      -348.55343      0              7333.26        45.539068      20.047001      20.857         19040.809      9288.601       7066.7061      5644.4728     -1381.0375      855.22062     -271.00936    
  15353500   268.83914     -350.16542     -271.38675     -350.13548      0              3642.2854      45.786801      20.047001      20.857         19144.391      5207.259       4691.7573      1027.8398      663.49691      373.08213     -763.66108    
  15354000   278.82814     -348.28902     -266.58325     -348.22096      0              6975.138       45.635178      20.047001      20.857         19080.994      8411.0269      6131.5308      6382.8563     -181.98815      425.2537      -1386.7899    
  15354500   274.62469     -349.21079     -268.73676     -349.16438      0              5451.7608      45.642123      20.047001      20.857         19083.898      6600.9802      7190.0175      2564.2849      1702.3049      500.98077      2822.427     
  15355000   263.41314     -350.21801     -273.02933     -350.21157      0              3142.2778      45.864098      20.047001      20.857         19176.711      2138.1221      2575.3244      4713.3869      763.81599     -1064.0702     -95.604057    
  15355500   273.08584     -352.11822     -272.09513     -352.05251      0              4551.712       46.034391      20.047001      20.857         19247.913      4874.4473      5783.4692      2997.2196      368.68573     -2206.9302      2989.0646    
  15356000   272.07986     -350.98748     -271.25917     -350.96661      0              4434.888       45.939514      20.047001      20.857         19208.243      5052.4003      5232.2996      3019.9639      207.85815     -592.77434     -927.05696    
  15356500   276.00183     -349.87228     -268.9947      -349.7863       0              7679.1835      45.721981      20.047001      20.857         19117.289      7783.5216      7027.8733      8226.1555      1629.9745     -1112.3074     -513.25547    
  15357000   271.124       -349.58707     -270.13886     -349.51925      0              6791.4709      45.786909      20.047001      20.857         19144.436      6284.4647      7252.7278      6837.2201      1029.3057      936.91499     -797.50629    
  15357500   272.93898     -348.65531     -268.67525     -348.62749      0              4762.3456      45.916543      20.047001      20.857         19198.639      5134.3316      4694.8594      4457.8459     -1159.7807      64.638307      616.31357    
  15358000   268.0366      -348.24636     -269.70286     -348.22729      0              4341.152       45.931672      20.047001      20.857         19204.965      4780.4797      5130.9363      3112.04        1238.9565     -507.78765      785.10696    
  15358500   272.72616     -349.28312     -269.36543     -349.18875      0              4702.1717      45.61953       20.047001      20.857         19074.452      4592.8327      4944.2792      4569.4031     -755.66891      487.94491     -885.58316    
  15359000   268.84844     -348.69572     -269.91432     -348.5931       0              7379.1876      45.462559      20.047001      20.857         19008.819      10548.04       3394.3453      8195.1774      960.11924     -308.50694     -11.673848    
  15359500   268.56699     -346.30074     -267.60182     -346.26871      0              5403.17        45.621003      20.047001      20.857         19075.067      6545.6531      2604.656       7059.2009      38.371562     -994.43181      1764.1013    
  15360000   271.97586     -347.60526     -267.90743     -347.56695      0              4542.5138      45.699314      20.047001      20.857         19107.811      5444.3024      5488.2302      2695.0088     -415.79474      551.65902     -620.38591    
  15360500   268.77418     -347.66254     -268.90291     -347.64978      0              5405.4612      45.653358      20.047001      20.857         19088.596      6907.616       5431.2211      3877.5465      62.607576     -683.18804     -787.03638    
  15361000   287.65742     -348.51512     -264.22207     -348.41513      0              7312.6589      45.362812      20.047001      20.857         18967.112      6273.4311      7289.0886      8375.4568     -405.61883     -285.05043      1328.7133    
  15361500   267.86422     -348.15049     -269.6575      -348.13879      0              4457.9977      45.60935       20.047001      20.857         19070.195      7206.4877      4292.6408      1874.8646      327.19934      700.57186      707.05911    
  15362000   274.73746     -347.65696     -267.14988     -347.66882      0              6435.9336      45.918888      20.047001      20.857         19199.619      6196.4396      6306.0013      6805.36        426.15525     -120.21007     -1719.9525    
  15362500   268.82697     -349.87652     -271.10141     -349.85764      0              6083.0731      45.808405      20.047001      20.857         19153.424      5941.725       6984.1442      5323.3501     -647.1464      -364.51246      387.93513    
  15363000   266.37293     -350.41028     -272.35429     -350.43677      0              6041.8694      45.63124       20.047001      20.857         19079.348      6655.6624      7174.4369      4295.5089      616.68385     -1425.8524     -735.65438    
  15363500   269.99899     -350.73598     -271.61744     -350.68857      0              7269.7783      45.279409      20.047001      20.857         18932.24       8261.3263      7460.998       6087.0107     -220.61839     -295.78705     -2110.7029    
  15364000   279.21092     -348.54404     -266.7261      -348.53033      0              5504.2716      45.589064      20.047001      20.857         19061.713      3451.35        7529.865       5531.5999      1035.4779      125.10759      421.4035     
  15364500   276.22114     -347.03246     -266.09062     -347.01781      0              3834.0299      46.074011      20.047001      20.857         19264.479      5166.346       4086.8567      2248.8869      813.57861      34.034174      1454.8103    
  15365000   265.78497     -347.29614     -269.41244     -347.28526      0              3665.5003      45.889557      20.047001      20.857         19187.355      4121.7774      2317.1609      4557.5627      700.36108      296.93398      235.36478    
  15365500   267.8874      -347.59188     -269.0921      -347.56398      0              2898.5554      45.564706      20.047001      20.857         19051.528      3528.4276      1581.1969      3586.0418      1622.2442     -279.95473      1427.0882    
  15366000   265.03202     -348.89083     -271.22777     -348.9167       0              3647.1679      45.69553       20.047001      20.857         19106.229      3831.9715      3381.0309      3728.5013      1133.4929      1549.4576      847.81127    
  15366500   273.38891     -348.31006     -268.19816     -348.34773      0              6875.283       45.837635      20.047001      20.857         19165.646      6902.0208      7905.9934      5817.8348      523.17936     -72.469195     -2354.4712    
  15367000   265.04747     -348.89801     -271.23042     -348.82414      0              5251.1156      45.914797      20.047001      20.857         19197.909      6696.2021      4324.4025      4732.7423     -781.10921      992.60548      577.69736    
  15367500   268.44433     -349.55313     -270.89015     -349.50412      0              6351.4915      45.883274      20.047001      20.857         19184.728      6205.3464      6421.7413      6427.3869     -527.66297      1293.1754     -303.35694    
  15368000   263.19737     -349.3913      -272.26585     -349.38097      0              6363.7637      45.925537      20.047001      20.857         19202.399      6397.681       6173.0659      6520.5444     -183.75094     -169.72395     -1564.0372    
  15368500   270.50652     -351.41347     -272.14619     -351.44687      0              4908.363       45.96012       20.047001      20.857         19216.859      8632.4169      3035.0709      3057.6014      1025.1273     -687.77739     -1205.9949    
  15369000   266.41617     -349.68528     -271.61662     -349.71429      0              5867.0391      45.786005      20.047001      20.857         19144.058      8417.365       3532.0857      5651.6666      785.58648      1375.6186     -130.20411    
  15369500   266.92245     -347.40675     -269.18973     -347.37479      0              3402.254       45.779741      20.047001      20.857         19141.439      5810.3868      1149.7706      3246.6045     -268.63068      493.45268     -21.759061    
  15370000   278.39648     -347.18188     -265.6026      -347.15599      0              5713.4374      45.892524      20.047001      20.857         19188.596      9222.2796      4889.6067      3028.4258      1813.8137      2197.107      -669.56353    
  15370500   260.97083     -345.8571      -269.3841      -345.85716      0              2090.5389      46.160944      20.047001      20.857         19300.828      4165.818       430.17978      1675.619       583.70987     -2273.3772      883.12634    
  15371000   269.01527     -348.93393     -270.10365     -348.85851      0              5847.4435      45.925968      20.047001      20.857         19202.579      3427.5461      6588.6974      7526.0871     -869.56369     -1716.362       1049.4507    
  15371500   276.34059     -348.61874     -267.6419      -348.59883      0              5524.6111      45.633966      20.047001      20.857         19080.487      7792.8721      4622.2847      4158.6766      1253.3003     -131.38955     -413.73087    
  15372000   275.76701     -349.43674     -268.62797     -349.38395      0              4006.9871      45.708411      20.047001      20.857         19111.615      4614.8424      4617.7539      2788.3649      14.657749     -579.83067      37.726738    
  15372500   272.27894     -348.81271     -269.02607     -348.81364      0              5364.3948      45.827428      20.047001      20.857         19161.378      6444.7436      5081.5868      4566.854       650.97869      1668.8656      1841.6751    
  15373000   268.08432     -346.7426      -268.18511     -346.70717      0              4667.6991      45.829735      20.047001      20.857         19162.343      5945.8526      3283.1584      4774.0864     -125.14405     -770.52222     -2533.8196    
  15373500   278.20294     -350.70224     -269.17966     -350.59796      0              7259.5001      45.780262      20.047001      20.857         19141.657      8084.9793      7448.9961      6244.5249     -931.65744      1329.9329     -88.703986    
  15374000   268.949       -349.84617     -271.03531     -349.73829      0              4593.0168      45.82419       20.047001      20.857         19160.024      7112.5267      4634.9318      2031.5919     -529.23256      1609.3125     -694.41725    
  15374500   261.39307     -352.91307     -276.31634     -352.8068       0              4081.6177      45.864086      20.047001      20.857         19176.705      4628.2634      4129.0724      3487.5173     -195.99598      943.09719      1546.6079    
  15375000   262.54246     -352.21603     -275.28249     -352.1193       0              6165.0708      45.621994      20.047001      20.857         19075.482      8130.3922      3645.4574      6719.3629      464.76099      158.17839     -758.9522     
  15375500   268.97072     -350.92455     -272.10732     -350.91078      0              6284.2293      45.532035      20.047001      20.857         19037.868      10314.604      3270.4389      5267.6447      1247.4483      1110.9293     -97.177545    
  15376000   273.08968     -347.03657     -267.01235     -346.93851      0              5118.1714      45.807232      20.047001      20.857         19152.934      4456.1689      6645.6416      4252.7037     -1837.3795      1661.6014      332.0848     
  15376500   268.63175     -350.49385     -271.77595     -350.39512      0              5190.7316      45.828405      20.047001      20.857         19161.786      6624.0976      3633.0476      5315.0494      427.80888     -808.54457     -1002.9141    
  15377000   264.44312     -350.526       -273.0355      -350.42203      0              4758.7113      45.651042      20.047001      20.857         19087.628      5411.219       4327.8644      4537.0504     -704.24109     -1092.5087      317.32592    
  15377500   262.97861     -347.20376     -270.14241     -347.11832      0              5784.3213      45.55152       20.047001      20.857         19046.015      6638.2715      5724.0034      4990.689       986.15091      1684.2877      459.24422    
  15378000   271.2569      -349.5657      -270.07854     -349.46729      0              4924.0396      45.624569      20.047001      20.857         19076.559      6267.8319      5336.7353      3167.5515     -1322.4855     -126.10395     -1185.1972    
  15378500   268.52648     -349.63678     -270.94972     -349.54465      0              6854.086       45.727136      20.047001      20.857         19119.444      7951.4334      7444.1058      5166.7189     -1530.9531     -1821.5613      2204.7234    
  15379000   269.61925     -350.04663     -271.03936     -349.99147      0              4951.5403      45.797301      20.047001      20.857         19148.781      7126.754       4310.4619      3417.4049      1327.6285      489.19438     -735.124      
  15379500   267.49541     -349.50976     -271.12485     -349.40137      0              4962.4987      45.910427      20.047001      20.857         19196.082      3332.0716      7323.8171      4231.6075     -1558.1242      426.80758     -769.10597    
  15380000   272.0185      -350.72795     -271.01762     -350.61858      0              6069.9119      45.785029      20.047001      20.857         19143.65       7913.9891      5562.3071      4733.4394      1127.2899     -144.97245     -353.27387    
  15380500   278.33252     -347.98546     -266.42492     -347.87872      0              5046.3256      45.746905      20.047001      20.857         19127.71       5201.561       4714.953       5222.4627      189.17918     -1404.2211      883.63574    
  15381000   277.06431     -350.12688     -268.93796     -350.00334      0              5830.7333      45.540433      20.047001      20.857         19041.38       8374.5034      4388.0391      4729.6576     -349.45708     -120.4188      -286.70757    
  15381500   267.47741     -347.675       -269.29536     -347.58118      0              5030.6715      45.792485      20.047001      20.857         19146.767      3499.2204      6495.877       5096.9169     -440.14782      506.38495      826.63623    
  15382000   277.41422     -347.7664      -266.47495     -347.67907      0              5741.8052      45.768814      20.047001      20.857         19136.87       4902.2267      6503.4113      5819.7775      35.976732     -2597.5853     -948.78961    
  15382500   270.47523     -349.79297     -270.53487     -349.6693       0              6091.9896      45.413775      20.047001      20.857         18988.421      5064.0527      5348.6006      7863.3156      667.91163      377.33455     -384.48002    
  15383000   270.88982     -350.05714     -270.67756     -350.01862      0              5361.1051      45.494234      20.047001      20.857         19022.063      5766.3843      6516.42        3800.5112      647.02017      1125.0363      390.72421    
  15383500   273.4578      -347.32096     -267.18887     -347.23748      0              6496.189       45.56844       20.047001      20.857         19053.09       4898.2852      9180.743       5409.5389      1033.0122     -1205.0216      333.41544    
  15384000   276.2155      -349.75128     -268.81109     -349.64393      0              5841.4571      45.522924      20.047001      20.857         19034.059      7317.9319      5850.1931      4356.2464      18.893443      546.59291      215.62283    
  15384500   261.77939     -348.87952     -272.16958     -348.77724      0              2896.0329      45.418516      20.047001      20.857         18990.404      4575.1487     -444.21658      4557.1664      1791.5797     -1305.3698      1288.0126    
  15385000   272.061       -350.80801     -271.08523     -350.70176      0              7302.9678      45.30848       20.047001      20.857         18944.395      6551.8224      9077.9581      6279.1229      1159.0345      348.30456      810.37187    
  15385500   266.18763     -347.80723     -269.80554     -347.75258      0              3580.3006      45.501193      20.047001      20.857         19024.973      4667.8088      2735.686       3337.4068     -39.936763     -433.79791      567.96161    
  15386000   274.24549     -349.33437     -268.97146     -349.24927      0              5267.1633      45.51089       20.047001      20.857         19029.027      6357.8819      3153.2672      6290.3409      602.61288      1485.689       858.21366    
  15386500   271.69236     -349.2288      -269.61404     -349.14916      0              3563.4764      45.59456       20.047001      20.857         19064.011      7021.5788      2612.0793      1056.7712     -377.21235     -2551.0444      325.51668    
  15387000   263.67761     -351.28075     -274.01457     -351.17397      0              5356.652       45.453983      20.047001      20.857         19005.233      7234.1098      3948.3184      4887.5279      2240.5519      1415.4131      6.5436915    
  15387500   261.81005     -351.8557      -275.13678     -351.76342      0              4687.1462      45.347034      20.047001      20.857         18960.516      6586.8577      3809.4338      3665.147      -549.44563     -2689.2605      394.07216    
  15388000   261.82907     -351.28353     -274.55904     -351.1799       0              4280.5142      45.425921      20.047001      20.857         18993.5        4437.8519      3235.5041      5168.1866      919.11328      339.85423     -1195.1694    
  15388500   264.42032     -347.47025     -269.98644     -347.40335      0              2737.4202      45.513055      20.047001      20.857         19029.932      3086.356       4015.8123      1110.0923     -3.3411181     -890.01323     -1549.8477    
  15389000   269.08041     -350.1798      -271.33043     -350.07008      0              5802.2868      45.499619      20.047001      20.857         19024.314      3852.0086      6229.4814      7325.3704      801.2587       803.73242      108.07877    
  15389500   271.10236     -351.94959     -272.50772     -351.82965      0              5453.7922      45.564836      20.047001      20.857         19051.583      6909.4828      3430.4915      6021.4025      214.04192     -1787.3949      1262.2176    
  15390000   273.25754     -351.23507     -271.16166     -351.12494      0              5947.7071      45.548545      20.047001      20.857         19044.771      8981.2262      4557.5603      4304.3348     -200.8993      -1539.4394      1909.0432    
  15390500   267.38043     -348.70945     -270.35823     -348.59226      0              7802.926       45.583809      20.047001      20.857         19059.516      6613.3809      7857.8697      8937.5272      572.547        613.0649       1398.3769    
  15391000   269.34391     -349.02288     -270.09629     -348.9207       0              6740.3472      45.544346      20.047001      20.857         19043.015      5911.5442      7398.6831      6910.8141     -564.30409     -557.78236      177.28685    
  15391500   271.91979     -351.7056      -272.0242      -351.58475      0              3352.7998      45.505365      20.047001      20.857         19026.717      3223.7621      2817.3462      4017.2912      1257.7183      294.60372      1671.2309    
  15392000   266.2631      -349.37695     -271.35314     -349.29208      0              6827.7251      45.66894       20.047001      20.857         19095.111      7962.5783      7614.662       4905.935      -933.95978     -1295.9131      549.76509    
  15392500   265.99834     -349.2162      -271.26998     -349.15015      0              4908.7866      46.053592      20.047001      20.857         19255.941      5549.6319      4755.1293      4421.5985     -1012.3338      157.86711      2006.8695    
  15393000   268.87321     -349.72241     -270.93375     -349.6396       0              5808.2885      45.733393      20.047001      20.857         19122.06       7014.3422      3715.275       6695.2482      992.27245     -445.87394      1082.3928    
  15393500   267.78367     -348.58353     -270.11415     -348.50517      0              6890.1329      45.349032      20.047001      20.857         18961.351      8228.5306      5732.4719      6709.3962      815.89209     -1321.002      -2277.2446    
  15394000   272.44341     -350.87826     -271.04342     -350.79897      0              5273.0585      45.658281      20.047001      20.857         19090.654      4110.7794      7121.9155      4586.4805      669.63986     -2358.5333     -1074.3054    
  15394500   268.10311     -349.97975     -271.41675     -349.87316      0              5578.1577      45.84465       20.047001      20.857         19168.579      4171.0189      5571.2636      6992.1908      712.79056     -1001.7344      191.68586    
  15395000   270.26469     -350.19466     -270.99825     -350.10274      0              2651.5569      45.841236      20.047001      20.857         19167.151      5433.5778      2528.4891     -7.3961127      105.40123     -912.83106      407.34153    
  15395500   265.74247     -349.13866     -271.26741     -349.03235      0              5189.3952      45.711897      20.047001      20.857         19113.072      4443.5189      7094.0177      4030.6488     -270.29851     -953.26205     -75.199766    
  15396000   273.10364     -351.73531     -271.707       -351.65633      0              3094.6817      45.75357       20.047001      20.857         19130.496      4117.1078      1816.9383      3349.9988      538.67048      417.7241      -308.052      
  15396500   263.62633     -349.90848     -272.65733     -349.86182      0              4985.8222      45.834667      20.047001      20.857         19164.405      7635.941       4542.3433      2779.1822      708.05424     -1423.5535     -1596.1044    
  15397000   272.67067     -349.84566     -269.94423     -349.72702      0              9074.0351      45.635396      20.047001      20.857         19081.085      9616.1481      8832.4716      8773.4858      648.34758      635.60827      349.96569    
  15397500   271.36786     -348.04053     -268.52086     -347.928        0              3949.9492      45.747833      20.047001      20.857         19128.097      5926.7453      2590.4028      3332.6994      140.42102     -249.46729     -1103.5572    
  15398000   278.7828      -350.64729     -268.9548      -350.54065      0              4442.7211      45.913223      20.047001      20.857         19197.25       5522.8669      4873.5549      2931.7414      878.2821      -1609.5623      809.6656     
  15398500   273.56979     -350.59969     -270.43478     -350.49322      0              6970.0024      45.762703      20.047001      20.857         19134.315      6622.0387      7782.5427      6505.4257     -1979.9501     -733.35473      2027.5742    
  15399000   269.08016     -349.69763     -270.84833     -349.59682      0              6207.9295      45.483786      20.047001      20.857         19017.694      9213.5716      3178.7669      6231.4499      57.060548     -1389.2557     -789.28895    
  15399500   269.25811     -350.00139     -271.09995     -349.87393      0              7087.2344      45.602442      20.047001      20.857         19067.307      4665.1491      9082.8492      7513.7048     -435.3605       386.43425      1871.3643    
  15400000   266.92623     -347.89423     -269.6761      -347.84227      0              3548.6301      45.763799      20.047001      20.857         19134.773      5744.4466      30.471145      4870.9726      1044.8781      1288.5835     -2515.4959    
  15400500   275.35032     -351.51907     -270.83241     -351.42667      0              4857.7464      45.657649      20.047001      20.857         19090.39       4813.5229      4952.7088      4807.0076      220.52301      746.00008      427.39859    
  15401000   269.02076     -350.12087     -271.28898     -350.01948      0              6841.752       45.541346      20.047001      20.857         19041.761      7526.2861      6200.6116      6798.3581      186.04        -449.29858      732.50469    
  15401500   271.78288     -351.10669     -271.4654      -351.04742      0              6172.2303      45.529568      20.047001      20.857         19036.837      6298.1743      6070.9335      6147.5831      204.36594      2053.6037     -1117.5432    
  15402000   264.25215     -348.05517     -270.62064     -348.00277      0              4082.5771      45.712393      20.047001      20.857         19113.279      5372.0538      2673.0108      4202.6665      177.32314     -415.82528      558.01649    
  15402500   271.06498     -350.96354     -271.53263     -350.86038      0              6950.7917      45.859261      20.047001      20.857         19174.688      7891.664       6329.6457      6631.0653      690.05125     -296.02767      1287.788     
  15403000   262.55584     -345.43585     -268.49838     -345.39173      0              3744.291       45.918411      20.047001      20.857         19199.42       8890.5808      2303.4689      38.823381      412.01043      173.39067     -1082.0122    
  15403500   280.01948     -347.44293     -265.38805     -347.39291      0              6742.0879      45.906887      20.047001      20.857         19194.601      5733.1655      7819.8161      6673.2822      743.24707     -792.70185     -591.483      
  15404000   272.82594     -349.22729     -269.28035     -349.17403      0              6072.4949      45.934615      20.047001      20.857         19206.195      7006.5735      6766.391       4444.5203     -1465.8284      308.40839      42.886685    
  15404500   279.15416     -349.05826     -267.25695     -348.9903       0              4104.9318      45.781951      20.047001      20.857         19142.363      5864.4821      3787.1746      2663.1388      23.809237     -341.04007      1681.8319    
  15405000   266.34038     -347.21606     -269.16961     -347.10416      0              6619.2083      46.069037      20.047001      20.857         19262.4        8940.9647      6084.7433      4831.9168     -547.59974     -38.475006      1413.1964    
  15405500   271.90775     -347.03932     -267.36145     -346.93703      0              4238.0742      46.267849      20.047001      20.857         19345.527      6538.0294      3716.2699      2459.9232     -227.40734     -546.64537     -690.57166    
  15406000   277.24103     -348.77852     -267.53782     -348.72257      0              3523.4515      45.937025      20.047001      20.857         19207.203      4047.138       4378.8096      2144.4069      1152.7582      318.38259      85.40293     
  15406500   271.67006     -345.93868     -266.33046     -345.86224      0              5428.1842      45.609654      20.047001      20.857         19070.322      4837.5331      7832.7595      3614.2599     -879.62922     -83.753713     -968.95493    
  15407000   269.38684     -348.30225     -269.36309     -348.23322      0              5354.2028      45.995868      20.047001      20.857         19231.806      7066.6831      4333.2735      4662.6518      955.35925      616.51276     -347.67752    
  15407500   268.20561     -347.13514     -268.54212     -347.12156      0              5758.1672      46.113152      20.047001      20.857         19280.845      5349.9369      6356.9229      5567.6418      1084.8842      413.31324      641.82976    
  15408000   273.76979     -348.53963     -268.31612     -348.47826      0              6196.9367      45.587409      20.047001      20.857         19061.021      6804.1715      4491.8084      7294.8303      763.06152     -539.56388      302.29007    
  15408500   271.05883     -349.74999     -270.32088     -349.7076       0              7982.4061      45.319411      20.047001      20.857         18948.966      9866.4634      8398.5827      5682.1723      1081.0467     -855.12896      618.78299    
  15409000   268.72981     -347.99169     -269.24506     -347.94242      0              4630.6764      45.655889      20.047001      20.857         19089.654      5692.6818      3096.0065      5103.3409     -417.64412      1193.589       93.050669    
  15409500   262.82758     -348.01225     -270.99516     -347.97506      0              5682.5669      45.886982      20.047001      20.857         19186.279      8094.7549      3861.2327      5091.7129     -785.62053     -1359.9827     -872.24856    
  15410000   269.5216      -350.78324     -271.80459     -350.72834      0              4729.5828      45.760668      20.047001      20.857         19133.464      4203.827       5965.6276      4019.2938     -1492.5837      952.52137     -848.49015    
  15410500   268.52671     -349.5308      -270.84369     -349.46033      0              5781.5834      45.506492      20.047001      20.857         19027.188      6556.1191      6481.0009      4307.6302     -1009.4926     -1300.8381     -614.81987    
  15411000   267.95431     -349.06717     -270.54778     -349.05759      0              6244.787       45.561237      20.047001      20.857         19050.078      7865.8602      3666.545       7201.9558      104.7359      -1484.4356      1025.742     
  15411500   267.81217     -348.14324     -269.6655      -348.13508      0              6596.246       45.848824      20.047001      20.857         19170.324      8017.1282      5927.7368      5843.8729      222.95233     -1606.3168      661.95658    
  15412000   270.73404     -348.64382     -269.30988     -348.62735      0              5521.701       45.914987      20.047001      20.857         19197.988      6220.7696      5278.0963      5066.2369     -812.80693     -1443.5057     -1307.4404    
  15412500   274.12558     -348.14976     -267.82199     -348.04401      0              6040.4212      45.857821      20.047001      20.857         19174.086      5698.8853      6690.9827      5731.3955     -1287.1746     -439.55068     -700.87528    
  15413000   275.41341     -348.04472     -267.33958     -347.99166      0              3907.0138      45.769203      20.047001      20.857         19137.033      2667.9144      5162.7789      3890.3483     -111.85612     -2316.553      -1200.061     
  15413500   277.07109     -350.09698     -268.90608     -350.06654      0              3479.937       45.818814      20.047001      20.857         19157.776      4389.0697      4739.2013      1311.5401     -989.0025      -1719.888      -2183.3376    
  15414000   259.51805     -346.84199     -270.7947      -346.80196      0              3456.1381      45.874907      20.047001      20.857         19181.23       4485.4545      1668.1616      4214.7983      861.30635     -313.07686     -2802.6148    
  15414500   280.00602     -350.42006     -268.36913     -350.38507      0              4972.1582      45.670111      20.047001      20.857         19095.6        6177.5638      2999.9077      5739.0031     -640.6276       299.46296     -154.43708    
  15415000   269.31289     -351.13577     -272.21827     -351.10359      0              6805.6594      45.676681      20.047001      20.857         19098.348      5510.1709      6938.8762      7967.9313      796.14166     -665.47774      110.58148    
  15415500   260.53721     -349.73388     -273.38794     -349.66777      0              6937.5472      46.011202      20.047001      20.857         19238.218      6265.8174      7392.1313      7154.6929     -262.06952     -374.94411      360.70496    
  15416000   264.73954     -349.20717     -271.62981     -349.15525      0              2943.5126      46.315826      20.047001      20.857         19365.587      3744.5829      638.28523      4447.6697      799.4919      -1151.3805      707.17689    
  15416500   272.08095     -348.67472     -268.94609     -348.62203      0              5548.6678      46.019134      20.047001      20.857         19241.534      6334.3512      5673.6291      4638.0231      3.9136245     -1252.8474      441.07084    
  15417000   272.6211      -347.8146      -267.92769     -347.79386      0              5527.3541      45.72686       20.047001      20.857         19119.329      6692.7446      3799.4397      6089.8781      562.57408     -212.15859      1014.2945    
  15417500   272.46172     -349.06448     -269.22427     -349.05667      0              5114.1094      45.684943      20.047001      20.857         19101.802      6934.0891      2864.3739      5543.8651     -629.64759     -423.23648      78.608994    
  15418000   267.35467     -347.60898     -269.2653      -347.58341      0              3301.1354      45.983206      20.047001      20.857         19226.512      4215.4261      3702.0632      1985.917      -605.94126      1815.8809      1683.9       
  15418500   267.44598     -347.58852     -269.21809     -347.59538      0              5324.3698      45.966793      20.047001      20.857         19219.649      6253.0358      5135.985       4584.0886      165.00651      296.70205     -250.84065    
  15419000   262.58894     -346.36678     -269.41962     -346.33799      0              4598.996       45.818165      20.047001      20.857         19157.505      3290.917       7250.1181      3255.9528     -1402.3822      306.81555     -727.00994    
  15419500   274.1544      -348.90814     -268.57192     -348.83647      0              6505.4091      45.798965      20.047001      20.857         19149.477      5582.1859      7520.0994      6413.9419     -907.29942     -1673.6867      475.57657    
  15420000   272.35383     -349.43694     -269.62834     -349.39984      0              7524.5272      45.901944      20.047001      20.857         19192.535      5091.4713      7521.3245      9960.7858      861.09778      394.71848     -907.26515    
  15420500   265.58048     -345.76255     -267.93877     -345.79491      0              8666.183       45.947942      20.047001      20.857         19211.767      10826.277      7392.077       7780.1949     -1058.7738      728.47351     -483.30095    
  15421000   263.6128      -348.25876     -271.01158     -348.24852      0              5234.7626      45.653968      20.047001      20.857         19088.851      5642.0063      2248.5863      7813.6952     -1610.9767     -59.009423     -850.35639    
  15421500   269.88584     -348.61471     -269.52933     -348.59445      0              4829.453       45.554379      20.047001      20.857         19047.211      5892.8722      3151.6094      5443.8774     -589.87705      1178.9536      1354.2777    
  15422000   270.52069     -348.21413     -268.9427      -348.17567      0              5412.8966      45.889437      20.047001      20.857         19187.305      5653.3876      4583.3084      6001.9938      1224.4596     -1886.6125     -502.93305    
  15422500   269.70042     -347.09833     -268.06728     -347.06628      0              6536.5123      45.888744      20.047001      20.857         19187.016      6793.9969      5705.5305      7110.0095      347.64889      5.886108      -639.11472    
  15423000   282.82102     -347.18353     -264.30771     -347.17276      0              6589.2608      45.525898      20.047001      20.857         19035.302      8466.6358      6038.5656      5262.5811     -519.36109      1718.049       236.45861    
  15423500   266.4619      -346.43806     -268.356       -346.45786      0              5277.3455      45.74763       20.047001      20.857         19128.013      5667.0098      4752.8101      5412.2167     -900.04723     -1609.8072     -925.53715    
  15424000   276.08457     -347.87808     -266.97626     -347.88669      0              5632.9986      45.999377      20.047001      20.857         19233.273      5482.9318      5351.1341      6064.9299     -425.6656      -483.22428     -735.03538    
  15424500   269.40243     -349.95346     -271.00973     -349.9278       0              6115.0701      45.755334      20.047001      20.857         19131.234      6703.3939      8166.7788      3475.0378     -957.08386      106.18305     -1633.3439    
  15425000   272.1959      -348.55134     -268.78903     -348.5467       0              4545.302       45.613313      20.047001      20.857         19071.852      5243.6978      2620.8398      5771.3685     -1015.0111      1070.6148     -479.96787    
  15425500   280.19021     -351.94707     -269.84216     -351.94352      0              4160.3619      45.462844      20.047001      20.857         19008.938      4637.8248      4619.0631      3224.1979      406.73567     -77.445335      991.99827    
  15426000   269.76169     -350.40901     -271.35999     -350.39682      0              5309.8107      45.588869      20.047001      20.857         19061.631      5777.8764      4993.0715      5158.4843      1596.8884     -294.05743      1131.9634    
  15426500   271.34319     -349.24731     -269.73487     -349.23882      0              6426.7877      45.764994      20.047001      20.857         19135.273      6445.2113      5375.8124      7459.3396      405.89238      1749.5065      649.78078    
  15427000   267.57072     -348.57517     -270.16818     -348.52731      0              5936.3442      45.606151      20.047001      20.857         19068.858      9585.0144      2969.3571      5254.6611      875.09707     -941.56282      238.5756     
  15427500   274.72029     -349.92948     -269.42744     -349.91515      0              6626.5857      45.585278      20.047001      20.857         19060.13       8367.0732      4753.8949      6758.789       1080.5589     -407.55062     -776.64078    
  15428000   270.03436     -350.32926     -271.20035     -350.27861      0              6298.8091      45.706997      20.047001      20.857         19111.023      6459.3964      4830.7178      7606.3131     -144.05639      643.09293      1159.3364    
  15428500   269.80704     -347.69018     -268.62788     -347.70009      0              5438.6986      45.860912      20.047001      20.857         19175.378      4802.196       6000.8533      5513.0464     -1369.9559     -538.41261     -333.83465    
  15429000   263.60604     -350.93067     -273.68547     -350.8964       0              5529.525       45.852594      20.047001      20.857         19171.9        6699.9625      4571.5032      5317.1093      382.32061      1296.3852      111.49353    
  15429500   264.63827     -351.46095     -273.91327     -351.43088      0              5610.525       45.727303      20.047001      20.857         19119.514      8304.1397      3188.648       5338.7874     -150.29436      1.6875103      457.74859    
  15430000   265.58364     -349.03231     -271.2076      -349.00063      0              6618.112       45.558675      20.047001      20.857         19049.007      6850.5452      5964.9735      7038.8174     -478.53722      1247.4728      1363.7721    
  15430500   273.1948      -348.49427     -268.43925     -348.43925      0              6468.8997      45.560898      20.047001      20.857         19049.936      7109.4571      7106.9312      5190.3107      517.36121     -1410.0403     -1330.2429    
  15431000   273.90376     -348.98788     -268.72511     -348.98022      0              5315.2457      45.789351      20.047001      20.857         19145.457      6190.3954      6432.959       3322.3828     -530.64453      809.1831       481.81738    
  15431500   267.61663     -348.98574     -270.56531     -348.94712      0              5511.4911      45.87751       20.047001      20.857         19182.318      5755.9293      4501.2465      6277.2974      31.706531      1259.102       1189.0896    
  15432000   263.9082      -348.53962     -271.20587     -348.45006      0              8219.0325      45.455755      20.047001      20.857         19005.974      9268.3436      10156.921      5231.8327     -1057.2501     -195.19754      1143.241     
  15432500   276.70439     -349.64491     -268.56146     -349.61037      0              3965.9011      45.571167      20.047001      20.857         19054.23       7108.1586      1005.1884      3784.3564      496.80698      2360.8851      558.71943    
  15433000   259.12831     -348.97169     -273.03861     -348.916        0              7741.9213      45.910618      20.047001      20.857         19196.161      10644.514      3347.1528      9234.0972     -386.64802      882.54289      1943.9138    
  15433500   269.00365     -349.90985     -271.08297     -349.8918       0              5919.5336      45.772369      20.047001      20.857         19138.356      7394.3103      4990.7019      5373.5886      81.935457     -801.28752     -127.7201     
  15434000   270.53059     -349.49863     -270.22431     -349.48519      0              7661.6944      45.60172       20.047001      20.857         19067.005      8175.8845      7931.2913      6877.9075     -766.92052      326.48088     -189.79712    
  15434500   271.14442     -349.31292     -269.85872     -349.32641      0              4698.9743      45.695522      20.047001      20.857         19106.226      4211.3067      5411.3004      4474.3157     -1183.2943     -209.41395      1247.1853    
  15435000   274.1064      -349.59515     -269.27299     -349.55565      0              6224.3977      45.89962       20.047001      20.857         19191.563      7306.5269      5987.1357      5379.5304      389.83806      486.46615     -2673.556     
  15435500   272.52852     -346.53055     -266.67077     -346.44406      0              6345.8142      45.788943      20.047001      20.857         19145.287      5902.6138      6201.1597      6933.669      -212.02244      426.92391     -1100.0919    
  15436000   273.20075     -348.12187     -268.0651      -348.11884      0              5539.0286      45.568987      20.047001      20.857         19053.319      5898.5538      4542.7101      6175.8218      1149.447       831.67293      213.00836    
  15436500   266.82449     -348.58673     -270.39842     -348.56373      0              5919.8475      45.837874      20.047001      20.857         19165.746      6926.2125      7334.7212      3498.6089     -962.55264      2743.2093      583.86953    
  15437000   268.77859     -353.87316     -275.11223     -353.80515      0              2383.854       46.003572      20.047001      20.857         19235.027     -51.331486      3221.8782      3981.0153      2254.0505     -23.625356      1026.0019    
  15437500   267.38543     -349.70766     -271.35497     -349.63564      0              6785.7772      45.857763      20.047001      20.857         19174.061      8216.5372      5668.6762      6472.1182     -96.020543      666.37907     -101.57714    
  15438000   272.7197      -349.42418     -269.50838     -349.35556      0              4477.9369      45.757745      20.047001      20.857         19132.242      3313.6609      4683.3652      5436.7845      1143.1046      2108.1786      1499.8822    
  15438500   272.63562     -347.81516     -267.92399     -347.76769      0              5797.3739      46.059148      20.047001      20.857         19258.265      6804.3607      4059.9341      6527.8268     -479.56536     -1331.5876     -347.77378    
  15439000   270.86337     -348.47253     -269.10069     -348.42983      0              4045.9292      46.111872      20.047001      20.857         19280.31       3351.4004      4340.092       4446.2953      416.06813      1689.4678     -689.322      
  15439500   266.66217     -348.06162     -269.92087     -348.08135      0              6097.1669      45.756191      20.047001      20.857         19131.592      5366.5742      8230.3124      4694.6142      154.94537      695.47854      969.32497    
  15440000   273.26595     -349.33204     -269.25617     -349.29112      0              4666.0475      45.485149      20.047001      20.857         19018.264      5641.889       5781.9064      2574.347       76.40439       85.679239      2895.1898    
  15440500   277.30835     -347.83864     -266.57821     -347.80656      0              4579.6676      45.904673      20.047001      20.857         19193.676      4597.5461      4934.0527      4207.4041     -163.65207      271.44508      1899.3737    
  15441000   270.66316     -347.66564     -268.35247     -347.65736      0              4914.4113      46.19498       20.047001      20.857         19315.059      5463.0213      5965.2702      3314.9424      578.82112     -145.40835     -459.48019    
  15441500   270.9011      -347.033       -267.6501      -347.08445      0              5720.583       46.030139      20.047001      20.857         19246.135      5774.8202      6724.0842      4662.8447      1306.2771      1100.6249      221.47602    
  15442000   270.28759     -347.82862     -268.62551     -347.85859      0              4583.6553      45.640468      20.047001      20.857         19083.206      6448.6519      4174.8876      3127.4264     -232.88788     -1833.0157     -433.08793    
  15442500   273.29861     -347.99189     -267.90645     -347.98266      0              7389.1063      45.683708      20.047001      20.857         19101.286      9704.7851      5373.3562      7089.1776     -77.773274     -269.0915      -1629.8046    
  15443000   268.7156      -347.32704     -268.58457     -347.29992      0              5630.5547      45.996458      20.047001      20.857         19232.053      5554.9764      7789.2867      3547.4009     -381.59786     -1764.5429      723.64356    
  15443500   261.7818      -345.02093     -268.31029     -345.01642      0              6052.8768      45.846385      20.047001      20.857         19169.304      7601.8526      4539.2002      6017.5775     -1030.2063     -180.38789     -323.25227    
  15444000   266.94095     -348.36817     -270.14573     -348.32476      0              3391.5636      45.820144      20.047001      20.857         19158.332      6750.6233      1912.2513      1511.8163      322.36957      1634.422      -2560.0838    
[...]
  19092500   271.6632      -349.40762     -269.80141     -349.40851      0              5875.5542      45.321483      20.047001      20.857         18949.832      6853.3327      3795.3653      6977.9647      1552.7076      395.62584     -2048.5728    
  19093000   268.63771     -347.06427     -268.34462     -347.11308      0              8145.806       45.138895      20.047001      20.857         18873.489      9739.4237      9265.805       5432.1893     -280.65987      741.27143      2441.0846    
  19093500   272.41982     -349.5503      -269.72237     -349.56333      0              6984.9943      45.238437      20.047001      20.857         18915.109      3906.5376      7028.9956      10019.45      -496.35644      287.11372     -1738.7924    
  19094000   268.48196     -348.42065     -269.74664     -348.45444      0              4561.749       45.64674       20.047001      20.857         19085.829      3881.3299      5862.2202      3941.6969     -390.47841     -908.80477      1875.2839    
  19094500   271.27476     -345.98632     -266.49393     -346.0054       0              4774.5114      45.462967      20.047001      20.857         19008.989      3786.0971      5323.298       5214.1392     -134.13089      54.526439     -2280.4323    
  19095000   268.4074      -346.46691     -267.81475     -346.47957      0              5135.4358      44.790771      20.047001      20.857         18727.931      6067.1088      3673.4601      5665.7385      560.03961      613.01324      1097.8401    
  19095500   276.15041     -347.12025     -266.19914     -347.15073      0              6462.3659      45.184613      20.047001      20.857         18892.604      7168.674       5267.1831      6951.2405     -1031.4569     -859.10246      1043.6477    
  19096000   274.12707     -350.15952     -269.83132     -350.18899      0              4858.2792      45.773976      20.047001      20.857         19139.029      4560.5854      6483.3227      3530.9295      900.78413     -599.44178     -134.62676    
  19096500   277.78359     -348.48267     -267.08298     -348.5084       0              6473.789       45.676293      20.047001      20.857         19098.185      6253.5513      7060.0411      6107.7746      976.42431     -389.77023      10.350393    
  19097000   269.28544     -345.29167     -266.38222     -345.28935      0              6223.2549      45.493265      20.047001      20.857         19021.658      9307.2846      3894.6114      5467.8686     -14.059902     -340.48309      1341.6477    
  19097500   275.42712     -346.97578     -266.26661     -346.95039      0              6734.3307      45.45464       20.047001      20.857         19005.508      7685.8579      6070.2394      6446.8947     -1135.2427      956.34826     -751.06093    
  19098000   273.58901     -346.95535     -266.78481     -346.96902      0              5789.8976      45.60323       20.047001      20.857         19067.636      5202.7828      6028.2333      6138.6767      146.30667     -41.543412     -694.18722    
  19098500   270.0754      -342.97663     -263.8357      -342.9812       0              3795.9622      45.695242      20.047001      20.857         19106.108      3334.9321      5155.2667      2897.6877     -528.42806     -975.66488      688.80429    
  19099000   275.18603     -346.45057     -265.81205     -346.48941      0              6942.2813      45.805488      20.047001      20.857         19152.204      6692.5868      7893.0518      6241.2053     -1051.6579     -1267.6169     -686.57384    
  19099500   273.8581      -345.25664     -265.00725     -345.29047      0              5032.5965      45.505413      20.047001      20.857         19026.737      4345.7978      5353.9434      5398.0483     -270.46754      110.60665      972.70729    
  19100000   269.36392     -348.31146     -269.37902     -348.3452       0              7354.801       45.424901      20.047001      20.857         18993.073      8315.3195      7349.52        6399.5634     -525.38961      2103.4297      960.39159    
  19100500   272.6741      -347.91686     -268.01442     -347.92596      0              4754.2789      45.738786      20.047001      20.857         19124.315      6467.5811      2463.3024      5331.9532     -913.28575     -1925.2786      465.83575    
  19101000   270.79173     -345.69591     -266.34506     -345.70159      0              4900.4094      45.76282       20.047001      20.857         19134.364      7108.4111      3874.17        3718.6471     -232.81768     -1244.0775      1657.9523    
  19101500   268.96751     -346.6193      -267.80301     -346.64017      0              5260.616       45.57173       20.047001      20.857         19054.466      6252.8696      3856.1817      5672.7966      297.51192     -1323.6639      2424.2745    
  19102000   268.56048     -348.35616     -269.65914     -348.33375      0              3901.8035      45.444905      20.047001      20.857         19001.437      4150.1917      3632.0023      3923.2165      307.41954      826.71389     -199.64257    
  19102500   266.94086     -346.33705     -268.11464     -346.37101      0              4970.5476      45.30659       20.047001      20.857         18943.605      6758.5774      3293.9192      4859.1463     -648.2462       339.23811     -563.84899    
  19103000   268.9315      -347.18876     -268.38302     -347.22916      0              5687.7698      45.245168      20.047001      20.857         18917.923      8714.9901      4544.9979      3803.3214     -959.85589      57.841692      82.675798    
  19103500   275.03717     -348.81898     -268.22408     -348.84799      0              6643.6155      45.470462      20.047001      20.857         19012.123      5063.7229      9236.1237      5631          -1406.7583     -1045.082       720.82702    
  19104000   273.82091     -348.78421     -268.54572     -348.78201      0              6479.5545      45.533115      20.047001      20.857         19038.32       6647.664       8118.5741      4672.4254      990.37104     -392.41187      534.05091    
  19104500   274.34265     -346.20562     -265.81424     -346.20673      0              5735.8684      45.593631      20.047001      20.857         19063.623      6781.9278      4640.6768      5785.0007     -560.39878      196.42129      1290.6092    
  19105000   271.4438      -347.59333     -268.05141     -347.5747       0              5487.069       45.453809      20.047001      20.857         19005.16       7110.7602      3115.6718      6234.7748      2.4983589      1379.7252     -1502.3543    
  19105500   271.22605     -349.56013     -270.08202     -349.59115      0              4684.7351      45.524762      20.047001      20.857         19034.827      7176.3717      3718.1411      3159.6926     -1204.6897      1129.2527      2138.6318    
  19106000   265.51025     -346.89424     -269.09104     -346.93579      0              3975.8171      45.941532      20.047001      20.857         19209.087      2907.8983      4434.068       4585.485       1224.6076      1010.4014     -87.772436    
  19106500   269.15299     -348.25858     -269.38794     -348.28202      0              4375.0894      45.864986      20.047001      20.857         19177.082      6572.5088      4278.7251      2274.0343      786.19008     -272.65256     -457.15369    
  19107000   268.96249     -350.47019     -271.65537     -350.48392      0              6480.5352      45.644186      20.047001      20.857         19084.761      8744.0578      3881.4017      6816.1462      504.87747      1702.445      -209.61602    
  19107500   267.44843     -349.29354     -270.92239     -349.30707      0              7692.0693      45.390674      20.047001      20.857         18978.762      9003.1073      6702.1214      7370.9792     -1362.7265      183.17682      161.17707    
  19108000   269.19789     -345.60791     -266.72411     -345.65444      0              5958.0681      45.548254      20.047001      20.857         19044.65       6344.2305      6295.7012      5234.2727      333.01229      103.03787      3925.2257    
  19108500   275.89003     -348.91354     -268.06872     -348.9468       0              4685.3011      45.527389      20.047001      20.857         19035.926      3514.6502      4738.992       5802.261      -785.88211     -432.03356      766.35868    
  19109000   271.5467      -345.26656     -265.69448     -345.29858      0              7060.7382      45.590662      20.047001      20.857         19062.381      7830.5124      4914.2294      8437.4727      202.94844      1422.7867      651.76252    
  19109500   269.09086     -346.98034     -268.12791     -346.98645      0              5578.6243      45.606334      20.047001      20.857         19068.934      6716.1301      4497.3305      5522.4123      92.425914     -1465.4815      482.26792    
  19110000   268.37613     -347.02886     -268.38586     -347.04651      0              6779.0066      45.571238      20.047001      20.857         19054.26       6884.7495      7151.0812      6301.1892      189.05211      1060.0146     -311.72961    
  19110500   273.54159     -347.21886     -267.06222     -347.24997      0              6959.0387      45.653684      20.047001      20.857         19088.732      7536.9247      7053.3573      6286.8343      795.31339      714.99146     -714.07151    
  19111000   274.516       -349.91559     -269.47341     -349.90818      0              7392.8236      45.612573      20.047001      20.857         19071.543      8462.0883      7628.0488      6088.3336      463.45802     -1412.3422      2578.9668    
  19111500   266.72936     -349.80378     -271.64334     -349.81759      0              4067.1312      45.713029      20.047001      20.857         19113.545      4999.2411      3511.9144      3690.2383     -1000.8182      703.14203     -335.79633    
  19112000   266.49197     -349.51117     -271.42029     -349.49164      0              3978.7746      45.809297      20.047001      20.857         19153.797      3439.5426      4362.8929      4133.8883      349.49432     -706.16832     -704.50298    
  19112500   268.61903     -345.98862     -267.27445     -346.00491      0              4758.7425      45.583165      20.047001      20.857         19059.246      3637.1011      3505.6028      7133.5236      361.07115     -106.23453      175.61736    
  19113000   269.61916     -345.4605      -266.45325     -345.49907      0              8039.7811      45.279272      20.047001      20.857         18932.183      8530.5103      8755.5503      6833.2827     -808.20081     -2487.1755     -260.00341    
  19113500   279.15424     -349.05331     -267.25197     -349.07354      0              8033.0887      45.524116      20.047001      20.857         19034.557      7049.2635      8608.4075      8441.5952     -1783.0079     -844.1271       1048.8323    
  19114000   270.0005      -344.2024      -265.08341     -344.21006      0              5795.0614      45.565321      20.047001      20.857         19051.786      3715.7948      7179.7036      6489.6859     -765.36713      946.89259     -862.39722    
  19114500   262.15593     -347.89078     -271.07051     -347.88011      0              7520.0589      45.298915      20.047001      20.857         18940.396      5776.0629      8875.0069      7909.1067     -389.61046     -359.36738      460.22249    
  19115000   272.77669     -345.06669     -265.13419     -345.10504      0              3638.5647      45.430158      20.047001      20.857         18995.271      1838.705       5944.8898      3132.0994     -2526.641       2472.9139      230.89331    
  19115500   269.03827     -346.1949      -267.35788     -346.24273      0              6158.2515      45.644127      20.047001      20.857         19084.736      7089.3123      4086.5422      7298.9001     -465.4911       297.27226     -406.92781    
  19116000   267.99781     -347.65281     -269.12067     -347.63177      0              5972.5827      45.582734      20.047001      20.857         19059.066      3926.5953      7164.7557      6826.397      -1606.2826      927.42587      962.63393    
  19116500   272.34159     -346.78039     -266.97538     -346.79666      0              7168.7188      45.329552      20.047001      20.857         18953.206      7549.17        7650.5872      6306.3993     -585.80833     -1300.1926      2453.0366    
  19117000   267.20615     -345.783       -267.48284     -345.77099      0              5459.9225      45.330978      20.047001      20.857         18953.802      7726.5417      3275.4908      5377.7351     -329.72511      1123.732      -1696.7466    
  19117500   272.18792     -349.90831     -270.14834     -349.92569      0              5097.0372      45.781158      20.047001      20.857         19142.032      7050.1628      4419.8871      3821.0615     -1066.7177     -615.19963      890.43246    
  19118000   274.66019     -347.9402      -267.45577     -347.97808      0              5785.6412      45.913574      20.047001      20.857         19197.398      7320.9549      4331.2109      5704.7579     -642.06177     -1908.903      -646.96408    
  19118500   272.36486     -348.07609     -268.26427     -348.06466      0              3475.923       45.658204      20.047001      20.857         19090.622      4228.0551      2905.2827      3294.4312     -202.16464      1662.6669     -85.800923    
  19119000   267.30047     -347.94392     -269.61612     -347.95771      0              6177.7156      45.580747      20.047001      20.857         19058.236      7520.5715      4973.6443      6038.9309     -791.76645     -1109.3148     -622.96812    
  19119500   273.71323     -346.83779     -266.63085     -346.87038      0              6243.5994      45.714768      20.047001      20.857         19114.272      7109.2944      5515.67        6105.8336      517.87528      1241.808      -889.19309    
  19120000   266.14426     -348.10769     -270.1187      -348.09785      0              4656.556       45.775061      20.047001      20.857         19139.482      3894.4716      5596.3852      4478.8111      751.77924      205.97004      1463.7372    
  19120500   266.56791     -347.79076     -269.67763     -347.80975      0              4617.6656      45.577529      20.047001      20.857         19056.89       5858.1783      3436.8604      4557.958       516.59309      810.82614     -1684.7769    
  19121000   275.61529     -346.66803     -265.90372     -346.60665      0              4969.7139      45.517234      20.047001      20.857         19031.68       5983.818       5580.5988      3344.725      -1383.9224     -933.23485      81.508265    
  19121500   274.00091     -349.17551     -268.88427     -349.12827      0              4390.7618      45.779019      20.047001      20.857         19141.137      7233.0731      3073.6239      2865.5885     -1592.8359      2426.2918      715.50255    
  19122000   265.38826     -346.89922     -269.13177     -346.88171      0              6118.0176      45.903184      20.047001      20.857         19193.053      6636.8306      5659.679       6057.5432     -1293.467       370.41507      394.67723    
  19122500   275.55962     -348.82014     -268.07214     -348.84039      0              4970.1737      45.603445      20.047001      20.857         19067.726      5070.6367      4858.9864      4980.8978     -391.92492      1393.4868     -472.96086    
  19123000   275.06203     -347.33075     -266.72857     -347.28929      0              4680.5179      45.574233      20.047001      20.857         19055.512      4470.4258      3945.6357      5625.4922      666.76532      103.23738     -227.58694    
  19123500   270.79753     -348.00218     -268.64964     -348.0027       0              6831.5031      45.62563       20.047001      20.857         19077.002      5771.2051      8897.815       5825.4892      1634.9998     -379.91618      1294.8804    
  19124000   271.51751     -349.39481     -269.83129     -349.42892      0              3931.2679      45.716423      20.047001      20.857         19114.964      4465.8796      4175.7376      3152.1864      380.00059      576.09221     -1605.0467    
  19124500   267.82931     -351.13385     -272.6511      -351.12041      0              6797.5713      45.60098       20.047001      20.857         19066.695      6652.9126      6712.895       7026.9062     -870.36445      1836.5271     -626.83779    
  19125000   268.40975     -347.55564     -268.90279     -347.54814      0              5610.1363      45.284947      20.047001      20.857         18934.556      5298.1824      5695.6985      5836.5282      926.44888      859.78421      197.21823    
  19125500   268.93588     -349.05102     -270.244       -349.00713      0              5498.5307      45.303449      20.047001      20.857         18942.292      6875.3191      5748.787       3871.486      -1413.886       1674.8966     -1421.0456    
  19126000   268.83615     -347.67589     -268.8981      -347.70727      0              4454.0562      45.760866      20.047001      20.857         19133.547      2838.698       6439.6536      4083.817       1461.0041     -908.29022     -653.62749    
  19126500   275.74454     -347.68525     -266.88307     -347.71912      0              3952.2023      45.626473      20.047001      20.857         19077.354      4012.1194      3014.6498      4829.8376     -1147.8889     -850.09299      580.41293    
  19127000   280.19658     -347.99679     -265.89001     -348.01906      0              5380.862       45.508733      20.047001      20.857         19028.125      7511.1456      4882.9934      3748.447      -519.78396      1836.5288      688.27969    
  19127500   269.85228     -348.83954     -269.76399     -348.83022      0              4507.2392      45.734664      20.047001      20.857         19122.591      3842.9954      5406.1573      4272.5649      839.93788     -609.9929       688.78235    
  19128000   276.63527     -347.98002     -266.91683     -347.97877      0              6788.314       45.692894      20.047001      20.857         19105.127      8868.5         5374.4692      6121.9729      79.44643       347.03064      1770.4138    
WARNING: Wall time limit reached (../timer.cpp:193)
Loop time of 85812.5 on 4 procs for 3830000 steps with 2268 atoms

Performance: 1.928 ns/day, 12.447 hours/ns, 44.632 timesteps/s
978.9% CPU use with 4 MPI tasks x no OpenMP threads

MPI task timing breakdown:
Section |  min time  |  avg time  |  max time  |%varavg| %total
---------------------------------------------------------------
Pair    | 47812      | 48380      | 48928      | 179.8 | 56.38
Bond    | 0.45955    | 0.50557    | 0.56423    |   6.0 |  0.00
Neigh   | 1240.4     | 1274.5     | 1292.5     |  58.3 |  1.49
Comm    | 4696.3     | 5250       | 5853.4     | 587.4 |  6.12
Output  | 440.28     | 440.37     | 440.62     |   0.7 |  0.51
Modify  | 30341      | 30456      | 30583      |  49.1 | 35.49
Other   |            | 11.3       |            |       |  0.01

Nlocal:            567 ave         586 max         542 min
Histogram: 1 0 0 0 0 1 0 1 0 1
Nghost:         3731.5 ave        3776 max        3687 min
Histogram: 2 0 0 0 0 0 0 0 0 2
Neighs:              0 ave           0 max           0 min
Histogram: 4 0 0 0 0 0 0 0 0 0
FullNghs:       144208 ave      150867 max      137292 min
Histogram: 1 0 0 0 1 0 1 0 0 1

Total # of neighbors = 576834
Ave neighs/atom = 254.33598
Ave special neighs/atom = 0
Neighbor list builds = 383000
Dangerous builds not checked

unfix		4
unfix		3
unfix		1

write_data	data.final.${pid}
write_data	data.final.0
System init for write_data ...
Generated 0 of 1 mixed pair_coeff terms from geometric mixing rule
write_restart	restart.lmp.${pid}
write_restart	restart.lmp.0
System init for write_restart ...
Generated 0 of 1 mixed pair_coeff terms from geometric mixing rule
Total wall time: 23:50:29
