LAMMPS (23 Jun 2022)
echo both

include		in.partitions
variable        pid world 0
include		in.temp
variable	temperature equal 270.0
variable        tempDamp equal 0.100 # this is 0.1 ps
include		in.pressure
variable        pressure equal 6079.5
variable        pressureDamp equal 1.0 #this is 1ps
include		in.seed
variable        seed world 745823

units           metal
atom_style	full
read_restart	restart.lmp.${pid}
read_restart	restart.lmp.0
Reading restart file ...
  restart file = 23 Jun 2022, LAMMPS = 23 Jun 2022
  restoring atom style full from restart
  orthogonal box = (0.7205037 0 0) to (46.730195 20.047001 20.857)
  4 by 1 by 1 MPI processor grid
Summary of lammps deepmd module ...
  >>> Info of deepmd-kit:
  installed to:       /u/sigbjobo/software/DEEPMD_FROM_SOURCE/deepmd-kit/install
  source:             v2.1.3
  source branch:       master
  source commit:      5a32c49
  source commit at:   2022-07-01 09:52:58 +0800
  surpport model ver.:1.1 
  build float prec:   double
  build with tf inc:  /u/sigbjobo/software/DEEPMD_FROM_SOURCE/tensorflow/install/include;/u/sigbjobo/software/DEEPMD_FROM_SOURCE/tensorflow/install/include
  build with tf lib:  /u/sigbjobo/software/DEEPMD_FROM_SOURCE/tensorflow/install/lib/libtensorflow_cc.so;/u/sigbjobo/software/DEEPMD_FROM_SOURCE/tensorflow/install/lib/libtensorflow_framework.so
  set tf intra_op_parallelism_threads: 0
  set tf inter_op_parallelism_threads: 0
  >>> Info of lammps module:
  use deepmd-kit at:  /u/sigbjobo/software/DEEPMD_FROM_SOURCE/deepmd-kit/install
  source:             v2.1.3
  source branch:      master
  source commit:      5a32c49
  source commit at:   2022-07-01 09:52:58 +0800
  build float prec:   double
  build with tf inc:  /u/sigbjobo/software/DEEPMD_FROM_SOURCE/tensorflow/install/include;/u/sigbjobo/software/DEEPMD_FROM_SOURCE/tensorflow/install/include
  build with tf lib:  /u/sigbjobo/software/DEEPMD_FROM_SOURCE/tensorflow/install/lib/libtensorflow_cc.so;/u/sigbjobo/software/DEEPMD_FROM_SOURCE/tensorflow/install/lib/libtensorflow_framework.so
  restoring pair style deepmd from restart
  2268 atoms
Finding 1-2 1-3 1-4 neighbors ...
  special bond factors lj:    0        0        0       
  special bond factors coul:  0        0        0       
     0 = max # of 1-2 neighbors
     0 = max # of 1-3 neighbors
     0 = max # of 1-4 neighbors
     1 = max # of special neighbors
  special bonds CPU = 0.000 seconds
  read_restart CPU = 0.008 seconds
include 	in.setup
variable	out_freq equal 500
variable	out_freq2 equal 1000
variable	out_freq3 equal 5000

timestep        0.0005

neigh_modify    delay 7 every 1

include         in.deepmd
# This is deepMD model

# create groups ###
#group ox type 2
#group hy type 1

mass 2 15.999
mass 1 1.008

pair_style      deepmd ../graph.pb
pair_coeff      * *

bond_style      none
angle_style     none
dihedral_style  none
improper_style  none
neigh_modify exclude none


neighbor        2.0 bin
neigh_modify    every 10 delay 0 check no

thermo          ${out_freq}
thermo          500
thermo_style 	custom step temp pe etotal epair emol press lx ly lz vol pxx pyy pzz pxy pxz pyz
#thermo_modify	flush yes
restart 	${out_freq} restart.lmp.${pid} restart2.lmp.${pid}
restart 	500 restart.lmp.${pid} restart2.lmp.${pid}
restart 	500 restart.lmp.0 restart2.lmp.${pid}
restart 	500 restart.lmp.0 restart2.lmp.0

include		in.dump
dump            myDump all atom ${out_freq3} dump.water.${pid}
dump            myDump all atom 5000 dump.water.${pid}
dump            myDump all atom 5000 dump.water.0
dump            myDump2 all dcd ${out_freq2} dump.dcd.${pid}
dump            myDump2 all dcd 1000 dump.dcd.${pid}
dump            myDump2 all dcd 1000 dump.dcd.0
dump_modify     myDump append yes
dump_modify     myDump2 append yes


timer           timeout 23:50:00 every 1000
New timer settings: style=normal  mode=nosync  timeout=23:50:00

fix             1 all plumed plumedfile plumed.dat outfile plumed.out
fix             3 all nph x ${pressure} ${pressure} ${pressureDamp}
fix             3 all nph x 6079.5 ${pressure} ${pressureDamp}
fix             3 all nph x 6079.5 6079.5 ${pressureDamp}
fix             3 all nph x 6079.5 6079.5 1
Resetting global fix info from restart file:
  fix style: nph, fix ID: 3
fix             4 all temp/csvr ${temperature} ${temperature} ${tempDamp} ${seed}
fix             4 all temp/csvr 270 ${temperature} ${tempDamp} ${seed}
fix             4 all temp/csvr 270 270 ${tempDamp} ${seed}
fix             4 all temp/csvr 270 270 0.1 ${seed}
fix             4 all temp/csvr 270 270 0.1 745823
Resetting global fix info from restart file:
  fix style: temp/csvr, fix ID: 4

run             40000000 upto

CITE-CITE-CITE-CITE-CITE-CITE-CITE-CITE-CITE-CITE-CITE-CITE-CITE

Your simulation uses code contributions which should be cited:

- USER-DEEPMD package:

@article{Wang_ComputPhysCommun_2018_v228_p178,
  author = {Wang, Han and Zhang, Linfeng and Han, Jiequn and E, Weinan},
  doi = {10.1016/j.cpc.2018.03.016},
  url = {https://doi.org/10.1016/j.cpc.2018.03.016},
  year = 2018,
  month = {jul},
  publisher = {Elsevier {BV}},
  volume = 228,
  journal = {Comput. Phys. Commun.},
  title = {{DeePMD-kit: A deep learning package for many-body potential energy representation and molecular dynamics}},
  pages = {178--184}
}

CITE-CITE-CITE-CITE-CITE-CITE-CITE-CITE-CITE-CITE-CITE-CITE-CITE

Generated 0 of 1 mixed pair_coeff terms from geometric mixing rule
All restart file global fix info was re-assigned
Neighbor list info ...
  update every 10 steps, delay 0 steps, check no
  max neighbors/atom: 2000, page size: 100000
  master list distance cutoff = 8
  ghost atom cutoff = 8
  binsize = 4, bins = 12 6 6
  1 neighbor lists, perpetual/occasional/extra = 1 0 0
  (1) pair deepmd, perpetual
      attributes: full, newton on
      pair build: full/bin
      stencil: full/bin/3d
      bin: standard
Per MPI rank memory allocation (min/avg/max) = 6.184 | 6.188 | 6.193 Mbytes
   Step          Temp          PotEng         TotEng         E_pair         E_mol          Press            Lx             Ly             Lz           Volume          Pxx            Pyy            Pzz            Pxy            Pxz            Pyz      
  29287000   271.16277     -349.97737     -270.5178      -349.97737      0              4943.4959      46.009692      20.047001      20.857         19237.586      5751.7636      4112.2883      4966.4357     -256.30174     -1774.597       960.70304    
  29287500   276.92232     -347.90552     -266.75821     -347.81526      0              3385.268       46.392704      20.047001      20.857         19397.731      5249.1468      1276.2849      3630.3722      127.8603      -331.57734     -196.99243    
  29288000   277.79663     -350.22333     -268.81982     -350.1083       0              5411.7333      46.139978      20.047001      20.857         19292.061      5591.0771      5176.1691      5467.9538     -26.479485     -78.526551     -300.80895    
  29288500   270.17828     -349.06152     -269.89044     -348.95631      0              6321.2873      45.743787      20.047001      20.857         19126.406      7115.5485      5565.8995      6282.414       760.14627      1038.9298     -304.20931    
  29289000   267.23048     -350.39936     -272.09207     -350.26976      0              5704.9242      45.788705      20.047001      20.857         19145.187      7065.6419      5510.5492      4538.5816      798.88175     -771.52732     -1012.6415    
  29289500   272.51021     -349.16321     -269.30879     -349.05761      0              4516.2618      45.988107      20.047001      20.857         19228.561      7107.3828      1829.602       4611.8004      948.70728      267.33034      1070.966     
  29290000   268.1355      -343.90945     -265.33697     -343.87503      0              4474.4287      45.949277      20.047001      20.857         19212.325      4941.351       3386.1         5095.8352      1826.668      -672.04893     -235.45489    
  29290500   273.77193     -349.12348     -268.89934     -349.01589      0              5949.7761      45.677424      20.047001      20.857         19098.658      4166.1695      7351.5696      6331.589       1360.7995      490.18596      877.18039    
  29291000   267.17121     -349.4902      -271.20029     -349.36178      0              5663.9292      45.838626      20.047001      20.857         19166.06       8333.1943      4317.2884      4341.3049     -1413.0003     -510.14453     -632.53769    
  29291500   266.49358     -349.29968     -271.20833     -349.18688      0              5527.1208      45.865872      20.047001      20.857         19177.452      4549.4409      6382.3125      5649.6088     -383.00195     -1525.2054      89.817038    
  29292000   271.38384     -349.2228      -269.69845     -349.09357      0              7170.8913      45.537814      20.047001      20.857         19040.285      7381.5265      5964.9961      8166.1513     -587.10247      1322.3912      92.854329    
  29292500   269.00198     -345.76261     -266.93622     -345.65295      0              6125.6359      45.633341      20.047001      20.857         19080.226      8223.3155      4443.1969      5710.3954      1080.6676      288.41778     -173.35517    
  29293000   269.40809     -349.63082     -270.68543     -349.5188       0              3099.8023      45.93539       20.047001      20.857         19206.519      1873.6354      4153.5151      3272.2565      2042.9951      1688.7394     -3097.4569    
  29293500   271.30947     -346.27118     -266.76862     -346.15633      0              6718.5961      45.758429      20.047001      20.857         19132.528      8017.3811      6795.7459      5342.6614     -1332.0322     -810.07443      1965.828     
  29294000   270.12864     -347.53227     -268.37573     -347.46371      0              6044.476       45.60201       20.047001      20.857         19067.126      6704.9411      3907.6078      7520.879      -2278.0462      1497.0078     -2378.6492    
  29294500   266.08727     -345.08489     -267.11261     -344.96659      0              6191.2183      45.819752      20.047001      20.857         19158.169      8523.4517      5172.7564      4877.4469      1190.349       395.91633     -33.426788    
  29295000   271.04256     -348.70782     -269.28347     -348.58127      0              4969.7028      45.879042      20.047001      20.857         19182.959      6077.3586      4641.6248      4190.125       627.36939      1805.1703      57.682756    
  29295500   270.35361     -347.07036     -267.8479      -346.96822      0              4265.4281      45.794393      20.047001      20.857         19147.565      3906.9132      6021.6985      2867.6726      331.65145     -231.33985      79.956785    
  29296000   273.87823     -346.9978      -266.74251     -346.88898      0              8031.3715      45.714872      20.047001      20.857         19114.316      9173.0857      7374.9566      7546.0722     -632.15995      304.74186     -488.57229    
  29296500   265.69464     -348.95107     -271.09384     -348.82103      0              4923.3754      45.546162      20.047001      20.857         19043.775      4890.6887      6926.8144      2952.623      -135.94261     -294.53763     -1024.3947    
  29297000   261.26495     -347.93628     -271.3771      -347.80529      0              5677.6402      45.677704      20.047001      20.857         19098.775      6738.924       4419.7996      5874.1971     -759.39137      998.50584     -946.90505    
  29297500   273.42371     -348.17134     -268.04924     -348.0521       0              6367.5993      45.78909       20.047001      20.857         19145.348      7269.1058      6645.838       5187.8541      169.02384     -325.44866      897.03392    
  29298000   272.58957     -347.29718     -267.4195      -347.1871       0              4289.95        45.880021      20.047001      20.857         19183.368      3909.1646      3173.2223      5787.463      -1425.9476      1033.0865      826.90027    
  29298500   267.85533     -348.90328     -270.4129      -348.77348      0              6282.7505      45.993075      20.047001      20.857         19230.638      9971.5977      4378.4015      4498.2522      1234.5666     -1528.1997      727.44812    
  29299000   256.5238      -349.47135     -274.30148     -349.35847      0              5639.1109      45.904844      20.047001      20.857         19193.747      4788.7161      6306.826       5821.7906      1020.3841     -1418.4598      417.54018    
  29299500   264.9222      -348.39654     -270.76566     -348.3269       0              4222.8094      45.766684      20.047001      20.857         19135.98       4035.0609      5325.4401      3307.9271     -935.28394      211.27805      388.52643    
  29300000   270.00362     -348.77246     -269.65256     -348.69037      0              5299.9473      45.772275      20.047001      20.857         19138.317      5199.7674      2734.3643      7965.7102      140.06762      293.45949      1331.0997    
  29300500   263.4585      -350.08173     -272.87976     -349.95619      0              5417.941       45.921896      20.047001      20.857         19200.877      6973.0537      4743.4389      4537.3305      8.7262695     -325.59428      1633.5934    
  29301000   264.12542     -346.55776     -269.16036     -346.57132      0              4242.8405      45.977731      20.047001      20.857         19224.223      5350.3866      3913.8626      3464.2725      450.66532      256.66098     -557.73833    
  29301500   272.85912     -345.46239     -265.50573     -345.35334      0              6736.0378      45.774496      20.047001      20.857         19139.246      5666.1077      7851.226       6690.7796      751.3695       57.671994      34.964875    
  29302000   270.63374     -348.0628      -268.75825     -347.98061      0              5314.1262      45.906928      20.047001      20.857         19194.619      6242.9701      3476.7081      6222.7006      264.51265      693.07397     -823.10976    
  29302500   261.66883     -347.52024     -270.8427      -347.47727      0              3192.0539      46.079792      20.047001      20.857         19266.896      2407.5782      3110.496       4058.0874     -197.9442       1542.204       685.31385    
  29303000   275.92423     -348.12819     -267.27335     -348.06307      0              5320.3296      45.986503      20.047001      20.857         19227.89       5654.7818      7551.1848      2755.0221     -532.88589     -1133.5081      683.55305    
  29303500   274.46725     -347.45218     -267.02428     -347.32238      0              5154.3186      45.733681      20.047001      20.857         19122.181      6878.9345      4664.8525      3919.1687      328.87825      153.6267       542.58789    
  29304000   264.38145     -348.38218     -270.90976     -348.25219      0              4412.4788      45.637675      20.047001      20.857         19082.038      5469.4881      3817.3991      3950.5493      1003.3213      52.931975      879.31493    
  29304500   270.13383     -346.42621     -267.26815     -346.35316      0              5693.5689      45.690287      20.047001      20.857         19104.036      6267.4095      4143.4367      6669.8606      321.43506      9.2217789      339.48465    
  29305000   271.46271     -349.24307     -269.6956      -349.11372      0              3448.6357      45.994012      20.047001      20.857         19231.03       3962.966       3558.2854      2824.6558     -692.65532     -347.45099      2200.371     
  29305500   257.4391      -348.55712     -273.11903     -348.43556      0              3657.7545      46.09808       20.047001      20.857         19274.543      2478.3181      4733.1551      3761.7902     -177.03199     -434.75802      782.63261    
  29306000   271.59612     -348.7976      -269.21104     -348.69392      0              6883.3753      45.77835       20.047001      20.857         19140.857      7664.858       7130.0752      5855.1928      23.56407       843.6469       1945.5936    
  29306500   267.93447     -349.05912     -270.54555     -348.96795      0              4610.4106      45.901192      20.047001      20.857         19192.22       5481.3884      5036.7547      3313.0887     -219.24619     -351.88042      500.0276     
  29307000   274.6206      -350.25028     -269.77745     -350.16904      0              4546.1011      46.1485        20.047001      20.857         19295.624      4215.1665      5276.6492      4146.4878     -1763.1091      312.02239      265.97952    
  29307500   271.64261     -347.01736     -267.41718     -346.9819       0              4688.5958      45.876551      20.047001      20.857         19181.917      4109.9003      5273.7384      4682.1487      52.338308      1509.9781      73.529155    
  29308000   271.72395     -349.11328     -269.48926     -349.04938      0              5376.0332      45.497383      20.047001      20.857         19023.379      8986.9672      2888.0742      4253.0581     -867.27384      1041.5106     -856.04954    
  29308500   262.94987     -348.41484     -271.36191     -348.30336      0              7233.7495      45.619854      20.047001      20.857         19074.587      8429.4103      4978.058       8293.7803     -152.87362      1839.0035     -1520.4785    
  29309000   268.90908     -350.01802     -271.21885     -349.92125      0              5078.1438      46.042311      20.047001      20.857         19251.225      6280.8401      4515.9869      4437.6043      570.90251      1421.2892     -912.95037    
  29309500   266.47455     -351.011       -272.92523     -350.91105      0              6027.642       45.938518      20.047001      20.857         19207.827      7438.7822      4128.9764      6515.1673     -674.20606      1044.4082     -173.28198    
  29310000   264.25761     -351.94531     -274.50917     -351.8668       0              4947.1479      45.74248       20.047001      20.857         19125.86       6036.6999      3447.6488      5357.0949      211.74926      901.20253      356.74347    
  29310500   274.98277     -349.4949      -268.91595     -349.42724      0              4659.191       45.642292      20.047001      20.857         19083.969      6040.6833      3935.7394      4001.1502     -479.4848      -547.93492     -1247.0352    
  29311000   273.6807      -352.29024     -272.09283     -352.18794      0              2301.7975      45.991187      20.047001      20.857         19229.849      4447.905      -2375.9894      4833.4769     -1111.334      -23.655821     -535.66013    
  29311500   274.08661     -350.97636     -270.66001     -350.8714       0              2840.753       46.238917      20.047001      20.857         19333.43       3678.7305      2993.5026      1850.0259      430.14125      402.78604      986.57942    
  29312000   268.18719     -347.10711     -268.51948     -347.04422      0              4169.3943      45.979286      20.047001      20.857         19224.873      5341.4527      4546.2272      2620.5031      813.32229      2958.6974     -181.63269    
  29312500   271.81388     -348.13955     -268.48918     -348.05345      0              5858.1998      45.774133      20.047001      20.857         19139.094      5845.038       7049.5039      4680.0575     -97.386091      83.268485     -134.70974    
  29313000   264.92911     -349.90726     -272.27436     -349.79704      0              2986.2749      45.880917      20.047001      20.857         19183.743      3679.1184      3388.5411      1891.1652      379.35791      310.24871     -33.036345    
  29313500   277.44235     -351.98059     -270.6809      -351.902        0              4671.2384      45.864721      20.047001      20.857         19176.971      7254.4096      4012.9081      2746.3975     -1026.2796     -356.59055     -2276.78      
  29314000   267.63876     -347.66317     -269.23625     -347.59592      0              4342.1452      45.616902      20.047001      20.857         19073.353      5256.8097      5123.4845      2646.1414      1303.1267      776.90768      520.07617    
  29314500   270.09998     -347.31308     -268.16494     -347.22122      0              5355.8302      45.643715      20.047001      20.857         19084.564      7009.0717      4302.4835      4755.9355      72.442715     -813.39512     -1258.9936    
  29315000   266.24864     -349.59002     -271.57045     -349.48682      0              7608.2536      45.851814      20.047001      20.857         19171.574      8154.0035      9309.7653      5360.9921      148.7491       608.58964     -1013.9313    
  29315500   266.92229     -348.42176     -270.20478     -348.32268      0              3896.6306      46.215962      20.047001      20.857         19323.832      4505.0384      1700.6688      5484.1846      53.125153     -767.77797     -221.83626    
  29316000   264.20008     -351.30846     -273.88919     -351.20088      0              4980.5248      45.884789      20.047001      20.857         19185.362      7037.0793      4559.7604      3344.7348     -616.04989      725.98769     -1895.3494    
  29316500   273.14604     -351.94968     -271.90895     -351.82361      0              5768.6423      45.83236       20.047001      20.857         19163.44       7730.2326      4681.9029      4893.7914     -214.24605     -521.82026      370.61635    
  29317000   265.63407     -350.67973     -272.84025     -350.58512      0              2678.8466      46.195071      20.047001      20.857         19315.097      4479.0339      169.60931      3387.8965      952.64494     -1867.7278      1777.2308    
  29317500   267.17931     -348.91597     -270.62369     -348.81253      0              4443.6792      46.272561      20.047001      20.857         19347.497      3513.7256      3982.4714      5834.8407     -1061.8978     -1103.663      -197.03654    
  29318000   272.22375     -350.52304     -270.75256     -350.39544      0              5360.7523      45.924514      20.047001      20.857         19201.972      5533.7977      4949.1362      5599.323       563.01767     -2171.4417      9.1987658    
  29318500   273.44601     -348.74935     -268.62071     -348.67957      0              5713.9706      45.707985      20.047001      20.857         19111.436      6828.6461      6309.2492      4004.0165     -931.48252     -140.70685     -1030.9636    
  29319000   275.92308     -349.31667     -268.46217     -349.20739      0              6075.9774      46.06585       20.047001      20.857         19261.067      4123.4892      7336.3708      6768.0722      71.865425      884.81693      172.51344    
  29319500   267.97498     -350.30754     -271.7821      -350.18399      0              5721.4537      46.251845      20.047001      20.857         19338.835      7133.7805      4430.7578      5599.8227     -943.76833      979.01471     -553.80246    
  29320000   267.88709     -349.14476     -270.64506     -349.05065      0              5461.2205      46.057484      20.047001      20.857         19257.569      5987.4142      3764.8974      6631.3499      762.56908      567.22726     -1286.0036    
  29320500   269.6425      -347.44007     -268.42599     -347.39269      0              4227.5568      45.877426      20.047001      20.857         19182.283      6187.6414      2754.5162      3740.5128      1018.7689      928.72038      562.80635    
  29321000   273.5975      -349.1391      -268.96608     -349.11471      0              5710.3391      46.128727      20.047001      20.857         19287.357      6391.1022      5442.6342      5297.2809      1478.5631     -43.546843     -659.10018    
  29321500   275.31928     -348.76065     -268.08308     -348.69763      0              5399.7228      46.113206      20.047001      20.857         19280.867      6170.7239      5797.5964      4230.8481     -545.26398      432.09963      148.73036    
  29322000   274.64588     -349.62784     -269.1476      -349.53772      0              5704.0124      45.996684      20.047001      20.857         19232.147      4893.6421      6438.0184      5780.3765      1968.531       467.08513      76.289561    
  29322500   260.0189      -348.3016      -272.10754     -348.19123      0              4540.4769      45.998111      20.047001      20.857         19232.744      5232.5854      5544.5379      2844.3073      313.65147     -1259.8059     -107.95188    
  29323000   267.6808      -349.86901     -271.42977     -349.79775      0              3878.3906      46.012347      20.047001      20.857         19238.697      3836.6836      4573.8046      3224.6837     -1177.6559     -17.634942      972.2957     
  29323500   276.06266     -348.81144     -267.91604     -348.84601      0              4579.2056      46.083437      20.047001      20.857         19268.421      5242.3758      3846.6225      4648.6183      129.11457     -2697.4503     -626.82255    
  29324000   275.11791     -345.04533     -264.42677     -345.00814      0              4291.1749      46.037866      20.047001      20.857         19249.367      7221.7111      2066.7184      3585.0951     -898.9379      -1371.1639     -1549.8436    
  29324500   265.61263     -343.63867     -265.80547     -343.60552      0              6103.4512      46.139534      20.047001      20.857         19291.876      8626.8621      3829.7685      5853.723       285.72366     -1565.7981     -1333.4971    
  29325000   275.21984     -348.13696     -267.48853     -348.09115      0              6158.4817      46.247706      20.047001      20.857         19337.105      7534.5182      5279.1515      5661.7755      834.69046     -406.43945     -359.71954    
  29325500   272.65416     -345.51157     -265.61497     -345.52324      0              3865.1867      46.224848      20.047001      20.857         19327.547      7697.4934      2325.7154      1572.3513      888.05419     -854.90051      1237.5416    
  29326000   270.25524     -347.86248     -268.66885     -347.85058      0              5813.6336      46.025254      20.047001      20.857         19244.093      3851.8077      5565.351       8023.742      -2234.2085      424.11761     -1535.736     
  29326500   271.2082      -348.11202     -268.63914     -348.06734      0              6591.1153      45.856777      20.047001      20.857         19173.649      8573.0713      7649.6734      3550.6012      1106.0832     -241.04656     -2851.5499    
  29327000   277.91843     -349.72835     -268.28914     -349.70764      0              4074.3614      45.937956      20.047001      20.857         19207.592      7859.288       1108.944       3254.8523     -647.92146      599.47885      1567.0844    
  29327500   269.18419     -348.57353     -269.69375     -348.48514      0              5996.0949      46.031998      20.047001      20.857         19246.913      7465.8226      4734.0634      5788.3985      2415.542      -53.036632     -318.38528    
  29328000   264.5839      -347.66901     -270.13726     -347.58465      0              2682.7588      46.016839      20.047001      20.857         19240.574      2438.5316      4312.2728      1297.472       312.92434     -1294.5709     -67.968711    
  29328500   275.77505     -348.51651     -267.70539     -348.46757      0              4676.9109      46.027329      20.047001      20.857         19244.961      6203.1021      3369.295       4458.3355      520.77126     -163.22596      9.0843811    
  29329000   267.88414     -349.24217     -270.74334     -349.17401      0              5507.811       45.873696      20.047001      20.857         19180.723      5529.6366      3886.2777      7107.5188     -110.16876      1452.3466     -1014.9819    
  29329500   260.51533     -347.20792     -270.8684      -347.11975      0              6072.6474      45.626546      20.047001      20.857         19077.385      9499.3966      5750.894       2967.6516      935.54152     -470.54768      1955.5445    
  29330000   263.98613     -346.52786     -269.17127     -346.43598      0              6393.647       45.626298      20.047001      20.857         19077.282      7751.2379      4914.8172      6514.886       201.94853     -1207.0695      1002.0776    
  29330500   264.90328     -351.12604     -273.5007      -351.00187      0              5688.271       46.012949      20.047001      20.857         19238.948      6006.6012      7037.8813      4020.3305      194.47561      681.99876      1172.2457    
  29331000   270.59893     -346.86226     -267.56791     -346.75981      0              5044.9557      46.006745      20.047001      20.857         19236.354      5466.2474      4881.6589      4786.9609     -635.55011      64.865654      2358.3122    
  29331500   275.00844     -349.7358      -269.14931     -349.62859      0              8112.5847      45.669867      20.047001      20.857         19095.498      10232.083      6744.8905      7360.7809      836.3692      -1616.1555      413.17226    
  29332000   272.63478     -350.64088     -270.74996     -350.56108      0              4736.4821      45.958576      20.047001      20.857         19216.213      5387.2727      4228.2702      4593.9034     -369.48296     -240.86889     -470.60096    
  29332500   263.75038     -349.17308     -271.88558     -349.07817      0              4107.5369      46.259218      20.047001      20.857         19341.918      5435.6876      2629.4676      4257.4556     -895.96625      615.71988      1.5688617    
  29333000   266.55319     -351.6356      -273.52679     -351.54921      0              3073.5167      45.956266      20.047001      20.857         19215.248      3236.3435      4674.1639      1310.0427      551.77937     -589.59238      302.67735    
  29333500   266.45576     -347.55409     -269.47383     -347.48246      0              3538.9524      45.717131      20.047001      20.857         19115.26       3961.2137      4294.5453      2361.0982      376.45556     -1956.1145      1015.7946    
  29334000   271.99696     -348.8147      -269.11068     -348.71961      0              6479.3271      45.849558      20.047001      20.857         19170.631      5825.7173      6786.4141      6825.85        1248.6726     -1067.1091      1763.2896    
  29334500   271.88723     -347.26412     -267.59225     -347.21694      0              5107.853       46.037807      20.047001      20.857         19249.342      2357.6257      5621.6742      7344.2589      1578.1869     -105.1684      -682.36347    
  29335000   268.44034     -348.71596     -270.05415     -348.65535      0              6111.4702      45.854085      20.047001      20.857         19172.524      7416.4223      4865.3414      6052.6469     -762.91926      543.3745       653.35023    
  29335500   267.78663     -349.55826     -271.08801     -349.52507      0              5700.5599      45.787587      20.047001      20.857         19144.72       6498.9557      6893.0981      3709.626      -16.526232      1062.337      -678.12649    
  29336000   266.21058     -347.80401     -269.79559     -347.80296      0              5561.0288      45.963861      20.047001      20.857         19218.423      7140.8536      4207.0731      5335.1596      97.075641      443.88621      971.66953    
  29336500   277.54164     -347.36807     -266.03928     -347.39786      0              4758.5758      45.943437      20.047001      20.857         19209.884      6793.5916      4381.8369      3100.2988      797.82695     -1542.7869     -292.87959    
  29337000   274.00162     -347.40406     -267.11262     -347.3384       0              5196.739       45.762176      20.047001      20.857         19134.095      5473.8981      4173.6662      5942.6526      514.47556      1295.769       260.45478    
  29337500   265.9359      -349.96894     -272.04101     -349.91229      0              6781.0733      45.829708      20.047001      20.857         19162.331      7846.1883      7665.5657      4831.4659     -2148.3665      329.94118      1934.8709    
  29338000   280.82147     -347.89322     -265.60333     -347.82237      0              4294.0358      46.083997      20.047001      20.857         19268.655      4853.5404      5169.7125      2858.8544     -1101.9125      769.8273       1317.4357    
  29338500   285.70229     -346.15506     -262.43493     -346.09012      0              4828.2768      46.032411      20.047001      20.857         19247.086      3468.9598      6366.7942      4649.0765      867.2363       1154.3875     -449.03922    
  29339000   270.40877     -344.83399     -265.59536     -344.82033      0              5622.142       45.751446      20.047001      20.857         19129.608      6089.2006      4510.4885      6266.7369     -77.967607     -335.26351      358.98484    
  29339500   277.11555     -344.85702     -263.65309     -344.78962      0              5456.9916      45.872648      20.047001      20.857         19180.285      5662.1285      6142.6927      4566.1536      1668.1335     -31.448988      751.51253    
  29340000   271.67437     -346.30738     -266.69789     -346.30553      0              2466.0664      46.24264       20.047001      20.857         19334.986      3201.9872      1316.9748      2879.2373      793.47386      143.8248      -2309.0672    
  29340500   272.23091     -346.6398      -266.86723     -346.62815      0              4406.2237      46.078432      20.047001      20.857         19266.328      7487.2838      2888.4899      2842.8973     -316.99757     -929.75353      266.05175    
  29341000   268.28775     -347.35296     -268.73586     -347.26044      0              3931.1559      46.011714      20.047001      20.857         19238.432      3619.1266      3264.2408      4910.1004     -850.92739     -1243.2104     -638.50941    
  29341500   263.03859     -348.73551     -271.65659     -348.64726      0              6622.0004      45.856999      20.047001      20.857         19173.742      6672.9576      6435.381       6757.6626     -324.92722     -935.55174     -989.31253    
  29342000   266.24502     -349.41056     -271.39205     -349.30506      0              7463.5799      45.682914      20.047001      20.857         19100.954      7887.6065      6695.3135      7807.8198      17.39835      -848.96455      1841.1011    
  29342500   271.43136     -345.71554     -266.17726     -345.63434      0              4734.0674      45.880641      20.047001      20.857         19183.627      6949.9197      2496.6438      4755.6388     -185.06973      710.01171      655.69379    
  29343000   263.50218     -348.39773     -271.18296     -348.33748      0              3695.799       46.142612      20.047001      20.857         19293.163      4363.275       3739.6011      2984.5208      702.11118      192.69887     -315.53066    
  29343500   268.15916     -347.90368     -269.32427     -347.86801      0              5184.7238      45.749844      20.047001      20.857         19128.939      6624.298       3430.1574      5499.716      -16.366398     -814.6752      -492.46552    
  29344000   269.70021     -350.57987     -271.54888     -350.53755      0              4855.3872      45.443674      20.047001      20.857         19000.923      6186.8607      3788.2344      4591.0664      174.20972     -1729.7594     -418.118      
  29344500   271.01531     -348.44036     -269.024       -348.35851      0              5133.64        45.729129      20.047001      20.857         19120.277      5896.9594      5205.4035      4298.5571      1208.0743      472.24382      210.92399    
  29345000   267.13721     -347.15535     -268.8754      -347.11204      0              3740.4403      45.971909      20.047001      20.857         19221.788      3026.1901      4557.097       3638.034      -613.81202      594.14058      1313.9483    
  29345500   277.32248     -348.84836     -267.5838      -348.81338      0              5888.0402      45.887281      20.047001      20.857         19186.404      7240.7893      3479.6302      6943.7011     -456.57319     -1166.2212      1111.5435    
  29346000   267.72146     -345.22458     -266.77343     -345.13683      0              4031.0179      45.795637      20.047001      20.857         19148.085      5858.5147      4377.1351      1857.4037      553.21493      15.594131     -86.329299    
  29346500   271.20845     -348.52596     -269.053       -348.48668      0              5495.8213      45.76653       20.047001      20.857         19135.915      7557.3724      4657.6831      4272.4083     -1978.1396     -1308.4145     -2027.07      
  29347000   277.02664     -348.51935     -267.34147     -348.42948      0              5463.2522      45.708423      20.047001      20.857         19111.62       5391.3028      6048.1963      4950.2575      469.96668      257.73603      1486.5877    
  29347500   264.04915     -348.00149     -270.62645     -347.90241      0              2491.4226      45.693166      20.047001      20.857         19105.24       2879.8523      1932.7516      2661.664      -391.88619     -96.855151     -1936.2775    
  29348000   272.04531     -345.71698     -265.99879     -345.59399      0              5767.3446      45.808906      20.047001      20.857         19153.633      6642.4185      1984.3967      8675.2187     -160.88589      432.22655      1187.745     
  29348500   262.41208     -347.36562     -270.47028     -347.31874      0              5987.6416      45.888114      20.047001      20.857         19186.752      6396.3927      8448.6224      3117.9098      357.57813     -368.95798      377.84696    
  29349000   274.40711     -345.64068     -265.23041     -345.54179      0              6821.0654      45.712825      20.047001      20.857         19113.46       7400.0577      4991.7808      8071.3578     -646.05873      1507.6057     -205.42046    
  29349500   266.85494     -348.02497     -269.82774     -347.92668      0              4755.9538      45.615644      20.047001      20.857         19072.827      4861.5362      4278.127       5128.1983      147.73478      1632.7928      784.44562    
  29350000   264.02942     -345.97251     -268.60324     -345.86643      0              5551.3165      45.755906      20.047001      20.857         19131.473      5794.1195      6270.4584      4589.3716     -1774.3896     -322.10398     -224.97178    
  29350500   275.23507     -349.83032     -269.17743     -349.72829      0              5258.5666      45.673879      20.047001      20.857         19097.176      6323.8373      4782.6618      4669.2007      1600.1559     -1591.4008      2408.7661    
  29351000   262.779       -348.69295     -271.69009     -348.58705      0              5611.4305      45.659591      20.047001      20.857         19091.202      5213.3833      6177.1962      5443.712      -241.74354      2438.7244      591.35343    
  29351500   266.92499     -348.55177     -270.33401     -348.42445      0              5802.5555      45.700925      20.047001      20.857         19108.484      9424.4327      3460.1033      4523.1306     -194.3176      -236.53234     -2645.6678    
  29352000   266.36256     -347.54663     -269.49367     -347.45828      0              6945.9         45.462417      20.047001      20.857         19008.759      8021.8559      4975.1608      7840.6834      1095.1414     -1717.038      -642.59151    
  29352500   271.18851     -349.38433     -269.91722     -349.25399      0              9370.8504      45.237273      20.047001      20.857         18914.622      11539.711      8426.6206      8146.2197      965.28601      307.69165     -222.56374    
  29353000   259.66878     -348.34508     -272.25362     -348.21388      0              4144.4579      45.860467      20.047001      20.857         19175.192      6522.7879      3473.583       2437.0029     -160.6452       123.64275      600.28061    
  29353500   265.80766     -349.40124     -271.51089     -349.30104      0              3278.2889      46.038933      20.047001      20.857         19249.813      5441.3396      930.13663      3463.3905     -1699.6852      536.58342      2.2037649    
  29354000   266.94238     -347.61581     -269.39295     -347.48548      0              4672.7313      45.551516      20.047001      20.857         19046.013      7974.7698      3118.4922      2924.932       1000.6641      386.15972     -2022.844     
  29354500   262.40127     -346.46527     -269.57311     -346.33567      0              7015.4871      45.415145      20.047001      20.857         18988.994      8245.8395      5722.2343      7078.3876      288.48467     -810.28107     -565.99904    
  29355000   270.82963     -347.90606     -268.54411     -347.78239      0              4483.3846      45.649843      20.047001      20.857         19087.126      7745.3246      2913.9004      2790.9288      766.58879     -1957.8825     -631.78503    
  29355500   272.7152      -346.55756     -266.64308     -346.45256      0              6602.9153      45.724746      20.047001      20.857         19118.444      7156.3421      5406.5929      7245.8109      40.526069     -1415.9386     -819.50697    
  29356000   274.88738     -348.40035     -267.84935     -348.27296      0              6528.4112      45.496739      20.047001      20.857         19023.11       4783.8474      8752.095       6049.2912     -1034.3127     -317.01998      1003.2942    
  29356500   271.50321     -348.24877     -268.68944     -348.11566      0              6388.7062      45.410908      20.047001      20.857         18987.222      7796.507       4107.6114      7262.0003     -385.24127     -1454.066       67.159659    
  29357000   269.1729      -347.59976     -268.72328     -347.46946      0              5449.6657      45.560909      20.047001      20.857         19049.941      6427.906       4903.5485      5017.5425     -898.98473     -331.37843     -1353.1478    
  29357500   271.40775     -345.74378     -266.21242     -345.61383      0              4962.1647      45.783962      20.047001      20.857         19143.204      4415.8171      5636.1739      4834.5031      1928.0012      412.70341      592.26533    
  29358000   275.04174     -344.98907     -264.39283     -344.90984      0              5012.3148      45.829589      20.047001      20.857         19162.281      6591.1407      4308.028       4137.7758      1145.3258     -620.95777     -2101.6486    
  29358500   277.68402     -347.73141     -266.36089     -347.60147      0              4050.4832      45.786085      20.047001      20.857         19144.092      5694.1835      3463.8297      2993.4364     -768.7709       398.36235      764.1023     
  29359000   272.31324     -349.01163     -269.21493     -348.90815      0              4848.5232      45.877879      20.047001      20.857         19182.472      3692.5069      6360.6389      4492.4239     -707.61492     -1136.3433     -809.22024    
  29359500   274.13125     -346.64843     -266.319       -346.55074      0              4244.0249      45.807788      20.047001      20.857         19153.166      1224.1756      6428.2944      5079.6045     -922.19404      613.84646     -107.68723    
  29360000   270.82977     -348.82027     -269.45828     -348.70013      0              3785.3482      45.616501      20.047001      20.857         19073.185      2171.6592      4668.7433      4515.6421      1687.4821     -566.78974     -703.93237    
  29360500   269.8358      -347.09071     -268.01998     -346.98569      0              6657.8718      45.611373      20.047001      20.857         19071.041      8211.9187      7237.9321      4523.7647      705.95248     -393.22111      1743.5378    
  29361000   273.23594     -347.94494     -267.87786     -347.8722       0              5706.5691      45.870625      20.047001      20.857         19179.439      5260.6898      7765.4027      4093.6147      290.80289      1711.8456      47.403396    
  29361500   272.57867     -349.82698     -269.9525      -349.74431      0              3009.8252      45.83475       20.047001      20.857         19164.439      1015.6776      5864.3626      2149.4354      469.20596     -536.11122     -730.35763    
  29362000   264.17125     -351.20556     -273.79474     -351.07729      0              5404.902       45.721266      20.047001      20.857         19116.99       5554.0498      4474.1043      6186.5518     -896.17228     -1276.593      -1129.7924    
  29362500   269.2493      -351.06025     -272.16139     -350.93202      0              6167.6108      45.628206      20.047001      20.857         19078.079      6818.952       7094.6652      4589.2154      258.7144      -633.21172     -998.54173    
  29363000   271.31905     -351.03309     -271.52772     -350.94567      0              6323.9158      45.677146      20.047001      20.857         19098.542      4150.537       8309.9509      6511.2595     -240.45466     -718.53692     -665.29207    
  29363500   277.08165     -351.31808     -270.12409     -351.20863      0              5346.8457      45.884568      20.047001      20.857         19185.269      5716.7488      6430.9252      3892.8633     -833.2576      -1381.4038      898.19356    
  29364000   262.68717     -350.15695     -273.181       -350.10889      0              3898.8314      45.967358      20.047001      20.857         19219.885      4222.4129      3617.2424      3856.839       652.46612      1639.2628     -438.80812    
  29364500   259.64423     -348.79636     -272.7121      -348.73692      0              4234.9698      45.50721       20.047001      20.857         19027.488      5953.6052      4469.6479      2281.6562     -97.720594      302.36332     -1811.8       
  29365000   273.52607     -347.30378     -267.15168     -347.20774      0              5006.1101      45.380159      20.047001      20.857         18974.366      5285.1317      4766.6026      4966.5959      68.641236     -852.09007      732.49792    
  29365500   275.77751     -348.88934     -268.07749     -348.84067      0              4222.2771      45.800612      20.047001      20.857         19150.166      4437.7857      3691.764       4537.2817     -598.59031     -1169.907       1814.709     
  29366000   273.56673     -349.74534     -269.58132     -349.61535      0              4688.8269      45.90694       20.047001      20.857         19194.624      5741.5238      3801.9633      4522.9937      1070.0796     -2658.1374     -1071.5423    
  29366500   264.62064     -347.78937     -270.24685     -347.66488      0              6117.8583      45.613631      20.047001      20.857         19071.985      5910.6349      7052.1468      5390.7932      587.10418     -651.09082      1157.8911    
  29367000   271.34911     -349.20206     -269.68789     -349.10302      0              2468.8643      45.619775      20.047001      20.857         19074.554      2474.5111      2939.8756      1992.2062      1330.3373      1063.5962     -949.60081    
  29367500   272.44272     -348.85018     -269.01554     -348.74307      0              5172.3068      45.844746      20.047001      20.857         19168.619      4131.725       5532.2899      5852.9054      63.525263     -33.737546     -341.83902    
  29368000   262.1355      -346.61952     -269.80523     -346.50923      0              5598.4193      45.992394      20.047001      20.857         19230.354      5711.7427      4876.0991      6207.4159     -81.608853      350.02327      1813.4657    
  29368500   271.36945     -349.85634     -270.3362      -349.72996      0              5698.5469      45.761709      20.047001      20.857         19133.9        5774.3176      7887.1845      3434.1385      791.46356     -1435.2275      1568.1808    
  29369000   263.01745     -347.87609     -270.80336     -347.74834      0              6478.0552      45.646592      20.047001      20.857         19085.767      9487.6526      5495.1486      4451.3645     -320.49431      854.69676     -558.30525    
  29369500   268.72535     -347.46209     -268.71676     -347.36052      0              5781.9025      45.825003      20.047001      20.857         19160.364      5563.2062      5334.9488      6447.5526     -1118.4748     -1242.556      -777.21858    
  29370000   276.75892     -345.38503     -264.28561     -345.25662      0              6023.306       45.873737      20.047001      20.857         19180.741      9029.0786      4298.4621      4742.3774     -82.549339     -1380.2247      1124.754     
  29370500   272.70071     -349.60759     -269.69735     -349.48036      0              5920.9483      45.784367      20.047001      20.857         19143.373      6994.042       5391.4471      5377.3559     -311.61545      467.74377     -351.73409    
  29371000   271.1413      -346.35625     -266.90297     -346.22621      0              5838.084       45.608317      20.047001      20.857         19069.763      4508.9275      8201.2034      4804.1211      1431.282      -1446.5012     -466.27194    
  29371500   267.72623     -346.21172     -267.75917     -346.08614      0              5178.3675      45.606866      20.047001      20.857         19069.157      4535.8502      4361.9814      6637.2709      600.65072      316.27961      1920.6451    
  29372000   266.94898     -346.2973      -268.0725      -346.23438      0              5645.5285      45.653182      20.047001      20.857         19088.522      5640.1435      5945.5502      5350.8918      1331.2487      533.69237      1607.8546    
  29372500   266.49297     -349.23766     -271.14649     -349.14763      0              4559.1473      45.672948      20.047001      20.857         19096.787      5493.4988      2173.2985      6010.6446      888.2761      -1781.1255     -634.73481    
  29373000   273.86509     -349.20467     -268.95323     -349.09659      0              3607.0504      45.735709      20.047001      20.857         19123.028      5516.9175      3126.7735      2177.4603     -271.62418     -2229.2521     -2464.6341    
  29373500   273.99392     -347.8536      -267.5644      -347.77899      0              4975.6683      45.876168      20.047001      20.857         19181.757      5626.2794      3375.4186      5925.3067      822.13299      561.63032     -2128.6354    
  29374000   267.75323     -344.67393     -266.21347     -344.5899       0              6008.4823      45.667647      20.047001      20.857         19094.57       8389.8104      4947.057       4688.5795     -1659.0303     -1000.2255      329.60526    
  29374500   273.87439     -346.2437      -265.98954     -346.16823      0              4815.7217      45.461079      20.047001      20.857         19008.2        4571.5579      2456.3408      7419.2665     -1747.2129      501.55342     -347.68205    
  29375000   274.17863     -351.66411     -271.32079     -351.53966      0              4447.9541      45.682054      20.047001      20.857         19100.594      6357.4129      4447.2659      2539.1835     -109.10483     -2006.406       774.61406    
  29375500   262.68633     -349.86654     -272.89084     -349.82749      0              3928.3044      46.0238        20.047001      20.857         19243.485      3142.7839      4877.3283      3764.8009     -63.124586     -1505.1335      115.62325    
  29376000   265.12549     -350.08482     -272.39437     -350.04646      0              4210.7622      45.472541      20.047001      20.857         19012.992      4259.4863      3929.5297      4443.2705     -265.42457     -930.63339      1591.0049    
  29376500   269.28654     -349.25771     -270.34793     -349.14402      0              6219.1164      45.16962       20.047001      20.857         18886.335      6242.1864      7018.9166      5396.2463      649.1774       14.06033       762.64538    
  29377000   267.45331     -349.02441     -270.65183     -348.96457      0              6452.821       45.656806      20.047001      20.857         19090.038      6371.0342      6066.9906      6920.4382     -1001.0736      1063.7667     -54.58593     
  29377500   271.03962     -351.18994     -271.76645     -351.13411      0              3785.8852      45.945474      20.047001      20.857         19210.735      2402.2027      4014.0718      4941.381      -379.33444     -1454.9371      945.70108    
  29378000   273.22092     -350.24696     -270.18428     -350.1372       0              4715.4952      45.68031       20.047001      20.857         19099.865      5183.6474      3358.4955      5604.3426      512.42098     -1264.2096     -1832.835     
  29378500   277.29041     -349.26862     -268.01345     -349.14525      0              6415.0507      45.516492      20.047001      20.857         19031.369      7454.2353      6840.1106      4950.8062      140.56298     -2304.0979      1242.1692    
  29379000   273.70258     -348.84149     -268.63767     -348.72199      0              6165.5543      45.782289      20.047001      20.857         19142.504      6882.4709      6386.3416      5227.8503     -399.07899      605.88419      430.29484    
  29379500   267.98712     -349.38518     -270.85618     -349.28927      0              5784.4203      45.77207       20.047001      20.857         19138.232      5305.9542      5561.7492      6485.5576      209.92221     -1866.6756     -777.57992    
  29380000   272.68018     -350.40761     -270.50339     -350.31662      0              8209.5704      45.708219      20.047001      20.857         19111.534      8885.4595      6702.8687      9040.3831      296.15602     -660.64183     -649.83994    
  29380500   271.28733     -349.87127     -270.3752      -349.79624      0              5653.8099      45.788802      20.047001      20.857         19145.228      6270.0103      4596.257       6095.1624     -954.5227      -448.96045      2.9302238    
  29381000   268.27462     -349.91401     -271.30076     -349.84195      0              5952.6288      45.465791      20.047001      20.857         19010.17       6522.8621      5730.1159      5604.9082     -419.74702      77.70654      -34.784612    
  29381500   267.87802     -350.32123     -271.82419     -350.21531      0              6441.2499      45.641412      20.047001      20.857         19083.601      5235.9724      6683.8694      7403.9079      374.23728      854.92735      209.34838    
  29382000   270.03688     -349.21933     -270.08968     -349.1358       0              5900.2392      45.842949      20.047001      20.857         19167.868      8481.536       6031.367       3187.8145     -85.348935     -947.44524     -236.44235    
  29382500   268.83838     -345.91277     -267.13432     -345.87714      0              4545.3007      45.861511      20.047001      20.857         19175.629      6644.8148      3217.965       3773.1224      206.05703     -16.195606      1085.6237    
  29383000   265.00608     -348.90744     -271.25197     -348.85475      0              4208.0777      45.785346      20.047001      20.857         19143.783      4629.4992      5267.1528      2727.581       529.57809     -1177.0798     -1782.0599    
  29383500   265.82973     -351.26838     -273.37156     -351.22873      0              5496.2609      45.679588      20.047001      20.857         19099.563      5255.2195      5188.017       6045.5461     -487.73331      506.38483     -127.12545    
  29384000   265.1979      -348.36114     -270.64947     -348.26042      0              5786.62        45.701486      20.047001      20.857         19108.719      5661.1608      4632.2985      7066.4007      995.94049      1189.4136     -286.94715    
  29384500   265.25884     -348.83857     -271.10904     -348.71432      0              6183.31        45.657696      20.047001      20.857         19090.41       9310.9302      1855.0623      7383.9374     -1298.9943      284.17573      227.45719    
  29385000   266.19327     -348.29718     -270.29383     -348.18334      0              5868.3136      45.471195      20.047001      20.857         19012.43       5365.5893      6275.416       5963.9354     -1023.2697      19.243983     -913.12008    
  29385500   276.24223     -347.48269     -266.53467     -347.39181      0              4247.7177      45.522186      20.047001      20.857         19033.75       6355.2777      2444.8604      3943.0149     -1889.2977      741.72474      97.890967    
  29386000   267.95894     -348.13187     -269.61113     -348.03224      0              4994.9463      45.5961        20.047001      20.857         19064.655      4131.0438      4601.7399      6252.0553      936.3354      -1453.5093     -1696.5777    
  29386500   274.48449     -348.59662     -268.16367     -348.47704      0              7176.7886      45.497347      20.047001      20.857         19023.364      7888.9575      5920.2926      7721.1155     -1490.9313     -535.84536     -629.21011    
  29387000   275.89195     -349.26648     -268.4211      -349.1959       0              6008.3341      45.508094      20.047001      20.857         19027.858      7050.0188      4528.5997      6446.384       28.847478      965.59038     -533.15619    
  29387500   270.83722     -346.70744     -267.34327     -346.61911      0              6748.6761      45.672596      20.047001      20.857         19096.639      9229.433       4553.8755      6462.7197     -172.28914      851.54411      382.87716    
  29388000   271.36616     -347.87823     -268.35905     -347.79151      0              3999.3335      45.855042      20.047001      20.857         19172.924      4730.3468      3942.5599      3325.0938      135.23048      386.03646     -665.27144    
  29388500   276.16608     -346.00588     -265.08018     -345.91055      0              6855.1337      45.411252      20.047001      20.857         18987.366      6713.0543      8092.3633      5759.9835     -1743.0757      1039.4249      210.58606    
  29389000   263.53577     -346.53734     -269.31273     -346.44609      0              8464.2304      45.110896      20.047001      20.857         18861.781      8365.2566      9039.121       7988.3137     -347.41018      538.78158      702.8888     
  29389500   272.54652     -346.53423     -266.66917     -346.43018      0              6618.761       45.225972      20.047001      20.857         18909.897      6404.5064      5828.357       7623.4195     -1613.6075     -1630.8761     -72.068486    
  29390000   271.55483     -348.85006     -269.2756      -348.74742      0              5276.3212      45.343155      20.047001      20.857         18958.894      5726.999       4923.4133      5178.5512      176.26509     -92.525122      1525.5901    
  29390500   263.02563     -344.96164     -267.88652     -344.9084       0              4540.573       45.604917      20.047001      20.857         19068.342      5221.5567      3482.4147      4917.7475      614.95146     -1153.0753     -760.26841    
  29391000   266.68318     -346.7227      -268.5758      -346.64651      0              5303.349       45.569269      20.047001      20.857         19053.436      8064.8631      4467.7282      3377.4557     -2131.5305     -365.79173      1117.2261    
  29391500   267.80646     -346.08856     -267.61249     -346.0014       0              6273.0065      45.331161      20.047001      20.857         18953.879      7070.0685      5560.7611      6188.1898     -206.64133     -2133.4255      1529.3041    
  29392000   268.93387     -348.63258     -269.82615     -348.52494      0              4659.9025      45.564813      20.047001      20.857         19051.573      5684.9201      2952.0027      5342.7846      652.51587      1133.1341     -1607.3969    
  29392500   270.56077     -346.02778     -266.74462     -345.98724      0              4779.9795      45.907303      20.047001      20.857         19194.775      4865.436       4392.7191      5081.7833     -536.61819     -738.28663      670.61235    
  29393000   266.64185     -344.75983     -266.62503     -344.73044      0              4385.455       45.787168      20.047001      20.857         19144.544      5177.0834      6097.6255      1881.656      -1155.4663      690.08095     -462.64424    
  29393500   271.24672     -346.74767     -267.2635      -346.65206      0              7387.2488      45.528668      20.047001      20.857         19036.46       7886.3706      6004.9192      8270.4567     -66.147601      132.88923      488.96017    
  29394000   270.83463     -349.6658      -270.30238     -349.56253      0              4055.8021      45.576238      20.047001      20.857         19056.35       6115.9861      2641.0569      3410.3633     -1063.3032     -2510.3258      666.14782    
  29394500   264.23607     -349.06465     -271.63483     -348.95898      0              4076.0404      45.796932      20.047001      20.857         19148.627      3763.9021      4471.6096      3992.6096     -103.16885      510.66265     -472.29004    
  29395000   265.65321     -349.60194     -271.75685     -349.53902      0              5332.9188      45.713072      20.047001      20.857         19113.563      6361.2998      5275.3925      4362.0641      51.206673      1799.666       428.61615    
  29395500   268.63416     -350.83972     -272.12111     -350.7191       0              5158.828       45.869304      20.047001      20.857         19178.887      4714.2061      6960.4625      3801.8152     -90.729648      1040.178      -208.05576    
  29396000   264.18495     -350.34041     -272.92557     -350.27437      0              4870.6016      45.799035      20.047001      20.857         19149.506      5736.7184      4398.719       4476.3674     -316.28468     -192.17381     -723.76159    
  29396500   268.65509     -350.41118     -271.68644     -350.28661      0              6199.871       45.636983      20.047001      20.857         19081.749      9542.9153      3344.6652      5712.0326     -646.40315      233.14218     -2160.6502    
  29397000   265.0354      -349.6767      -272.01265     -349.55001      0              3989.7357      45.821996      20.047001      20.857         19159.107      4684.4122      4065.1725      3219.6223      263.6025      -266.57822     -585.19016    
  29397500   273.43758     -348.6646      -268.53843     -348.58377      0              4663.1637      46.08261       20.047001      20.857         19268.075      4115.6735      4348.3489      5525.4685     -430.29285      796.86422     -1874.7503    
  29398000   270.4381      -348.78255     -269.53533     -348.66935      0              6476.3766      45.643627      20.047001      20.857         19084.527      8920.3957      4472.2431      6036.4911     -1538.5912     -558.1639      -596.78022    
  29398500   282.1554      -349.80134     -267.12057     -349.67273      0              5461.8716      45.382521      20.047001      20.857         18975.353      7733.5949      2388.3302      6263.6897     -1616.3989     -599.12821      1442.3939    
  29399000   267.73245     -344.14413     -265.68976     -344.0653       0              6587.007       45.805504      20.047001      20.857         19152.211      5970.7893      6499.429       7290.8026     -536.32353      39.422349      414.76663    
  29399500   261.0936      -347.18121     -270.67224     -347.08144      0              3298.1365      46.175787      20.047001      20.857         19307.034      3318.5787      3566.6172      3009.2135      242.18408     -44.768655      1288.5755    
  29400000   277.70803     -349.59419     -268.21665     -349.47039      0              4762.9984      46.051189      20.047001      20.857         19254.937      8354.5743      3339.949       2594.4719      966.17738     -258.09348      471.17026    
  29400500   269.16295     -350.7171      -271.84354     -350.58995      0              5765.3053      45.843691      20.047001      20.857         19168.178      7733.5998      6055.3322      3506.9837     -892.1935       1603.9284      479.11963    
  29401000   271.58363     -346.95891     -267.37602     -346.84416      0              5409.9722      45.931946      20.047001      20.857         19205.079      4912.6371      6460.5918      4856.6877      61.065183     -819.99204     -311.08667    
  29401500   277.70578     -351.46587     -270.08898     -351.35005      0              6972.8356      45.949856      20.047001      20.857         19212.568      8189.7117      6604.269       6124.5262      868.09613     -349.57636     -933.90392    
  29402000   263.89097     -348.15681     -270.82811     -348.03901      0              5089.5751      45.835511      20.047001      20.857         19164.757      4325.9326      3694.9759      7247.8167      407.00294     -1464.6921      1332.6388    
  29402500   264.62693     -349.31725     -271.77289     -349.18961      0              6834.4546      45.560731      20.047001      20.857         19049.867      10387.484      3296.5386      6819.3413     -1115.2802      1890.6966     -873.33418    
  29403000   265.75173     -347.79077     -269.91681     -347.69016      0              5483.6166      45.664486      20.047001      20.857         19093.249      7390.2993      3576.6159      5483.9346     -999.28794      295.74491      337.81875    
  29403500   271.16895     -348.46704     -269.00565     -348.38277      0              3515.7709      45.849545      20.047001      20.857         19170.625      5431.4145      2257.3103      2858.5879      1518.3797     -1416.4204      1578.1286    
  29404000   267.37352     -347.21086     -268.86166     -347.08713      0              5391.9655      46.030202      20.047001      20.857         19246.162      7499.4604      2317.0642      6359.3719     -882.48021      487.05926      265.70069    
  29404500   277.78601     -350.18209     -268.78169     -350.05597      0              3521.8198      45.962702      20.047001      20.857         19217.939      3164.5014      3664.9192      3736.0388     -31.243335      91.004234      1095.7803    
  29405000   263.86532     -351.35803     -274.03685     -351.28542      0              4658.7871      45.751991      20.047001      20.857         19129.836      5222.7745      5742.3063      3011.2805     -684.53788     -1998.0219     -415.04184    
  29405500   262.85193     -348.59133     -271.5671      -348.47673      0              6439.6825      45.545809      20.047001      20.857         19043.627      8932.4852      5032.4409      5354.1214      2502.404       656.88274      2041.1664    
  29406000   273.74475     -350.39273     -270.17656     -350.27961      0              6468.7422      45.497912      20.047001      20.857         19023.601      6566.1309      6408.5089      6431.5867     -200.42817      156.61858      1170.2061    
  29406500   263.19057     -350.95286     -273.82941     -350.82352      0              6053.4641      45.779227      20.047001      20.857         19141.224      5704.9905      5585.8919      6869.5101      1066.4301      760.64429     -942.15815    
  29407000   269.65502     -350.45037     -271.43262     -350.34546      0              5855.6952      45.83647       20.047001      20.857         19165.159      6450.9343      5766.3126      5349.8387     -423.20362      678.64186      1596.2589    
  29407500   266.28361     -350.47095     -272.44114     -350.34639      0              5915.7416      45.756564      20.047001      20.857         19131.748      7180.299       3768.7111      6798.2147     -531.08263      13.830981     -938.88034    
  29408000   265.72981     -349.74431     -271.87677     -349.64556      0              4783.8431      45.792371      20.047001      20.857         19146.72       4536.3675      2445.8789      7369.2828      589.57036      291.37645     -109.59499    
  29408500   273.48308     -349.71002     -269.57052     -349.63715      0              6357.7373      45.886242      20.047001      20.857         19185.969      6507.5482      7337.143       5228.5208      471.83956     -1153.2295      326.76692    
  29409000   263.01915     -349.74351     -272.67029     -349.6339       0              4876.5979      45.869919      20.047001      20.857         19179.144      4276.6434      4482.9043      5870.246      -622.09562     -510.86635     -415.24899    
  29409500   265.28022     -350.67108     -272.93529     -350.55001      0              4138.0632      45.793949      20.047001      20.857         19147.38       4560.5322      4396.4682      3457.1892      1618.777      -589.8798       1410.4915    
  29410000   272.83516     -349.24226     -269.29262     -349.11201      0              4874.7699      45.814412      20.047001      20.857         19155.936      5243.1276      5795.7862      3585.3959      379.42373     -442.55699     -705.71682    
  29410500   275.50719     -348.73809     -268.00546     -348.65518      0              4617.623       46.302339      20.047001      20.857         19359.948      5807.203       4058.96        3986.7059     -145.19473     -1306.0687     -226.68435    
  29411000   274.07331     -348.88104     -268.56859     -348.7839       0              3781.2578      46.092011      20.047001      20.857         19272.006      5976.5393      2242.4488      3124.7852      240.55694     -1021.9845      677.29793    
  29411500   274.29481     -351.51205     -271.13469     -351.38765      0              7306.0395      45.601017      20.047001      20.857         19066.711      7999.8204      6763.6034      7154.6947     -786.41031      766.351        1715.5632    
  29412000   274.30752     -349.86027     -269.47918     -349.73457      0              3852.7673      45.669316      20.047001      20.857         19095.268      5498.3151      1664.2541      4395.7327      1262.9628      952.9725       847.12766    
  29412500   264.07042     -350.27619     -272.8949      -350.14606      0              4660.2149      45.929304      20.047001      20.857         19203.974      5108.9305      4044.1074      4827.6068      510.42198     -629.36804     -1738.0054    
  29413000   270.65609     -351.42404     -272.11295     -351.29478      0              6756.4934      46.047474      20.047001      20.857         19253.384      5900.0334      6021.5054      8347.9413      1651.4589      1334.3686      2032.5704    
  29413500   266.31961     -350.12908     -272.08872     -350.0265       0              7049.9802      45.791769      20.047001      20.857         19146.468      6201.4885      8716.4695      6231.9826     -1944.348      -1277.6264      1870.6114    
  29414000   276.16534     -350.44731     -269.52182     -350.34667      0              7665.7196      45.614398      20.047001      20.857         19072.306      5720.0001      8069.8533      9207.3055      297.223        2874.0405     -653.15364    
  29414500   270.64191     -352.95412     -273.64717     -352.84563      0              4715.1912      45.848345      20.047001      20.857         19170.124      6135.6795      3885.9362      4123.958      -738.40412     -2614.6703      680.43347    
  29415000   266.05616     -350.67239     -272.70922     -350.60189      0              5859.8497      45.798363      20.047001      20.857         19149.225      5661.7395      6458.1295      5459.6802      380.08629     -124.41756      1544.7393    
  29415500   268.60126     -350.67477     -271.96581     -350.55085      0              6957.5658      45.627597      20.047001      20.857         19077.824      7707.0576      6959.8679      6205.772      -144.11306     -1452.2557      741.92654    
  29416000   269.30528     -352.39862     -273.48335     -352.29409      0              6130.2435      45.667898      20.047001      20.857         19094.675      5234.6373      6693.3488      6462.7444      1412.4685     -366.41416      1821.1299    
  29416500   262.83755     -349.48631     -272.4663      -349.3862       0              5213.6245      45.918396      20.047001      20.857         19199.414      5630.0122      7177.015       2833.8463     -67.617489     -813.50872      1325.5494    
  29417000   279.96916     -354.17686     -272.13673     -354.01775      0              3461.9491      46.051182      20.047001      20.857         19254.934      3975.3252      4311.0677      2099.4543      541.23343      763.21857      1233.3654    
  29417500   274.18014     -349.03419     -268.69043     -348.95412      0              5012.672       45.934083      20.047001      20.857         19205.973      8115.6239      2718.1931      4204.1991     -685.62041     -457.20625      194.14965    
  29418000   267.32897     -346.14809     -267.81195     -346.04555      0              4813.2048      45.786856      20.047001      20.857         19144.414      5153.6653      4186.0243      5099.9248     -315.10943     -145.06356      982.77831    
  29418500   271.57546     -351.09456     -271.51406     -350.98702      0              5294.9535      45.87697       20.047001      20.857         19182.092      6237.8285      4890.0664      4756.9654     -572.64989     -611.13062      1125.1694    
  29419000   268.9651      -348.64243     -269.82685     -348.54093      0              5408.6147      46.019294      20.047001      20.857         19241.601      5544.3346      3008.2132      7673.2963     -352.25658     -415.59503     -816.14563    
  29419500   267.16947     -346.44222     -268.15281     -346.34375      0              5168.0033      45.905449      20.047001      20.857         19194          4621.487       6746.4606      4136.0622      818.05332      1469.4992      374.66534    
  29420000   274.1193      -347.96361     -267.63767     -347.86946      0              6147.14        45.792723      20.047001      20.857         19146.867      3912.0723      8966.1563      5563.1914     -879.97725      468.71418     -2242.661     
  29420500   268.96414     -348.71987     -269.90457     -348.59371      0              6560.8698      45.55743       20.047001      20.857         19048.486      7535.0643      6713.5496      5433.9953      406.12268      1107.6049      916.1428     
  29421000   271.50273     -348.37924     -268.82004     -348.24261      0              4559.7945      45.561887      20.047001      20.857         19050.35       5846.2302      4033.18        3799.9732     -907.37233     -1432.5723      49.44758     
  29421500   268.94712     -352.48944     -273.67913     -352.3641       0              6339.7616      45.76064       20.047001      20.857         19133.453      7930.4689      4758.0709      6330.7451      673.25692      1245.8663     -508.1396     
  29422000   274.45251     -349.1028      -268.67923     -348.97439      0              5154.534       45.445447      20.047001      20.857         19001.664      5028.9495      6613.4931      3821.1593      378.78992      964.13145     -806.12605    
  29422500   268.32509     -349.54678     -270.91874     -349.49398      0              6704.3731      45.458218      20.047001      20.857         19007.004      8199.5174      6253.9129      5659.6889     -792.37971      540.34011      820.44652    
  29423000   270.56216     -351.16474     -271.88117     -351.16495      0              7234.2357      45.552343      20.047001      20.857         19046.359      7710.6813      6878.2863      7113.7395     -371.24663     -780.6245       1277.3474    
  29423500   269.00899     -348.4716      -269.64315     -348.34793      0              6044.1133      45.66694       20.047001      20.857         19094.275      8976.0989      4411.2455      4744.9956     -1441.2542     -998.25001     -1289.0441    
  29424000   270.9994      -350.07778     -270.66608     -350.02901      0              5121.9544      46.056158      20.047001      20.857         19257.015      4171.3484      6094.7647      5099.7502      527.39495      208.54081      669.75607    
  29424500   276.5057      -348.12857     -267.10334     -348.05102      0              3927.2747      46.02639       20.047001      20.857         19244.568      2579.848       5125.7353      4076.2407     -454.26941     -1677.6255     -2203.1686    
  29425000   272.37586     -347.45693     -267.64189     -347.38673      0              4242.4808      45.64576       20.047001      20.857         19085.419      1468.5075      6032.6132      5226.3217      1575.1964     -1972.2756      884.77117    
  29425500   267.28098     -348.59957     -270.27749     -348.53105      0              6112.4874      45.340237      20.047001      20.857         18957.674      7615.7947      6320.4137      4401.2536      895.72047      232.55006     -919.28423    
  29426000   274.37696     -348.97926     -268.57783     -348.89677      0              5955.8544      45.512672      20.047001      20.857         19029.772      8241.2173      4114.7528      5511.5931     -836.43672      1136.304       1461.6898    
  29426500   264.13484     -348.81178     -271.41162     -348.72785      0              3532.2176      45.77264       20.047001      20.857         19138.47       4903.9091      2785.5448      2907.1988      547.16258     -3462.7792      635.52168    
  29427000   272.70676     -350.8381      -270.92609     -350.77194      0              7197.774       45.741836      20.047001      20.857         19125.59       9407.9857      4660.8531      7524.4833      1678.5974      163.96214      941.97641    
  29427500   269.06041     -350.85845     -272.01493     -350.77832      0              6776.3779      45.607285      20.047001      20.857         19069.332      7359.62        5350.4601      7619.0536      70.806246      573.44573     -1435.1427    
  29428000   265.00611     -353.53409     -275.87862     -353.4262       0              4795.8376      45.773776      20.047001      20.857         19138.945      5632.2762      5553.1213      3202.1151      138.07189     -2061.383      -343.60706    
  29428500   276.59896     -351.84166     -270.78911     -351.7718       0              6108.2677      45.823593      20.047001      20.857         19159.775      6514.0266      5878.9522      5931.8242     -180.92587      211.91024      367.46516    
  29429000   267.85099     -346.62662     -268.13751     -346.542        0              6357.6029      45.787174      20.047001      20.857         19144.547      7954.4427      4981.3835      6136.9825     -240.91704      334.9676       970.8661     
  29429500   265.17578     -348.86202     -271.15683     -348.76054      0              7161.1961      45.752546      20.047001      20.857         19130.068      6959.1208      5745.9254      8778.5422     -322.84811     -285.02231     -713.89828    
  29430000   270.50442     -348.43872     -269.17207     -348.32972      0              6274.6078      45.809525      20.047001      20.857         19153.892      7785.273       5638.8259      5399.7245     -91.087132     -322.68855      1736.7248    
  29430500   273.08346     -347.19817     -267.17577     -347.12589      0              5592.9515      45.801103      20.047001      20.857         19150.371      5969.3231      4183.2248      6626.3065     -528.26528     -1095.8476     -1171.0438    
  29431000   273.2789      -348.01276     -267.9331      -347.90635      0              8350.2668      45.572736      20.047001      20.857         19054.886      7967.7748      8594.0115      8489.0142     -3.1481285     -1001.786       919.81927    
  29431500   276.19142     -351.18034     -270.24721     -351.06445      0              3625.5966      45.590883      20.047001      20.857         19062.473      6792.002       1821.2339      2263.5539      12.326031      19.871774      1306.8444    
  29432000   269.37144     -348.39973     -269.46508     -348.30371      0              4133.0689      45.775686      20.047001      20.857         19139.744      4281.1276      4370.1127      3747.9664      299.76617      377.35238      993.15697    
  29432500   275.19758     -347.16024     -266.51834     -347.0303       0              5950.3109      45.694032      20.047001      20.857         19105.602      7607.1226      4864.2636      5379.5465      278.7585      -1507.1923      1241.01      
[...]
  33068500   268.19486     -349.14215     -270.55227     -348.97543      0              6576.5177      45.692655      20.047001      20.857         19105.027      6669.9073      8309.0291      4750.6166     -341.13028      1663.9276     -188.38613    
  33069000   259.6286      -349.61696     -273.53727     -349.48615      0              6782.025       45.540906      20.047001      20.857         19041.577      8537.3775      6331.3594      5477.3379      43.525454     -625.0807       1647.1785    
  33069500   274.56301     -351.53647     -271.08051     -351.40896      0              6635.6706      45.585728      20.047001      20.857         19060.318      9216.1803      5374.2628      5316.5688     -528.851       -572.70366     -97.873886    
  33070000   263.19026     -353.49565     -276.37229     -353.33385      0              4025.031       45.847269      20.047001      20.857         19169.674      7501.1611      1837.8461      2736.0858      309.4971      -400.38773     -246.70909    
  33070500   269.90899     -349.09113     -269.99896     -348.97258      0              4407.0974      45.949073      20.047001      20.857         19212.24       5973.9328      2545.7772      4701.5822     -140.15812      1226.85       -862.44464    
  33071000   274.03803     -350.22879     -269.92667     -350.10009      0              5393.5933      45.826362      20.047001      20.857         19160.932      5514.9439      6284.7473      4381.0888     -1975.41       -935.21029      2596.7209    
  33071500   268.39547     -352.37398     -273.72532     -352.21186      0              3222.7891      45.678098      20.047001      20.857         19098.94       7211.8333     -342.1014       2798.6354      311.3139       3110.3654      772.04301    
  33072000   265.6248      -353.7668      -275.93003     -353.62852      0              4826.4535      45.54275       20.047001      20.857         19042.348      5688.3359      3751.9675      5039.0571      142.60178     -387.9506      -549.32975    
  33072500   266.50397     -350.9839      -272.88951     -350.84423      0              5694.612       45.472553      20.047001      20.857         19012.998      7189.987       7434.8946      2458.9543      1148.9655     -266.40872     -103.56774    
  33073000   268.33012     -353.03026     -274.40075     -352.86963      0              2827.0295      45.677852      20.047001      20.857         19098.837      2174.4692      2639.0434      3667.5759     -1170.4553      1695.5786     -759.46396    
  33073500   273.58966     -349.56728     -269.39655     -349.43595      0              4143.5848      45.740373      20.047001      20.857         19124.978      4736.983       2740.9561      4952.8155     -1632.6823      2565.4871      86.460273    
  33074000   273.49118     -351.8337      -271.69182     -351.70139      0              4591.1586      45.720213      20.047001      20.857         19116.549      6183.8797      2949.6168      4639.9792      12.480348      737.95353      1239.2231    
  33074500   279.06224     -351.19839     -269.42402     -351.04072      0              5776.8708      45.804337      20.047001      20.857         19151.723      4779.9949      7184.301       5366.3163     -2052.081      -212.90363      1192.9366    
  33075000   270.46855     -352.81808     -273.56193     -352.65362      0              4662.9778      45.862494      20.047001      20.857         19176.04       6167.7112      3374.8993      4446.3229      1646.7226     -247.07404      226.68422    
  33075500   265.71488     -352.07134     -274.20818     -351.93025      0              6871.7152      45.696396      20.047001      20.857         19106.591      5499.1793      7674.8495      7441.1168     -1220.1631      1255.5892      2366.6221    
  33076000   269.17523     -348.30733     -269.43018     -348.15282      0              5117.4352      45.751146      20.047001      20.857         19129.483      6180.4039      4717.7237      4454.1779      918.96117      1773.1131     -1044.048     
  33076500   282.66144     -350.65662     -267.82757     -350.51577      0              6168.723       45.733433      20.047001      20.857         19122.077      9638.7847      3700.9926      5166.3917     -84.644375      385.24981      165.07156    
  33077000   275.95666     -349.64826     -268.78392     -349.48799      0              5741.3934      45.719761      20.047001      20.857         19116.36       7004.8611      4340.7737      5878.5455      259.54887      799.12431      413.21248    
  33077500   262.43421     -349.62415     -272.72233     -349.47631      0              4267.144       45.691588      20.047001      20.857         19104.581      5257.8196      2726.5246      4817.088       1791.5257     -350.89078      3186.6615    
  33078000   267.78248     -348.79597     -270.32693     -348.66439      0              6267.9889      45.658013      20.047001      20.857         19090.542      6913.5309      4922.2073      6968.2287      275.07818      510.73328      462.57519    
  33078500   268.02674     -348.96705     -270.42644     -348.80015      0              4919.3146      45.745958      20.047001      20.857         19127.314      6130.4445      4345.5471      4281.9522      766.80502     -202.4991      -307.16778    
  33079000   279.6906      -349.84699     -267.88849     -349.7074       0              5151.4345      45.787607      20.047001      20.857         19144.728      7069.2755      4158.7021      4226.3259     -1350.2933      3.2290297      62.029873    
  33079500   276.49542     -350.11262     -269.09041     -349.9727       0              5883.1138      45.60058       20.047001      20.857         19066.528      6828.6007      4267.4204      6553.3203      396.05073      331.68769      853.27053    
  33080000   265.01887     -349.17979     -271.52059     -349.04029      0              5282.3914      45.57864       20.047001      20.857         19057.355      5656.3365      6341.5601      3849.2776     -1585.8766      2491.4514      663.43434    
  33080500   268.94296     -350.91974     -272.11064     -350.77384      0              5043.8611      45.723751      20.047001      20.857         19118.029      5780.5069      4076.4651      5274.6113     -300.44346     -628.43846      262.10975    
  33081000   265.5515      -345.20827     -267.39299     -345.07808      0              4063.321       46.027837      20.047001      20.857         19245.173      1664.4637      4491.4618      6034.0376     -1490.8358      693.18289     -1713.2019    
  33081500   272.20484     -349.20014     -269.43521     -349.03688      0              5862.5438      45.948327      20.047001      20.857         19211.928      8438.2269      5754.8481      3394.5564      810.61345      687.1263      -976.40105    
  33082000   274.01349     -349.05972     -268.76479     -348.92625      0              5276.3518      45.658689      20.047001      20.857         19090.825      7823.9415      2694.8647      5310.2493     -854.6939      -1632.8071     -1067.9746    
  33082500   275.53065     -352.94096     -272.20145     -352.77831      0              4945.4696      45.548834      20.047001      20.857         19044.892      5135.378       3216.9182      6484.1126      258.36189      532.7653       820.75985    
  33083000   262.67225     -351.91286     -274.94128     -351.78236      0              4755.5836      45.867531      20.047001      20.857         19178.146      5661.0041      3698.8161      4906.9305      218.92984     -1287.773       484.69765    
  33083500   276.98461     -349.80579     -268.64023     -349.67408      0              4935.7294      45.984784      20.047001      20.857         19227.172      6750.744       3681.9383      4374.506       1119.0905      1709.172      -495.15315    
  33084000   267.16677     -349.21457     -270.92596     -349.07511      0              2991.3977      45.924863      20.047001      20.857         19202.117      5839.3402      2132.456       1002.3969      299.6404      -1253.4007     -394.07171    
  33084500   263.13936     -350.37043     -273.26198     -350.21965      0              4921.1875      45.990038      20.047001      20.857         19229.368      5303.3057      5125.4354      4334.8215     -221.5248       813.16126     -259.82787    
  33085000   276.54816     -352.99519     -271.95752     -352.85757      0              4385.7954      45.95181       20.047001      20.857         19213.385      5964.612       4222.7305      2970.0438     -1789.7267      1341.3994      1076.6729    
  33085500   269.42364     -350.16117     -271.21122     -350.02952      0              5277.9995      45.875783      20.047001      20.857         19181.596      6158.8401      5353.1522      4322.0062      826.15158     -96.424718     -24.413151    
  33086000   277.64757     -351.86946     -270.50963     -351.73188      0              5277.8651      46.073329      20.047001      20.857         19264.194      5855.3778      4843.9652      5134.2523     -531.15958      857.85641      1931.7226    
  33086500   269.80361     -348.803       -269.74171     -348.64735      0              6163.25        45.883485      20.047001      20.857         19184.816      5242.2411      5890.802       7356.7069      733.94391      344.53154      873.24702    
  33087000   273.84821     -350.55574     -270.30924     -350.42844      0              6188.3223      45.496725      20.047001      20.857         19023.104      7578.9323      3606.1         7379.9347     -399.49656     -19.127224     -234.35731    
  33087500   275.47307     -350.59465     -269.87202     -350.42772      0              5202.8914      46.076275      20.047001      20.857         19265.426      4213.384       5529.9279      5865.3623      818.71997      532.23398      634.28246    
  33088000   274.40114     -348.90908     -268.50056     -348.78029      0              6249.8641      46.354099      20.047001      20.857         19381.59       8292.8034      5402.154       5054.6349     -679.40202      913.409        588.79249    
  33088500   269.09154     -353.50482     -274.65218     -353.36607      0              5065.7149      45.973403      20.047001      20.857         19222.413      5024.274       6528.2235      3644.6473      931.85707     -981.44241      457.542      
  33089000   268.02512     -350.79588     -272.25574     -350.63868      0              6550.2288      45.83663       20.047001      20.857         19165.226      6761.6696      8175.2604      4713.7564     -1008.9443      260.36755     -74.774202    
  33089500   273.86602     -351.16939     -270.91768     -351.04231      0              4739.3143      46.019586      20.047001      20.857         19241.723      2044.9958      7055.2505      5117.6965      1637.3498     -1273.8225      912.56479    
  33090000   272.83459     -350.04574     -270.09627     -349.90971      0              4524.3301      46.011146      20.047001      20.857         19238.194      5689.2936      3828.4821      4055.2147      749.32652      730.34139     -553.93101    
  33090500   272.75133     -351.07412     -271.14905     -350.93147      0              6420.326       45.748417      20.047001      20.857         19128.342      8742.923       6093.4239      4424.631      -429.40998     -913.00959      1369.3098    
  33091000   271.12302     -352.77647     -273.32854     -352.62126      0              3701.4769      45.448318      20.047001      20.857         19002.864      7008.991       2410.0768      1685.363      -133.96109     -1468.4362     -181.48745    
  33091500   271.40209     -351.70399     -272.17429     -351.56767      0              4133.2006      45.774718      20.047001      20.857         19139.339      2079.6114      5048.2723      5271.718       250.48547     -747.11639      259.25449    
  33092000   270.02737     -350.30123     -271.17436     -350.17618      0              8234.8191      46.040027      20.047001      20.857         19250.27       12361.131      5857.1538      6486.173      -250.62489      268.10057     -271.93539    
  33092500   265.26395     -351.23156     -273.50054     -351.09991      0              3103.801       46.170062      20.047001      20.857         19304.64       3690.6215      2503.8961      3116.8855      563.74349     -1834.0326     -73.471077    
  33093000   274.38466     -351.1894      -270.78571     -351.04502      0              7419.9576      45.732856      20.047001      20.857         19121.835      7910.5611      7221.4407      7127.871       47.52814       306.09153      910.57212    
  33093500   271.90355     -350.95586     -271.27922     -350.7926       0              5404.2291      45.609465      20.047001      20.857         19070.243      5611.5392      5905.8805      4695.2676      205.52933     -1288.572       654.50403    
  33094000   273.87077     -351.20549     -270.95239     -351.04244      0              5390.6831      46.036391      20.047001      20.857         19248.75       5705.6681      5288.1198      5178.2616      798.70378      116.40968      399.8281     
  33094500   273.02938     -350.1432      -270.13665     -349.97974      0              5253.1035      46.045092      20.047001      20.857         19252.388      8243.7386      3054.3326      4461.2391      1242.0239     -1002.062       1228.5107    
  33095000   274.26373     -350.56751     -270.19926     -350.4106       0              6136.1287      45.650315      20.047001      20.857         19087.323      10030.733      6016.2933      2361.36        201.19849      71.308802     -798.53136    
  33095500   267.98993     -348.55827     -270.02844     -348.40805      0              4072.7769      45.568937      20.047001      20.857         19053.298      3131.5031      5783.4606      3303.3669      499.41642     -145.88157      849.11855    
  33096000   278.38422     -350.95684     -269.38115     -350.79088      0              3714.4866      45.743847      20.047001      20.857         19126.431      4041.7156      4012.9552      3088.7892     -363.50163      1062.4791     -331.90521    
  33096500   275.23089     -349.22481     -268.57315     -349.06676      0              5004.5069      46.005841      20.047001      20.857         19235.976      5514.7266      3272.7447      6226.0495     -466.32902     -90.487444      2569.8201    
  33097000   279.94915     -348.94101     -266.90675     -348.81106      0              4517.7521      45.882733      20.047001      20.857         19184.502      4804.8081      5468.6901      3279.7581      1482.6067     -60.657797      302.50979    
  33097500   271.09058     -349.01253     -269.57411     -348.84626      0              6855.0457      45.739807      20.047001      20.857         19124.742      7674.9284      5750.162       7140.0466      187.40662     -577.82195      929.98792    
  33098000   267.33488     -348.35867     -270.02079     -348.22796      0              5566.1684      45.914946      20.047001      20.857         19197.971      4795.9234      6396.122       5506.4599      842.47114      1666.6846      273.59598    
  33098500   277.82137     -350.56934     -269.15858     -350.41153      0              7993.9156      45.745315      20.047001      20.857         19127.045      7050.4656      8159.5665      8771.7148      416.27196      1071.5186     -656.46389    
  33099000   274.00965     -349.30109     -269.00729     -349.13414      0              7123.0367      45.658753      20.047001      20.857         19090.852      7908.2383      6725.1665      6735.7052      432.74918     -1813.8238      636.60237    
  33099500   280.08746     -350.45056     -268.37576     -350.31112      0              6734.3792      45.838504      20.047001      20.857         19166.009      8660.3323      5944.3408      5598.4646     -268.75962      3.068121      -651.44131    
  33100000   274.13064     -349.40215     -269.07289     -349.28651      0              3876.1854      46.014112      20.047001      20.857         19239.434      6632.9746     -398.31508      5393.8968      104.96935     -2913.7985      823.355      
  33100500   273.81332     -349.90566     -269.66939     -349.7756       0              5292.5497      45.882958      20.047001      20.857         19184.596      7074.8932      4429.0112      4373.7447     -23.272835     -132.25191     -675.48714    
  33101000   274.13842     -347.25428     -266.92274     -347.13882      0              6309.5575      45.850552      20.047001      20.857         19171.047      5235.2271      7466.7149      6226.7303      1223.1244      1836.7485      732.37354    
  33101500   268.71926     -350.00248     -271.25894     -349.84801      0              7092.3932      45.841191      20.047001      20.857         19167.132      7444.6967      7890.8597      5941.6233     -4.5129795     -1344.1694      1456.3429    
  33102000   262.00635     -346.55766     -269.78122     -346.42901      0              4440.1042      45.846649      20.047001      20.857         19169.415      5743.0689      705.86414      6871.3795     -691.19507      1116.9053      198.75413    
  33102500   274.90517     -346.41316     -265.85694     -346.2842       0              5649.8705      45.754918      20.047001      20.857         19131.06       7602.1796      5384.7632      3962.6686      1932.6802     -100.79003     -232.99753    
  33103000   270.15198     -344.28704     -265.12366     -344.18782      0              6301.9285      45.699512      20.047001      20.857         19107.894      6869.4851      5773.1107      6263.1897     -2069.3457     -1195.0906      499.63872    
  33103500   263.93199     -349.02413     -271.68341     -348.89292      0              5083.9826      45.705962      20.047001      20.857         19110.59       6759.6568      3531.7698      4960.5211      218.21042     -1550.2669      1134.0242    
  33104000   270.0277      -346.91502     -267.78806     -346.80987      0              7369.213       45.941905      20.047001      20.857         19209.243      7560.3566      8051.5905      6495.6919     -1537.8405     -302.43104      2080.9003    
WARNING: Wall time limit reached (../timer.cpp:193)
Loop time of 85789.1 on 4 procs for 3817000 steps with 2268 atoms

Performance: 1.922 ns/day, 12.486 hours/ns, 44.493 timesteps/s
972.9% CPU use with 4 MPI tasks x no OpenMP threads

MPI task timing breakdown:
Section |  min time  |  avg time  |  max time  |%varavg| %total
---------------------------------------------------------------
Pair    | 48143      | 48415      | 48688      |  91.7 | 56.43
Bond    | 0.41926    | 0.44897    | 0.48526    |   3.6 |  0.00
Neigh   | 1237.8     | 1273.9     | 1298.6     |  62.5 |  1.48
Comm    | 4888.1     | 5097.3     | 5329.6     | 228.7 |  5.94
Output  | 885.07     | 885.49     | 886.74     |   2.4 |  1.03
Modify  | 30034      | 30106      | 30182      |  30.4 | 35.09
Other   |            | 11.16      |            |       |  0.01

Nlocal:            567 ave         583 max         552 min
Histogram: 1 0 0 0 2 0 0 0 0 1
Nghost:        3742.25 ave        3788 max        3713 min
Histogram: 1 0 2 0 0 0 0 0 0 1
Neighs:              0 ave           0 max           0 min
Histogram: 4 0 0 0 0 0 0 0 0 0
FullNghs:       143173 ave      147791 max      139835 min
Histogram: 1 0 0 2 0 0 0 0 0 1

Total # of neighbors = 572692
Ave neighs/atom = 252.5097
Ave special neighs/atom = 0
Neighbor list builds = 381700
Dangerous builds not checked

unfix		4
unfix		3
unfix		1

write_data	data.final.${pid}
write_data	data.final.0
System init for write_data ...
Generated 0 of 1 mixed pair_coeff terms from geometric mixing rule
write_restart	restart.lmp.${pid}
write_restart	restart.lmp.0
System init for write_restart ...
Generated 0 of 1 mixed pair_coeff terms from geometric mixing rule
Total wall time: 23:50:17
