LAMMPS (23 Jun 2022)
echo both

include		in.partitions
variable        pid world 0
include		in.temp
variable	temperature equal 270.0
variable        tempDamp equal 0.100 # this is 0.1 ps
include		in.pressure
variable        pressure equal 6079.5
variable        pressureDamp equal 1.0 #this is 1ps
include		in.seed
variable        seed world 745823

units           metal
atom_style	full
read_restart	restart.lmp.${pid}
read_restart	restart.lmp.0
Reading restart file ...
  restart file = 23 Jun 2022, LAMMPS = 23 Jun 2022
  restoring atom style full from restart
  orthogonal box = (0.96528749 0 0) to (46.485412 20.047001 20.857)
  4 by 1 by 1 MPI processor grid
Summary of lammps deepmd module ...
  >>> Info of deepmd-kit:
  installed to:       /u/sigbjobo/software/DEEPMD_FROM_SOURCE/deepmd-kit/install
  source:             v2.1.3
  source branch:       master
  source commit:      5a32c49
  source commit at:   2022-07-01 09:52:58 +0800
  surpport model ver.:1.1 
  build float prec:   double
  build with tf inc:  /u/sigbjobo/software/DEEPMD_FROM_SOURCE/tensorflow/install/include;/u/sigbjobo/software/DEEPMD_FROM_SOURCE/tensorflow/install/include
  build with tf lib:  /u/sigbjobo/software/DEEPMD_FROM_SOURCE/tensorflow/install/lib/libtensorflow_cc.so;/u/sigbjobo/software/DEEPMD_FROM_SOURCE/tensorflow/install/lib/libtensorflow_framework.so
  set tf intra_op_parallelism_threads: 0
  set tf inter_op_parallelism_threads: 0
  >>> Info of lammps module:
  use deepmd-kit at:  /u/sigbjobo/software/DEEPMD_FROM_SOURCE/deepmd-kit/install
  source:             v2.1.3
  source branch:      master
  source commit:      5a32c49
  source commit at:   2022-07-01 09:52:58 +0800
  build float prec:   double
  build with tf inc:  /u/sigbjobo/software/DEEPMD_FROM_SOURCE/tensorflow/install/include;/u/sigbjobo/software/DEEPMD_FROM_SOURCE/tensorflow/install/include
  build with tf lib:  /u/sigbjobo/software/DEEPMD_FROM_SOURCE/tensorflow/install/lib/libtensorflow_cc.so;/u/sigbjobo/software/DEEPMD_FROM_SOURCE/tensorflow/install/lib/libtensorflow_framework.so
  restoring pair style deepmd from restart
  2268 atoms
Finding 1-2 1-3 1-4 neighbors ...
  special bond factors lj:    0        0        0       
  special bond factors coul:  0        0        0       
     0 = max # of 1-2 neighbors
     0 = max # of 1-3 neighbors
     0 = max # of 1-4 neighbors
     1 = max # of special neighbors
  special bonds CPU = 0.000 seconds
  read_restart CPU = 0.008 seconds
include 	in.setup
variable	out_freq equal 500
variable	out_freq2 equal 1000
variable	out_freq3 equal 5000

timestep        0.0005

neigh_modify    delay 7 every 1

include         in.deepmd
# This is deepMD model

# create groups ###
#group ox type 2
#group hy type 1

mass 2 15.999
mass 1 1.008

pair_style      deepmd ../graph.pb
pair_coeff      * *

bond_style      none
angle_style     none
dihedral_style  none
improper_style  none
neigh_modify exclude none


neighbor        2.0 bin
neigh_modify    every 10 delay 0 check no

thermo          ${out_freq}
thermo          500
thermo_style 	custom step temp pe etotal epair emol press lx ly lz vol pxx pyy pzz pxy pxz pyz
#thermo_modify	flush yes
restart 	${out_freq} restart.lmp.${pid} restart2.lmp.${pid}
restart 	500 restart.lmp.${pid} restart2.lmp.${pid}
restart 	500 restart.lmp.0 restart2.lmp.${pid}
restart 	500 restart.lmp.0 restart2.lmp.0

include		in.dump
dump            myDump all atom ${out_freq3} dump.water.${pid}
dump            myDump all atom 5000 dump.water.${pid}
dump            myDump all atom 5000 dump.water.0
dump            myDump2 all dcd ${out_freq2} dump.dcd.${pid}
dump            myDump2 all dcd 1000 dump.dcd.${pid}
dump            myDump2 all dcd 1000 dump.dcd.0
dump_modify     myDump append yes
dump_modify     myDump2 append yes


timer           timeout 23:50:00 every 1000
New timer settings: style=normal  mode=nosync  timeout=23:50:00

fix             1 all plumed plumedfile plumed.dat outfile plumed.out
fix             3 all nph x ${pressure} ${pressure} ${pressureDamp}
fix             3 all nph x 6079.5 ${pressure} ${pressureDamp}
fix             3 all nph x 6079.5 6079.5 ${pressureDamp}
fix             3 all nph x 6079.5 6079.5 1
fix             4 all temp/csvr ${temperature} ${temperature} ${tempDamp} ${seed}
fix             4 all temp/csvr 270 ${temperature} ${tempDamp} ${seed}
fix             4 all temp/csvr 270 270 ${tempDamp} ${seed}
fix             4 all temp/csvr 270 270 0.1 ${seed}
fix             4 all temp/csvr 270 270 0.1 745823

run             40000000 upto

CITE-CITE-CITE-CITE-CITE-CITE-CITE-CITE-CITE-CITE-CITE-CITE-CITE

Your simulation uses code contributions which should be cited:

- USER-DEEPMD package:

@article{Wang_ComputPhysCommun_2018_v228_p178,
  author = {Wang, Han and Zhang, Linfeng and Han, Jiequn and E, Weinan},
  doi = {10.1016/j.cpc.2018.03.016},
  url = {https://doi.org/10.1016/j.cpc.2018.03.016},
  year = 2018,
  month = {jul},
  publisher = {Elsevier {BV}},
  volume = 228,
  journal = {Comput. Phys. Commun.},
  title = {{DeePMD-kit: A deep learning package for many-body potential energy representation and molecular dynamics}},
  pages = {178--184}
}

CITE-CITE-CITE-CITE-CITE-CITE-CITE-CITE-CITE-CITE-CITE-CITE-CITE

Generated 0 of 1 mixed pair_coeff terms from geometric mixing rule
Neighbor list info ...
  update every 10 steps, delay 0 steps, check no
  max neighbors/atom: 2000, page size: 100000
  master list distance cutoff = 8
  ghost atom cutoff = 8
  binsize = 4, bins = 12 6 6
  1 neighbor lists, perpetual/occasional/extra = 1 0 0
  (1) pair deepmd, perpetual
      attributes: full, newton on
      pair build: full/bin
      stencil: full/bin/3d
      bin: standard
Per MPI rank memory allocation (min/avg/max) = 6.146 | 6.149 | 6.151 Mbytes
   Step          Temp          PotEng         TotEng         E_pair         E_mol          Press            Lx             Ly             Lz           Volume          Pxx            Pyy            Pzz            Pxy            Pxz            Pyz      
  39626500   269.32519     -347.44886     -268.52776     -347.44886      0              3475.293       45.520124      20.047001      20.857         19032.888      3448.9311      4550.4686      2426.4793      602.8184      -747.85794      665.85758    
  39627000   277.21728     -349.13103     -267.89728     -349.05713      0              6025.0191      45.617796      20.047001      20.857         19073.727      5805.8403      7201.1405      5068.0766     -1685.6703      1609.1942      547.02485    
  39627500   263.89678     -346.14155     -268.81115     -346.10342      0              4779.6156      46.049633      20.047001      20.857         19254.286      6712.3128      4441.6111      3184.9229      98.71638       1183.384       657.45741    
  39628000   271.24898     -348.8075      -269.32267     -348.73898      0              4330.7678      46.007495      20.047001      20.857         19236.668      3992.9311      4351.4372      4647.935       69.310739     -1713.2107      897.23922    
  39628500   273.14702     -346.64316     -266.60214     -346.56647      0              4800.8659      45.623833      20.047001      20.857         19076.251      6921.0377      1604.0702      5877.4897     -359.37492      1414.2881      1533.1137    
  39629000   267.2908      -343.97881     -265.65385     -343.92114      0              4079.2908      45.653556      20.047001      20.857         19088.679      5249.3951      3575.5047      3412.9726     -757.2771      -2391.0554      264.09927    
  39629500   267.1294      -344.67746     -266.3998      -344.60703      0              6365.0815      45.924744      20.047001      20.857         19202.068      5656.8663      7170.5139      6267.8642      63.657957     -660.91035      2109.5073    
  39630000   263.28224     -345.84684     -268.69652     -345.75869      0              6342.0375      45.909057      20.047001      20.857         19195.509      7973.9506      4252.2013      6799.9606     -131.3704       91.185805      946.58698    
  39630500   259.29302     -344.71268     -268.73133     -344.63761      0              4465.2451      45.637052      20.047001      20.857         19081.778      4767.2902      3296.0913      5332.3536     -618.23869     -489.39027     -1263.2981    
  39631000   272.20578     -348.96686     -269.20165     -348.90677      0              6541.4359      45.649387      20.047001      20.857         19086.936      7377.5339      6168.1092      6078.6645     -543.52969     -2479.4236      1034.9294    
  39631500   262.52523     -345.05851     -268.13002     -345.06769      0              5130.8593      45.683289      20.047001      20.857         19101.11       7662.7962      3719.7434      4010.0383      557.80957     -196.40347      526.52198    
  39632000   265.95289     -348.17259     -270.23968     -348.08159      0              5086.0674      45.699211      20.047001      20.857         19107.768      5589.2133      7104.426       2564.5629     -409.34328     -811.66969      145.11188    
  39632500   267.59128     -347.62946     -269.21646     -347.5597       0              6014.5244      45.59008       20.047001      20.857         19062.138      5394.2918      5498.8017      7150.4799      1042.4392      1489.2318      628.52864    
  39633000   271.02906     -350.16816     -270.74777     -350.1468       0              6176.1796      45.410687      20.047001      20.857         18987.13       6281.111       6723.3951      5524.0327      1454.0637     -1943.8911     -787.16925    
  39633500   268.54663     -346.24853     -267.55557     -346.1716       0              4885.3007      45.408359      20.047001      20.857         18986.157      5083.1238      3974.014       5598.7644      293.8461       1195.4539     -354.57019    
  39634000   273.35973     -348.27722     -268.17387     -348.21151      0              5848.4228      45.739931      20.047001      20.857         19124.793      6991.2329      5709.1969      4844.8386     -1113.1139      534.20981     -271.36538    
  39634500   276.61236     -352.49745     -271.44097     -352.39484      0              5029.0957      45.865319      20.047001      20.857         19177.221      7359.9842      3594.0821      4133.2208      1327.6686      793.40054     -24.373371    
  39635000   268.33309     -348.83295     -270.20257     -348.79032      0              1859.6154      45.733071      20.047001      20.857         19121.925      1997.7015      1240.8062      2340.3386     -2046.4329     -624.27822      311.01566    
  39635500   275.91249     -347.71023     -266.85884     -347.61287      0              7342.2509      45.542822      20.047001      20.857         19042.379      10708.052      5766.8869      5551.8137     -210.74743     -132.82802     -605.96714    
  39636000   273.66015     -348.14199     -267.9506      -348.05915      0              5559.8454      45.600303      20.047001      20.857         19066.412      5863.8341      5502.3398      5313.3623      670.63795      259.99235      1424.1721    
  39636500   275.67116     -348.30174     -267.52106     -348.1937       0              5794.2994      45.649902      20.047001      20.857         19087.151      4901.9362      6765.8074      5715.1545      536.87701      590.7369      -1318.8363    
  39637000   284.93431     -347.54713     -264.05205     -347.45066      0              5739.4135      45.761803      20.047001      20.857         19133.939      5815.0837      6277.7948      5125.362       227.26142      77.635656     -1219.4107    
  39637500   269.50701     -347.21116     -268.23678     -347.12261      0              3466.8993      45.850967      20.047001      20.857         19171.22       4101.2201      3058.9265      3240.5512     -336.78511     -949.51792     -778.30211    
  39638000   278.33827     -352.34605     -270.78383     -352.22198      0              4573.3889      45.777063      20.047001      20.857         19140.319      5231.7885      4028.3182      4460.0601     -672.19789     -12.789895     -411.351      
  39638500   275.65042     -348.95673     -268.18213     -348.89346      0              5358.8037      45.895174      20.047001      20.857         19189.704      6133.075       4057.0581      5886.2779      498.47736     -283.30204     -374.01637    
  39639000   277.75118     -348.35424     -266.96405     -348.23898      0              4948.4747      45.919518      20.047001      20.857         19199.883      5355.7619      5705.1679      3784.4944      2300.4503      1974.3575     -16.996283    
  39639500   276.65363     -347.53038     -266.46181     -347.43342      0              5598.697       45.93061       20.047001      20.857         19204.521      7631.6137      6950.5225      2213.9549      16.398867     -281.5894      -439.93594    
  39640000   267.51219     -348.16448     -269.77465     -348.07476      0              5546.2316      46.030121      20.047001      20.857         19246.128      8644.2518      3235.4443      4758.9987      530.32671     -1049.3175      1071.2667    
  39640500   265.19239     -348.82257     -271.11252     -348.73678      0              7846.8933      45.880309      20.047001      20.857         19183.489      8241.7245      7957.5417      7341.4137      1016.6598      2896.7711     -1992.6647    
  39641000   263.80701     -349.38363     -272.07954     -349.33988      0              4828.3656      45.807032      20.047001      20.857         19152.85       7246.8882      3134.9023      4103.3065      573.64098      2404.02       -1655.341     
  39641500   265.95921     -345.50615     -267.57139     -345.47108      0              4474.8182      45.739764      20.047001      20.857         19124.724      4995.6776      5503.2782      2925.4986      1156.1629      218.14321      819.17266    
  39642000   272.51366     -348.36114     -268.50571     -348.31926      0              6217.7886      45.742709      20.047001      20.857         19125.955      7739.7095      4935.4377      5978.2184     -22.974715     -486.69926      954.93289    
  39642500   266.61745     -345.68336     -267.55571     -345.5949       0              3538.2128      45.832814      20.047001      20.857         19163.63       5087.3822      3300.8001      2226.4562      395.97014      1262.7706     -2175.6192    
  39643000   268.63519     -347.21422     -268.49532     -347.13061      0              5003.5571      46.124895      20.047001      20.857         19285.755      5890.6385      6590.1299      2529.903       980.90927      2081.3771      661.91166    
  39643500   262.29381     -345.42139     -268.56071     -345.41372      0              6578.7254      46.177152      20.047001      20.857         19307.604      5912.5059      8203.0222      5620.648      -120.14211     -450.10481     -130.03767    
  39644000   270.33954     -347.82461     -268.60627     -347.76555      0              3866.444       45.72181       20.047001      20.857         19117.217      5747.715       3229.8195      2621.7975      1484.2944      647.87998     -329.6683     
  39644500   264.91847     -350.03471     -272.40492     -350.00235      0              5111.9636      45.643828      20.047001      20.857         19084.611      4261.6091      4857.5073      6216.7745      744.19313     -519.46329     -2319.4132    
  39645000   270.23124     -350.39571     -271.2091      -350.33368      0              4789.1732      46.079475      20.047001      20.857         19266.764      4264.321       6364.5354      3738.6631     -102.59472      1507.3715     -347.50771    
  39645500   265.51712     -348.15047     -270.34526     -348.05537      0              4287.8283      46.012691      20.047001      20.857         19238.84       3654.7283      4863.9021      4344.8546      1298.0579      2188.6618     -1196.2175    
  39646000   270.13922     -349.45337     -270.29374     -349.36466      0              6311.9424      45.737936      20.047001      20.857         19123.959      6229.4391      5771.0468      6935.3413      326.48655     -1641.4848     -383.67838    
  39646500   267.86273     -350.59329     -272.10074     -350.55615      0              4921.9075      45.78633       20.047001      20.857         19144.194      5728.731       3841.8118      5195.1797      2297.8911     -66.888667      1473.2472    
  39647000   266.11377     -348.73714     -270.75709     -348.73205      0              6086.2576      45.830776      20.047001      20.857         19162.778      5696.259       6745.7882      5816.7255      675.37805     -1564.6661      306.7667     
  39647500   269.52951     -350.70493     -271.72396     -350.62514      0              6819.6893      45.678796      20.047001      20.857         19099.232      7742.264       6444.1585      6272.6456     -1779.6882      386.86511      1565.4704    
  39648000   265.04935     -350.25634     -272.5882      -350.1433       0              6538.1165      45.690628      20.047001      20.857         19104.179      4477.4743      8424.2369      6712.6383      102.52303     -984.15459     -563.36117    
  39648500   269.95878     -349.53414     -270.42738     -349.42987      0              6289.9032      45.970344      20.047001      20.857         19221.134      7105.0167      5191.6515      6573.0413     -1470.5412      855.90455      635.85746    
  39649000   273.54864     -349.22552     -269.06681     -349.17202      0              6987.792       46.138983      20.047001      20.857         19291.645      5522.1797      7574.4876      7866.7086     -42.685462      1651.8121     -2142.2466    
  39649500   265.36692     -349.69901     -271.93781     -349.59125      0              4541.9149      45.772341      20.047001      20.857         19138.345      4524.8173      6592.7646      2508.1627     -633.36801     -1565.9526     -1199.3893    
  39650000   271.18133     -348.33863     -268.87362     -348.31816      0              5821.0692      45.49502       20.047001      20.857         19022.391      7441.2681      5102.4732      4919.4663      46.389346     -776.90819     -375.97406    
  39650500   271.18653     -346.63698     -267.17045     -346.58637      0              6425.3186      45.747226      20.047001      20.857         19127.844      7250.225       6240.9971      5784.7338      1279.1558     -946.62031      467.54191    
  39651000   263.13159     -345.47904     -268.37287     -345.3826       0              5881.9375      45.961896      20.047001      20.857         19217.602      7295.0118      3344.0972      7006.7036     -8.8966027     -243.2869      -557.81905    
  39651500   282.66259     -345.85263     -263.02324     -345.79834      0              6402.9545      45.740533      20.047001      20.857         19125.045      8182.7459      6534.8299      4491.2875     -178.72138      993.43087      1749.7387    
  39652000   267.82541     -345.77        -267.28839     -345.7084       0              6114.5679      45.57953       20.047001      20.857         19057.727      8939.9926      5434.5961      3969.1152     -1139.343       1309.6779      166.45405    
  39652500   277.3188      -345.923       -264.65951     -345.88915      0              9365.3929      45.79503       20.047001      20.857         19147.832      8921.0919      9933.5047      9241.5822     -752.61292      1938.9238     -805.24746    
  39653000   267.39834     -348.43226     -270.07579     -348.39154      0              4113.7421      45.869266      20.047001      20.857         19178.871      3886.3372      3767.1583      4687.7307     -552.77565     -559.22767      361.89057    
  39653500   267.59971     -345.58049     -267.16501     -345.51411      0              6579.2367      45.765558      20.047001      20.857         19135.509      6934.4653      6594.8213      6208.4235     -154.53766      378.79139     -575.85207    
  39654000   274.65321     -349.20927     -268.72688     -349.09365      0              5234.489       45.672714      20.047001      20.857         19096.689      7094.7508      4776.2377      3832.4786      405.25249      138.42697      2656.698     
  39654500   268.78627     -349.30438     -270.5412      -349.20006      0              2623.0563      45.777807      20.047001      20.857         19140.63       2755.2796      2740.1866      2373.7028     -431.9662       1393.2092      140.07951    
  39655000   278.68689     -350.19996     -268.53557     -350.06429      0              5070.4534      45.749536      20.047001      20.857         19128.81       4411.5519      7038.2674      3761.5409     -89.05688       404.16129      1217.0896    
  39655500   261.51202     -347.71695     -271.08536     -347.6373       0              7358.6885      45.702828      20.047001      20.857         19109.28       7548.3406      7111.3186      7416.4064      596.19909     -355.15508     -1225.2071    
  39656000   272.79075     -347.83336     -267.89673     -347.75727      0              4796.5336      45.730171      20.047001      20.857         19120.713      5123.6883      3985.927       5279.9857     -619.96284     -785.88278      829.76309    
  39656500   281.93413     -345.98406     -263.36812     -345.89916      0              3702.7889      45.496903      20.047001      20.857         19023.179      2438.5606      3112.643       5557.1631      28.978376      707.86786      727.26293    
  39657000   269.69129     -346.23746     -267.20908     -346.14936      0              7188.4662      45.449056      20.047001      20.857         19003.173      9598.9744      5968.5589      5997.8653     -61.378711     -2464.8228     -329.53484    
  39657500   275.8754      -347.04325     -266.20272     -347.01624      0              4455.6929      45.921312      20.047001      20.857         19200.633      3762.2551      4957.4859      4647.3376      419.18719     -88.414984      1030.3874    
  39658000   274.48908     -349.12792     -268.69363     -349.03576      0              2757.0845      46.071347      20.047001      20.857         19263.366      3784.5028      2512.7163      1974.0343      209.63669     -892.65483      99.99688     
  39658500   274.44029     -349.14958     -268.72959     -349.04658      0              6726.9621      45.582507      20.047001      20.857         19058.972      9951.4546      5073.1775      5156.2541      1138.087      -357.16782     -657.51772    
  39659000   275.54929     -347.47011     -266.72514     -347.3912       0              4933.7464      45.474445      20.047001      20.857         19013.789      4812.1132      4969.4484      5019.6776      239.94839      1093.0641     -259.45852    
  39659500   270.05366     -347.10942     -267.97485     -347.05766      0              3627.0874      45.843688      20.047001      20.857         19168.177      2767.047       3606.4408      4507.7744     -219.9814      -887.21932      538.73161    
  39660000   268.8249      -351.63544     -272.86094     -351.52723      0              4676.9126      45.869935      20.047001      20.857         19179.151      6434.5271      3551.6608      4044.5499      434.39008      666.12494     -543.20648    
  39660500   262.50902     -349.99522     -273.07148     -349.90622      0              7387.9662      45.582582      20.047001      20.857         19059.003      7121.799       6753.0991      8289.0005      116.25146      386.91471      202.94725    
  39661000   265.51106     -350.64871     -272.84527     -350.58834      0              4147.7105      45.503346      20.047001      20.857         19025.873      6235.085       4424.5365      1783.5101     -173.62549      259.77537     -1102.3694    
  39661500   268.27176     -351.63898     -273.02657     -351.53886      0              3887.5586      45.590974      20.047001      20.857         19062.512      2697.2077      3730.9438      5234.5244     -1197.5782     -1107.238       1920.4684    
  39662000   270.40159     -350.71511     -271.47859     -350.63817      0              6662.3751      45.783582      20.047001      20.857         19143.045      7934.3415      5998.5628      6054.2209      983.1327       271.63549     -517.05895    
  39662500   268.31985     -349.32051     -270.69401     -349.21418      0              4330.6618      45.852864      20.047001      20.857         19172.013      6592.9083      3604.0849      2794.9921     -499.67581     -839.33583      717.95781    
  39663000   268.26309     -350.18421     -271.57433     -350.08392      0              7177.3306      45.56151       20.047001      20.857         19050.192      8389.4467      6998.6436      6143.9016      852.01825      1667.9626     -3560.9232    
  39663500   271.76775     -351.3981      -271.76125     -351.33094      0              5945.5682      45.72285       20.047001      20.857         19117.652      6045.2804      5963.1147      5828.3094      1983.3249      208.39991     -184.27348    
  39664000   268.51106     -350.28973     -271.60719     -350.19541      0              3866.8542      46.123472      20.047001      20.857         19285.16       4255.4844      3582.5539      3762.5244      218.38323      690.5325       125.64184    
  39664500   275.17956     -348.64996     -268.01334     -348.55835      0              6121.7256      45.884205      20.047001      20.857         19185.117      6053.739       6647.473       5663.9647      237.44335      1727.3016     -921.24721    
  39665000   275.24883     -348.88949     -268.23257     -348.79134      0              5062.1276      45.406579      20.047001      20.857         18985.412      7034.2808      4532.1514      3619.9506     -1660.669       454.10711     -1134.3717    
  39665500   266.85207     -348.67342     -270.47703     -348.61588      0              3874.6638      45.585918      20.047001      20.857         19060.398      3601.8592      4144.5366      3877.5957      333.95627      1678.1462     -78.555033    
  39666000   278.00412     -348.84701     -267.3827      -348.8265       0              3177.1747      45.869922      20.047001      20.857         19179.146      3175.8587      3818.2525      2537.4127     -864.90258      2477.3209      173.01477    
  39666500   272.41468     -350.66105     -270.83462     -350.60733      0              6626.3101      45.706876      20.047001      20.857         19110.973      6488.0113      7100.2423      6290.6767     -155.47696      1186.972      -929.63087    
  39667000   273.90378     -351.62597     -271.36319     -351.58392      0              4537.5414      45.672848      20.047001      20.857         19096.745      6768.0555      3186.7124      3657.8562     -1211.973      -1605.2457     -459.49857    
  39667500   267.22816     -349.76353     -271.45693     -349.73248      0              4965.5406      45.82103       20.047001      20.857         19158.703      4482.6565      4191.4988      6222.4665     -950.17917      414.46255      1036.7123    
  39668000   266.19066     -347.35377     -269.35119     -347.32186      0              6995.4708      45.815345      20.047001      20.857         19156.326      8572.1924      5117.2195      7297.0006     -76.656728     -508.6986       1167.8114    
  39668500   272.90382     -349.1941      -269.22434     -349.14946      0              3533.1979      45.783249      20.047001      20.857         19142.906      4362.5189      2960.029       3277.0457     -78.802907     -1468.2012     -656.35049    
  39669000   274.75948     -350.1088      -269.59527     -350.056        0              4015.0993      45.800595      20.047001      20.857         19150.158      7180.0221      1081.557       3783.7187      1075.4952      876.03146     -1007.1584    
  39669500   272.5794      -349.31651     -269.44182     -349.18683      0              8170.4146      45.892701      20.047001      20.857         19188.67       8286.106       7811.022       8414.1156      753.66867     -1500.1846      1721.0951    
  39670000   273.80855     -348.97508     -268.74021     -348.85639      0              5248.0149      45.873253      20.047001      20.857         19180.538      5528.2629      4494.9529      5720.829      -1377.6843     -923.84198      681.93124    
  39670500   269.30659     -350.45381     -271.53816     -350.35116      0              5617.8658      45.844538      20.047001      20.857         19168.532      6706.5652      4837.3232      5309.7088      336.89412      1719.9978     -598.14034    
  39671000   266.65128     -348.45653     -270.31898     -348.32836      0              6171.9071      45.908877      20.047001      20.857         19195.434      7753.266       5704.19        5058.2652      1458.7237     -466.01019      1651.4074    
  39671500   270.35773     -351.92252     -272.69885     -351.79301      0              5186.9081      46.01396       20.047001      20.857         19239.371      4838.8429      5941.3351      4780.5462     -864.20936      1714.9952      908.34996    
  39672000   263.9319      -350.498       -273.15731     -350.37535      0              4756.5716      45.911346      20.047001      20.857         19196.466      7416.9938      3556.2238      3296.4973      804.21416     -2239.0069     -1148.1151    
  39672500   267.7753      -348.19653     -269.72959     -348.06741      0              5801.1752      45.57339       20.047001      20.857         19055.159      6071.4405      6491.5778      4840.5072     -911.33111     -1112.9477      635.24466    
  39673000   276.09091     -349.73073     -268.82705     -349.60107      0              2976.1379      45.790951      20.047001      20.857         19146.126      2742.1953      815.3895       5370.8288     -398.32177     -2546.3941     -1368.8901    
  39673500   270.44839     -348.40169     -269.15145     -348.28826      0              5537.3349      46.111506      20.047001      20.857         19280.157      7137.5129      5562.365       3912.1268      2207.1464      129.02583      1769.1218    
  39674000   271.2221      -346.42273     -266.94577     -346.32103      0              4623.2346      45.85553       20.047001      20.857         19173.128      8009.6746      2167.7715      3692.2578      493.30637      229.02526     -1012.6778    
  39674500   266.77154     -348.02662     -269.85382     -347.91172      0              5595.3203      45.796643      20.047001      20.857         19148.506      9142.7107      4838.0933      2805.1569     -920.52243     -238.67679      258.30291    
  39675000   268.39763     -347.6844      -269.03511     -347.58821      0              5623.7503      46.024405      20.047001      20.857         19243.738      6059.4088      5232.727       5579.1152     -137.15802     -1390.8569      451.70247    
  39675500   273.01282     -346.07924     -266.07754     -346.00891      0              4889.9279      45.903078      20.047001      20.857         19193.009      5468.3733      3755.2641      5446.1464      109.02219     -1268.4393     -787.25201    
  39676000   289.263       -347.30003     -262.5365      -347.32243      0              8242.081       45.722799      20.047001      20.857         19117.631      10474.381      6390.4757      7861.3863      1904.6066      2196.8818      960.16384    
  39676500   269.90793     -346.02149     -266.92963     -345.96769      0              3863.4849      45.789367      20.047001      20.857         19145.464      2373.6059      5260.5574      3956.2913     -493.69262      1500.6383      2803.1278    
  39677000   277.74029     -350.37294     -268.98594     -350.28592      0              4487.1187      45.825702      20.047001      20.857         19160.656      5374.5768      3355.6765      4731.1028      11.029554      163.17488     -673.61709    
  39677500   271.05594     -346.73987     -267.3116      -346.64055      0              5502.5549      45.66028       20.047001      20.857         19091.49       5649.2918      5160.7714      5697.6014      98.010883      1822.739       37.147238    
  39678000   273.89997     -348.04862     -267.78696     -347.95639      0              3747.5391      45.609795      20.047001      20.857         19070.381      4965.5003      2911.475       3365.6421     -689.30931     -695.47177      58.372271    
  39678500   277.09277     -351.26036     -270.0631      -351.13055      0              5457.6028      45.578312      20.047001      20.857         19057.217      3470.2281      6076.9145      6825.6657      249.26985      1315.336      -704.70679    
  39679000   271.89041     -347.66029     -267.98749     -347.55979      0              6643.6639      45.486602      20.047001      20.857         19018.872      8774.7954      4505.1203      6651.076      -736.5899       259.3997       108.18795    
  39679500   263.55873     -347.83213     -270.60079     -347.7428       0              2899.2463      45.752647      20.047001      20.857         19130.11       337.36313      3054.2517      5306.1242     -1418.3913      679.19301     -872.70346    
  39680000   278.45737     -352.55527     -270.95815     -352.4298       0              7170.1106      45.483276      20.047001      20.857         19017.481      9907.0923      5367.4778      6235.7617      913.89151     -384.67706     -619.99043    
  39680500   271.22157     -347.37881     -267.90201     -347.25277      0              7771.4096      45.428197      20.047001      20.857         18994.452      7975.9503      5648.5877      9689.6907      1091.5959      893.37996      21.840718    
  39681000   266.58775     -351.61917     -273.50022     -351.5121       0              5251.8356      45.78526       20.047001      20.857         19143.747      5535.1781      4941.6678      5278.6611     -485.478       -475.74242     -1717.6945    
  39681500   275.43512     -349.10201     -268.3905      -348.97691      0              5605.3459      45.791639      20.047001      20.857         19146.414      6061.5797      5900.1133      4854.3446     -73.024685     -232.94929     -273.59967    
  39682000   271.96885     -350.12814     -270.43236     -350.04575      0              6967.3092      45.615543      20.047001      20.857         19072.784      7203.6402      7334.9218      6363.3656      664.52095     -863.05964      1220.2857    
  39682500   278.86418     -348.1219      -266.40556     -348.02453      0              4975.638       45.649487      20.047001      20.857         19086.977      7325.4113      5928.9263      1672.5764      1510.2514     -529.11041      100.28976    
  39683000   270.33489     -348.00045     -268.78348     -347.89809      0              6318.7283      45.717401      20.047001      20.857         19115.373      9179.0698      4455.5693      5321.546       1065.1899     -937.38996      752.89933    
  39683500   266.69881     -350.42956     -272.27808     -350.29981      0              5781.4173      45.647558      20.047001      20.857         19086.171      4083.4046      7554.1364      5706.7109      6.5481586     -1250.6601     -2580.4479    
  39684000   268.56696     -348.66174     -269.96282     -348.62034      0              4240.1417      45.565289      20.047001      20.857         19051.772      4810.0196      3421.9604      4488.445      -1056.1372      328.8343      -1226.5619    
  39684500   266.42319     -349.35995     -271.28923     -349.25218      0              7257.5859      45.658613      20.047001      20.857         19090.793      7139.3974      9069.9485      5563.4118     -26.69157      -31.961389     -1326.4536    
  39685000   273.62971     -348.14667     -267.96421     -348.05304      0              6600.0689      45.655592      20.047001      20.857         19089.53       6549.1836      5630.3354      7620.6877     -151.44935     -4.179299       2446.5933    
  39685500   273.70384     -349.90993     -269.70574     -349.80714      0              7518.9286      45.66855       20.047001      20.857         19094.948      6703.2845      7557.9774      8295.5238      1064.2915      1591.7767     -1811.0764    
  39686000   273.02491     -348.71277     -268.70753     -348.58302      0              5258.8023      45.76501       20.047001      20.857         19135.28       6125.3535      4149.5661      5501.4874      59.782822     -475.02088      1677.9592    
  39686500   273.50183     -350.19037     -270.04538     -350.12074      0              4625.8319      45.722168      20.047001      20.857         19117.367      6215.364       5541.1404      2120.9912      1460.3014      1175.2154     -878.91926    
  39687000   272.08875     -349.39385     -269.66294     -349.26407      0              5721.3059      45.457044      20.047001      20.857         19006.513      6597.772       5186.6183      5379.5274      1256.4336      309.26906      671.19022    
  39687500   270.72884     -349.53676     -270.20434     -349.40696      0              5131.6233      45.547229      20.047001      20.857         19044.221      6568.6108      3392.4499      5433.8091      960.41771      344.91116     -784.51373    
  39688000   271.60869     -347.94268     -268.35244     -347.81297      0              7105.0962      45.631081      20.047001      20.857         19079.281      5228.8042      9051.1614      7035.3231      261.19042      136.90471     -621.33093    
  39688500   268.02403     -346.99146     -268.45164     -346.88932      0              6181.8936      45.801628      20.047001      20.857         19150.591      5176.0902      6867.7886      6501.8022      1502.2472      1112.3327      252.65514    
  39689000   272.63306     -350.56565     -270.67523     -350.46493      0              5543.0476      45.885865      20.047001      20.857         19185.812      5929.7704      3174.518       7524.8543     -156.06849      112.12452     -660.36155    
  39689500   279.70602     -346.41493     -264.45191     -346.34526      0              6089.3151      45.501303      20.047001      20.857         19025.018      7638.7576      6527.9534      4101.2342      729.39143     -1018.1406      2036.2228    
  39690000   282.28242     -352.04554     -269.32754     -351.94262      0              7320.8706      45.4266        20.047001      20.857         18993.784      5129.9145      8339.5094      8493.1881     -1386.3271     -130.86155     -486.96473    
  39690500   277.80073     -347.57446     -266.16975     -347.47466      0              4265.6669      45.703603      20.047001      20.857         19109.604      6251.2263      2287.226       4258.5486      150.18103     -290.72748      1448.4895    
  39691000   272.55177     -350.79416     -270.92757     -350.66981      0              4410.6507      45.812647      20.047001      20.857         19155.198      3958.6567      5329.3787      3943.9166     -116.67054      806.0678      -1134.8668    
  39691500   267.9155      -351.94018     -273.43216     -351.81046      0              5646.198       45.622759      20.047001      20.857         19075.802      5096.498       6974.8173      4867.2786     -253.61709      10.672747      201.17064    
  39692000   267.85313     -350.83373     -272.34399     -350.76866      0              3479.7276      45.427057      20.047001      20.857         18993.975      2666.4102      3945.4738      3827.2988      1680.1463      603.013       -892.96397    
  39692500   273.05036     -347.33277     -267.32007     -347.25098      0              6172.1143      45.685317      20.047001      20.857         19101.958      7455.0251      6537.978       4523.3398      1015.1986     -1512.4833      583.26669    
  39693000   274.42229     -347.05561     -266.64089     -347.01461      0              2417.2278      46.101404      20.047001      20.857         19275.933      4104.6109      677.38512      2469.6875      217.51121     -531.73475      300.7341     
  39693500   272.25457     -350.15683     -270.37732     -350.05259      0              3282.5204      45.91596       20.047001      20.857         19198.395      2743.0256      1797.4981      5307.0376     -546.90217     -217.34893     -217.55985    
  39694000   269.44083     -348.91015     -269.95516     -348.82039      0              7793           45.665223      20.047001      20.857         19093.557      8422.6588      7579.1384      7377.2028     -1123.2619      1481.1722     -1693.2164    
  39694500   266.65402     -349.23568     -271.09732     -349.2333       0              2423.3142      45.802515      20.047001      20.857         19150.961      3069.4773      2355.1842      1845.2811      191.32431     -6.9423693      144.73125    
  39695000   272.1128      -347.92366     -268.18569     -347.8566       0              2779.5225      46.000359      20.047001      20.857         19233.684      1702.7598      4036.7847      2599.0229      433.59779      706.88384      1140.5074    
  39695500   267.99191     -349.85081     -271.32041     -349.81976      0              6314.5002      45.900866      20.047001      20.857         19192.084      5392.3952      6928.0235      6623.0818     -641.02403     -1756.7586      529.59279    
  39696000   272.67681     -349.77839     -269.87516     -349.6928       0              6653.502       45.583517      20.047001      20.857         19059.394      7720.6332      4931.4712      7308.4015      1187.6943      807.40693     -647.14426    
  39696500   265.88527     -349.77169     -271.8586      -349.72408      0              4988.2083      45.729128      20.047001      20.857         19120.277      5194.4721      5501.3585      4268.7944      216.15704      2194.7213     -1230.2153    
  39697000   262.26063     -348.57553     -271.72458     -348.54373      0              4935.0618      45.799442      20.047001      20.857         19149.676      6006.5802      4797.1446      4001.4607     -949.05023     -397.87913      205.54671    
  39697500   268.8443      -350.30409     -271.52391     -350.19364      0              5757.5409      45.647859      20.047001      20.857         19086.296      7470.501       3211.0318      6591.0898     -222.47511     -427.31012      145.42618    
  39698000   274.99994     -349.45767     -268.87369     -349.37607      0              6730.1267      45.465304      20.047001      20.857         19009.966      7160.8129      7278.2077      5751.3594      1105.3804      930.42425     -846.62008    
  39698500   271.58024     -344.87461     -265.2927      -344.83839      0              6848.8047      45.556883      20.047001      20.857         19048.258      4535.4803      7165.4579      8845.4759      505.47712      265.65476      243.23224    
  39699000   271.98524     -349.79333     -270.09275     -349.68746      0              4543.913       45.629333      20.047001      20.857         19078.551      4583.4398      6960.8022      2087.497       822.39995     -1129.9082      332.63284    
  39699500   269.51419     -349.46224     -270.48576     -349.33608      0              4796.6962      45.763218      20.047001      20.857         19134.53       3707.942       4483.9498      6198.1968     -1498.1863     -922.73751      2230.1492    
  39700000   274.61876     -348.20357     -267.73128     -348.12131      0              4592.1168      45.814968      20.047001      20.857         19156.168      6082.7573      6771.4351      922.15791      611.25907     -90.886736     -2626.041     
  39700500   272.03064     -348.10843     -268.39454     -348.00709      0              5233.506       45.82729       20.047001      20.857         19161.32       4840.232       4298.07        6562.2159      1159.9292      663.89967     -1082.5446    
  39701000   273.43784     -349.27971     -269.15347     -349.16727      0              5903.358       45.685102      20.047001      20.857         19101.869      8281.8626      5982.2304      3445.981      -372.51723      1802.1217      934.53754    
  39701500   267.32731     -347.24233     -268.90667     -347.15604      0              5211.3893      45.621127      20.047001      20.857         19075.119      3925.0947      6073.5716      5635.5015     -71.902143     -278.09946     -147.25173    
  39702000   267.57995     -348.83453     -270.42484     -348.74789      0              5960.924       45.645355      20.047001      20.857         19085.249      6909.8089      6130.0773      4842.8859      570.86965     -661.79059      1599.7534    
  39702500   264.6197      -347.96772     -270.42548     -347.92626      0              4440.5114      45.868313      20.047001      20.857         19178.473      4459.3844      4503.3549      4358.7948      1527.6875     -998.62723     -1186.261     
  39703000   260.88574     -351.80526     -275.35719     -351.71213      0              4849.588       45.856287      20.047001      20.857         19173.444      4950.1989      3363.0828      6235.4825      279.25261     -192.92344      800.85019    
  39703500   267.70459     -352.87673     -274.43051     -352.8203       0              6599.9011      45.65567       20.047001      20.857         19089.562      6670.0902      7790.082       5339.531      -1243.4075     -221.57239     -621.87664    
  39704000   264.92845     -349.18163     -271.54891     -349.08589      0              3378.2681      45.857944      20.047001      20.857         19174.137      5936.6721      1170.4553      3027.6768     -1012.0498      1468.9927     -1161.6343    
  39704500   270.43463     -345.93115     -266.68495     -345.85028      0              2934.8382      45.891843      20.047001      20.857         19188.311      4659.801       2669.2052      1475.5084     -1081.5712      733.48325     -741.52608    
  39705000   263.93563     -349.03892     -271.69714     -348.96005      0              5762.1252      45.653263      20.047001      20.857         19088.556      5339.5777      5291.2573      6655.5405     -48.196542     -342.66296      1950.7959    
  39705500   257.0125      -348.57057     -273.25749     -348.46903      0              6067.0407      45.484558      20.047001      20.857         19018.017      4414.8321      5968.3389      7817.951       358.00528     -976.27186     -2561.2611    
  39706000   262.81086     -347.32037     -270.30818     -347.26653      0              6187.9662      45.432131      20.047001      20.857         18996.096      6212.4137      6987.9254      5363.5595      1166.8606     -717.36328      189.4158     
  39706500   268.20548     -348.51991     -269.92692     -348.45721      0              5606.134       45.5156        20.047001      20.857         19030.996      5736.3814      5859.8511      5222.1694     -1992.6305      1742.413       218.10636    
  39707000   264.16349     -347.65425     -270.24569     -347.59335      0              5733.9452      45.521468      20.047001      20.857         19033.45       3238.3722      4490.6003      9472.863      -8.6608346      800.73274     -148.86257    
  39707500   262.06137     -346.71372     -269.92116     -346.67243      0              5180.6711      45.468175      20.047001      20.857         19011.167      6746.1185      4572.7396      4223.1551      388.33499      1191.6423     -1780.3544    
  39708000   268.69248     -349.41113     -270.67544     -349.32084      0              5945.6818      45.755094      20.047001      20.857         19131.133      6215.7658      7916.6923      3704.5872      565.68442      353.66869     -1309.1983    
  39708500   275.52187     -352.53493     -271.798       -352.43064      0              6086.2498      45.862323      20.047001      20.857         19175.968      3855.0894      7361.4792      7042.1809      673.12064      1115.3929      585.57734    
  39709000   274.48401     -346.95105     -266.51825     -346.9006       0              7556.9679      45.614939      20.047001      20.857         19072.532      8877.5107      7581.3361      6212.0569     -289.97548     -545.48601      830.37918    
  39709500   273.39847     -349.67165     -269.55695     -349.59064      0              6485.7815      45.422195      20.047001      20.857         18991.942      5949.9252      6654.8432      6852.5763     -433.11683      736.69874      78.218116    
  39710000   270.30742     -349.6021      -270.39318     -349.52142      0              5576.475       45.565153      20.047001      20.857         19051.716      9326.9349      2971.5271      4430.963       864.4337      -364.04237      1263.4996    
  39710500   276.9969      -347.71575     -266.54659     -347.64662      0              5329.7448      45.953414      20.047001      20.857         19214.055      5539.0505      5079.8412      5370.3428      349.21239     -108.7717      -1935.0305    
  39711000   268.27842     -349.52805     -270.91369     -349.47128      0              6609.5586      45.559948      20.047001      20.857         19049.539      6447.4179      5841.1292      7540.1286     -1592.1368     -361.09873      1138.9536    
  39711500   266.30007     -349.66922     -271.63458     -349.57686      0              6382.0039      45.271584      20.047001      20.857         18928.968      6371.3038      5646.2643      7128.4438     -206.45035      281.65929      350.47874    
  39712000   274.37637     -348.68372     -268.28246     -348.59948      0              4983.85        45.589894      20.047001      20.857         19062.06       5096.4705      4865.3498      4989.7297      1066.4022      1242.3987     -1036.428     
  39712500   273.83093     -349.87011     -269.62868     -349.75352      0              6035.0612      45.686554      20.047001      20.857         19102.476      6051.6639      5351.5508      6701.9689     -513.98652      1919.6718     -258.13275    
  39713000   267.10873     -351.32258     -273.05098     -351.20049      0              5450.4474      45.402874      20.047001      20.857         18983.863      5366.6159      3951.8295      7032.8968      1485.6634      808.95167     -337.01251    
  39713500   268.54801     -349.27671     -270.58335     -349.14784      0              6497.6867      45.246655      20.047001      20.857         18918.545      7301.5389      7630.7302      4560.791      -831.09375      184.43744     -781.29251    
  39714000   270.11166     -349.88876     -270.7372      -349.83992      0              4434.8733      45.661369      20.047001      20.857         19091.945      5461.6524      4329.9093      3513.0582      1460.9213     -527.70981     -155.64099    
  39714500   269.64781     -347.18823     -268.1726      -347.13873      0              5868.3598      45.74663       20.047001      20.857         19127.595      6929.7289      6165.9415      4509.4092      392.86075      70.071686      1111.5026    
  39715000   270.40081     -348.7723      -269.53601     -348.66245      0              6440.6332      45.390287      20.047001      20.857         18978.6        8224.2629      5046.691       6050.9457     -849.20943      371.11377      2651.3309    
  39715500   264.32907     -351.75151     -274.29444     -351.63854      0              5536.9001      45.430927      20.047001      20.857         18995.593      4649.1051      5740.0648      6221.5305     -980.12296      1054.0956      852.13861    
  39716000   261.80882     -351.02316     -274.3046      -350.96041      0              5944.6739      45.689916      20.047001      20.857         19103.882      5996.5466      5157.0332      6680.4417     -651.31525     -733.5588      -890.29396    
  39716500   261.89941     -350.39141     -273.64631     -350.31785      0              4825.8695      45.274092      20.047001      20.857         18930.017      6451.8977      3796.7564      4228.9543      766.7964      -1416.1386     -233.89135    
  39717000   270.32793     -348.06338     -268.84844     -348.00067      0              7778.8243      45.088717      20.047001      20.857         18852.508      8537.8751      6970.8022      7827.7955      82.115567     -865.61611      1604.9345    
  39717500   266.09628     -348.78078     -270.80586     -348.67726      0              5756.0729      45.695745      20.047001      20.857         19106.319      6701.9996      7149.28        3416.9391      94.521622      1673.1296     -674.85603    
  39718000   264.63018     -349.47726     -271.93195     -349.43724      0              4004.1217      45.764787      20.047001      20.857         19135.186      4154.4181      3775.191       4082.7559     -21.235343      703.24315      383.21142    
  39718500   270.35968     -348.00474     -268.7805      -347.9579       0              6022.4995      45.399249      20.047001      20.857         18982.348      5753.7904      7012.0349      5301.6732      591.60826      2066.4232      969.37947    
  39719000   273.69867     -347.111       -266.90832     -347.022        0              6001.0315      45.238801      20.047001      20.857         18915.261      7156.7194      4303.3452      6543.03        1157.7754      1448.6562      373.60703    
  39719500   266.2724      -345.40241     -267.37587     -345.32637      0              2644.4959      45.381948      20.047001      20.857         18975.114      1627.2665      1222.3635      5083.8577     -696.41947      74.438548      260.17132    
  39720000   264.48898     -347.44301     -269.93907     -347.34811      0              3601.4963      45.353318      20.047001      20.857         18963.143      3086.0876      3911.6602      3806.7412     -94.746323      2265.9955      43.926227    
  39720500   268.36677     -347.07143     -268.43117     -346.96635      0              5432.6549      45.328225      20.047001      20.857         18952.651      5126.4653      5335.8454      5835.654       222.7004      -520.17264     -1372.8795    
  39721000   266.04052     -346.63945     -268.68087     -346.52609      0              4181.3908      45.342402      20.047001      20.857         18958.579      3817.5777      4899.3123      3827.2824      425.45969      996.6864      -211.50982    
  39721500   268.58403     -348.5375      -269.83359     -348.4727       0              5972.041       45.434484      20.047001      20.857         18997.08       6965.0587      5711.3312      5239.7331      121.02729     -1002.0344     -72.440364    
  39722000   266.07352     -347.07334     -269.10508     -346.96892      0              9125.2984      45.304976      20.047001      20.857         18942.93       11707.194      7503.9404      8164.7608      1497.7592      1667.4872      633.64754    
  39722500   269.6645      -349.27036     -270.24982     -349.22185      0              5385.156       45.2778        20.047001      20.857         18931.567      7381.5494      4195.185       4578.7336     -1329.544       1895.1841      47.007852    
  39723000   265.57454     -348.36913     -270.54709     -348.3268       0              7172.1065      45.45116       20.047001      20.857         19004.053      9454.1018      2169.9868      9892.2308     -1006.0051      537.58385     -1517.183     
  39723500   267.02207     -347.44374     -269.19753     -347.39333      0              4109.0391      45.431111      20.047001      20.857         18995.67       5038.6292      4837.3457      2451.1424      541.04355      955.27896     -807.9982     
  39724000   272.32034     -349.79532     -269.99654     -349.71567      0              6508.4645      45.126757      20.047001      20.857         18868.413      6497.071       8131.5792      4896.7432     -373.05627      1414.5402      67.475773    
  39724500   272.21687     -349.34798     -269.57952     -349.27722      0              6168.3345      45.456588      20.047001      20.857         19006.322      6205.1319      5758.7462      6541.1254     -306.24751      2205.752      -290.29151    
  39725000   262.67159     -348.24407     -271.27269     -348.23216      0              4903.8534      45.961335      20.047001      20.857         19217.367      4875.237       4646.2356      5190.0878     -743.16216      1450.7747      350.71367    
  39725500   263.80215     -345.69005     -268.38738     -345.67905      0              4109.6027      45.820789      20.047001      20.857         19158.602      3352.1704      3872.4667      5104.171       1558.284      -139.0509       458.5304     
  39726000   275.48502     -345.92882     -265.20269     -345.91177      0              3652.8255      45.547602      20.047001      20.857         19044.377      5757.2963      1287.3032      3913.877      -577.75378      117.20162     -511.94821    
  39726500   267.13413     -344.6303      -266.35125     -344.5876       0              4284.45        45.484447      20.047001      20.857         19017.971      5399.3151      5347.2997      2106.7353      657.03199      1232.8538     -771.59156    
  39727000   273.2339      -347.82606     -267.75957     -347.82645      0              6847.0064      45.449019      20.047001      20.857         19003.157      4405.4888      8284.423       7851.1076      399.65774     -247.12641      246.62672    
  39727500   273.33493     -350.26944     -270.17335     -350.29002      0              4495.9344      45.541344      20.047001      20.857         19041.76       4446.6688      3722.4076      5318.7268      11.168451     -1475.1445      3039.7307    
  39728000   271.31277     -348.93487     -269.43135     -348.89383      0              5980.8834      45.305795      20.047001      20.857         18943.273      5885.8895      6085.4752      5971.2855      220.29576     -1393.3299     -2141.8096    
  39728500   270.68928     -347.90342     -268.5826      -347.84452      0              7136.194       45.135822      20.047001      20.857         18872.203      9792.801       6498.6052      5117.1758     -349.17725      822.05593      744.0874     
  39729000   263.67535     -348.00408     -270.73857     -347.98017      0              7016.473       45.655131      20.047001      20.857         19089.337      7378.0852      6164.7057      7506.6282     -917.76284      49.309077      2631.3538    
  39729500   264.94786     -348.54252     -270.90412     -348.46117      0              3755.3786      45.816546      20.047001      20.857         19156.828      4242.4966      3671.0902      3352.5489      1524.2027     -2142.3805      1358.9335    
  39730000   266.88887     -348.21616     -270.00898     -348.11526      0              6213.9105      45.226816      20.047001      20.857         18910.25       6284.3928      5280.3945      7076.9441     -743.7412      -852.92055      1510.3199    
  39730500   272.1146      -348.33197     -268.59348     -348.26891      0              5688.3704      45.08622       20.047001      20.857         18851.464      6907.9252      4305.4937      5851.6922     -329.96914      3095.5028      236.71646    
  39731000   269.33064     -350.05642     -271.13372     -349.98027      0              6373.7884      45.470367      20.047001      20.857         19012.084      6608.1062      6100.083       6413.1761      644.60353      705.51144     -22.642965    
  39731500   266.94523     -346.25828     -268.03458     -346.16769      0              5238.9552      45.674714      20.047001      20.857         19097.525      5926.1402      5948.2803      3842.4452      58.127737      525.62099      2048.4729    
  39732000   269.41942     -343.78356     -264.83485     -343.70474      0              5648.8039      45.687367      20.047001      20.857         19102.816      6645.392       5350.8045      4950.2153     -972.74336      1310.6419     -699.35024    
  39732500   269.5589      -348.24392     -269.25434     -348.23854      0              4707.9329      45.821665      20.047001      20.857         19158.968      4473.5805      6836.7887      2813.4296     -1689.7434     -360.68559      350.39893    
  39733000   273.99962     -345.93693     -265.64606     -345.89194      0              5611.0185      45.524432      20.047001      20.857         19034.689      7990.0375      5746.3171      3096.7008     -1134.0737      1389.202      -11.635622    
  39733500   272.72598     -348.3628      -268.44516     -348.2782       0              4960.0019      45.566855      20.047001      20.857         19052.427      5865.323       3765.864       5248.8187      83.839636      604.30804      345.14904    
  39734000   275.92896     -346.38359     -265.52737     -346.3398       0              4279.0042      45.711905      20.047001      20.857         19113.075      4365.8537      5097.2643      3373.8945      357.77681     -1208.3887      923.11523    
  39734500   276.42981     -347.03488     -266.03189     -347.04903      0              6145.0278      45.734024      20.047001      20.857         19122.324      8021.81        5380.2606      5033.0127     -109.69691     -10.4462       -954.47252    
  39735000   274.05995     -346.61651     -266.30797     -346.5379       0              5133.5064      45.803083      20.047001      20.857         19151.199      6057.2902      3730.4869      5612.7422      190.85927     -1622.6891     -1309.013     
  39735500   272.83273     -347.89243     -267.94351     -347.84255      0              2512.5444      46.029936      20.047001      20.857         19246.051      3845.8737      1497.7376      2194.022       799.3051      -118.21988     -1439.0756    
  39736000   270.95816     -347.23575     -267.83613     -347.18991      0              6362.8712      45.901733      20.047001      20.857         19192.446      6343.8852      6646.3975      6098.331       80.466566      1092.6299      2178.9401    
  39736500   270.68312     -347.66619     -268.34717     -347.57625      0              7088.2562      45.650734      20.047001      20.857         19087.499      8615.7998      6687.9458      5961.0231      1694.6297     -685.34729     -31.27848     
  39737000   265.98698     -347.66792     -269.72502     -347.6663       0              5539.0844      45.850078      20.047001      20.857         19170.848      6379.2758      3815.1795      6422.7978      362.89162      258.70625     -1942.7002    
  39737500   263.28335     -345.37901     -268.22837     -345.35689      0              4884.6248      45.864557      20.047001      20.857         19176.902      5656.291       4173.6531      4823.9302      1078.3373     -475.46178      233.53818    
  39738000   262.86415     -346.92206     -269.89425     -346.84921      0              4529.3215      45.726617      20.047001      20.857         19119.227      6411.0563      4044.0538      3132.8545      1774.731       2428.8216      530.70576    
  39738500   263.5522      -347.32727     -270.09785     -347.29725      0              5362.194       45.842896      20.047001      20.857         19167.845      4278.3008      5948.8465      5859.4346      809.35374     -1438.366       759.98537    
  39739000   267.566       -347.63447     -269.22887     -347.62243      0              6390.3975      45.902373      20.047001      20.857         19192.714      7084.5103      4876.6885      7209.9937      139.01114     -1138.6192     -740.77045    
  39739500   273.06051     -348.4871      -268.47143     -348.37368      0              6245.4037      45.552245      20.047001      20.857         19046.318      8044.8199      6068.9287      4622.4626     -1336.231       2065.8279      962.99255    
  39740000   268.09022     -344.828       -266.26879     -344.76289      0              4748.0432      45.433215      20.047001      20.857         18996.549      6756.3158      3901.6815      3586.1323      473.17465     -20.533918      1223.7851    
  39740500   270.47331     -346.94622     -267.68869     -346.91351      0              7029.2438      46.025617      20.047001      20.857         19244.245      7395.767       7299.5825      6392.3818     -1397.7792     -606.77834     -560.05688    
  39741000   270.35402     -345.86714     -266.64456     -345.78153      0              3624.3387      46.289437      20.047001      20.857         19354.553      3308.547       2899.845       4664.6241     -1484.0133      3084.4479     -621.84538    
  39741500   273.97589     -346.62268     -266.33877     -346.51139      0              4820.2591      45.800276      20.047001      20.857         19150.025      7210.6269      4170.9741      3079.1763     -1407.9974      106.86899     -494.06983    
  39742000   269.12781     -346.54595     -267.68269     -346.42997      0              6975.6618      45.544177      20.047001      20.857         19042.945      8270.4032      8392.5457      4264.0364     -132.01685      245.11439     -1293.1388    
  39742500   264.67876     -348.39589     -270.83634     -348.32144      0              1672.0065      46.011749      20.047001      20.857         19238.446      2239.0353      1972.7397      804.24453      1646.2978     -146.38105      213.77759    
  39743000   262.37704     -344.81418     -267.92912     -344.77439      0              3746.0181      46.208343      20.047001      20.857         19320.646      3235.6754      5498.7334      2503.6455      751.81812      2342.3372     -1944.579     
  39743500   269.14923     -348.59354     -269.724       -348.49976      0              7429.0254      46.156413      20.047001      20.857         19298.933      8119.324       5865.0895      8302.6627     -7.5204989     -324.55748     -657.07223    
  39744000   257.59215     -347.08884     -271.60591     -347.03902      0              4385.5001      45.956106      20.047001      20.857         19215.181      6880.4637      1245.1004      5030.9362     -8.0842714      555.0413      -304.9519     
  39744500   269.58489     -349.52109     -270.52389     -349.46867      0              4694.0973      45.967407      20.047001      20.857         19219.906      6268.4488      3804.738       4009.1051      1877.411       746.62277      143.95871    
  39745000   264.55944     -346.6643      -269.13971     -346.55555      0              3747.1623      45.910071      20.047001      20.857         19195.933      5404.7018      3479.8252      2356.96       -780.61703      489.12832      1458.6622    
  39745500   275.30125     -348.22893     -267.55665     -348.14423      0              7305.9393      45.715781      20.047001      20.857         19114.696      5975.5799      10179.305      5762.9328     -253.80933     -430.86285      905.82154    
  39746000   271.86489     -348.32683     -268.66152     -348.32305      0              4522.2876      45.664226      20.047001      20.857         19093.14       6308.1915      3719.2335      3539.4379     -1070.8096     -1325.1924      1163.4098    
  39746500   261.79825     -345.78725     -269.07179     -345.70434      0              5307.4692      45.734176      20.047001      20.857         19122.388      4885.1356      4526.2648      6511.0071     -1168.4384     -156.70657      1182.3816    
  39747000   265.96462     -346.9528      -269.01645     -346.91155      0              5154.0454      45.601782      20.047001      20.857         19067.031      4374.6989      6532.5853      4554.852      -585.00074      1781.3719      1535.5958    
  39747500   270.50193     -348.33546     -269.06954     -348.27711      0              5757.4742      45.635812      20.047001      20.857         19081.26       4775.4569      3865.487       8631.4786      260.43411     -769.58888     -283.95878    
  39748000   269.48165     -347.30959     -268.34264     -347.27876      0              8645.1208      45.888799      20.047001      20.857         19187.038      9821.1733      7747.4002      8366.789       588.25398      1890.0455      80.606865    
  39748500   267.86961     -347.59343     -269.09887     -347.5368       0              5029.1184      45.963505      20.047001      20.857         19218.275      6865.0263      703.74645      7518.5826     -778.19333     -1473.884       1777.5843    
  39749000   276.7173      -348.89673     -267.8095      -348.83455      0              5897.0835      45.741557      20.047001      20.857         19125.473      7300.9939      5833.7951      4556.4615     -171.26657     -70.983675     -2358.348     
  39749500   269.85437     -348.75559     -269.67942     -348.73225      0              6115.5317      45.572117      20.047001      20.857         19054.627      7473.8071      5811.89        5060.8979      1347.5029      246.4985       1777.3452    
  39750000   266.67504     -346.29512     -268.1506      -346.25221      0              6829.2992      45.432805      20.047001      20.857         18996.378      6405.9313      6589.3355      7492.6308     -1788.0182      567.67656     -40.633219    
  39750500   271.57819     -347.32342     -267.74211     -347.27528      0              3865.9552      45.585791      20.047001      20.857         19060.345      4991.6995      3466.0192      3140.1469     -469.40877      1112.5473      389.86267    
  39751000   266.86973     -346.22931     -268.02774     -346.23789      0              5177.1321      45.716715      20.047001      20.857         19115.087      4920.8432      5528.2971      5082.2561      930.41945      2019.3044     -1122.9123    
  39751500   277.40642     -346.50427     -265.21511     -346.47748      0              2901.7708      45.807516      20.047001      20.857         19153.052      2899.266       1603.8082      4202.2381     -411.4022       667.28422      496.85677    
  39752000   271.86481     -347.50518     -267.83988     -347.45944      0              6310.6517      45.854628      20.047001      20.857         19172.751      8163.5451      1525.2203      9243.1897     -371.22722     -1347.148       465.00893    
  39752500   279.16944     -347.54006     -265.73427     -347.48333      0              5041.7752      45.863661      20.047001      20.857         19176.527      5077.5124      5557.1288      4490.6844     -960.6147      -2956.9082      628.22614    
  39753000   265.0921      -347.90721     -270.22654     -347.87085      0              6627.8184      45.610473      20.047001      20.857         19070.665      9199.559       5395.3488      5288.5474     -19.218356      1516.3469     -1252.8654    
  39753500   269.87037     -347.86026     -268.7794      -347.86258      0              3743.1751      45.873812      20.047001      20.857         19180.772      5291.7044      3780.2241      2157.5968     -618.21226     -510.07207     -542.3854     
  39754000   266.1256      -346.98869     -269.00518     -346.97363      0              5434.1648      46.120518      20.047001      20.857         19283.925      7033.938       3896.1219      5372.4346      438.67267      1192.7093     -355.99647    
  39754500   272.62718     -349.32704     -269.43835     -349.25908      0              6095.564       45.614453      20.047001      20.857         19072.329      6270.018       5115.7181      6900.956      -433.65323     -1880.7198     -34.596025    
  39755000   273.80088     -349.18333     -268.95071     -349.14357      0              5663.9707      45.310667      20.047001      20.857         18945.31       7084.6326      5684.6665      4222.613       1287.4248      83.955719     -703.35364    
  39755500   265.27532     -347.29869     -269.56433     -347.32367      0              4599.1431      45.660373      20.047001      20.857         19091.529      6041.9813      2144.1807      5611.2672      961.6168      -787.60751     -813.86294    
  39756000   272.44159     -348.09408     -268.25978     -348.05857      0              5082.6459      45.855259      20.047001      20.857         19173.015      4987.0709      3599.0699      6661.797      -364.75238     -787.26978     -487.24843    
  39756500   264.772       -347.62905     -270.04219     -347.58309      0              3628.3618      45.663565      20.047001      20.857         19092.864      5376.7923      1972.5345      3535.7585     -934.72867      1768.9461     -1310.3154    
  39757000   276.10925     -347.93479     -267.02574     -347.92562      0              6456.8849      45.548034      20.047001      20.857         19044.558      6817.0646      6511.4458      6042.1443      1672.9399     -1055.6118     -567.68985    
  39757500   263.45314     -349.04895     -271.84855     -349.03186      0              6644.8472      45.652241      20.047001      20.857         19088.129      7561.0484      6252.7636      6120.7296      677.7829      -844.80549     -327.78723    
  39758000   268.71384     -350.84429     -272.10234     -350.83686      0              2037.6512      45.725164      20.047001      20.857         19118.619      3957.906      -305.22324      2460.2707      421.81455      1093.2337     -40.386795    
  39758500   268.85835     -348.86082     -270.07652     -348.84118      0              2457.4576      45.717887      20.047001      20.857         19115.577      2902.264       1199.0146      3271.0941      400.52221     -78.533066     -9.1271389    
  39759000   269.54286     -346.50764     -267.52275     -346.45814      0              4785.0662      45.600102      20.047001      20.857         19066.328      6381.0636      5014.1383      2959.9966      331.49981     -193.60678     -239.85657    
  39759500   269.88806     -346.22016     -267.13411     -346.13261      0              4278.497       45.536007      20.047001      20.857         19039.529      5132.4267      4905.7099      2797.3542     -87.507378     -1374.3659      1629.5369    
  39760000   265.58042     -348.42582     -270.60206     -348.31984      0              5367.4952      45.599034      20.047001      20.857         19065.882      6199.8923      4914.2131      4988.3803     -1629.3048     -931.22061     -544.07342    
  39760500   270.14618     -351.99217     -272.83049     -351.92231      0              4781.3058      45.594779      20.047001      20.857         19064.102      7066.6422      3535.3529      3741.9222     -691.3162      -111.18826      964.01258    
  39761000   272.12442     -349.64512     -269.90376     -349.54589      0              6035.0268      45.534633      20.047001      20.857         19038.954      5296.4271      6623.0735      6185.5797     -110.41734      862.14115     -228.01432    
  39761500   262.50322     -351.05401     -274.13197     -350.93135      0              2878.2699      45.849624      20.047001      20.857         19170.659      3946.9825      1593.8674      3093.9599     -2683.6664      392.28025     -229.51887    
  39762000   266.77473     -350.31752     -272.14379     -350.23864      0              6716.3558      45.666541      20.047001      20.857         19094.108      6806.8         7988.4869      5353.7804     -705.52343      2006.3342      2138.5012    
  39762500   270.20761     -350.27859     -271.09891     -350.17726      0              5931.6839      45.424327      20.047001      20.857         18992.833      8296.4876      4905.6895      4592.8745     -618.03521      846.40416      975.01526    
  39763000   268.65744     -349.41735     -270.69192     -349.31893      0              6167.4826      45.542924      20.047001      20.857         19042.421      6039.871       6074.9074      6387.6694     -1076.5728     -448.22597      424.16236    
  39763500   267.18684     -347.91182     -269.61733     -347.84517      0              4530.9666      45.688321      20.047001      20.857         19103.215      4233.5787      4970.5561      4388.7649     -2717.7641      108.0406       1044.3228    
  39764000   272.79784     -346.86372     -266.92502     -346.80902      0              6919.284       45.689702      20.047001      20.857         19103.792      7700.8582      7568.508       5488.4856      879.82412      1184.6623      1622.4152    
  39764500   275.34076     -349.65262     -268.96876     -349.59899      0              5031.7513      45.754082      20.047001      20.857         19130.711      4051.981       6396.6725      4646.6004     -935.37374     -834.02943     -1094.1779    
  39765000   269.24104     -349.66183     -270.76539     -349.62171      0              6271.2494      45.803818      20.047001      20.857         19151.506      7089.4235      3946.2221      7778.1025     -1228.1906     -397.63593      1296.3463    
  39765500   264.43085     -352.74313     -275.25623     -352.65891      0              4661.8036      45.818897      20.047001      20.857         19157.811      3137.4291      7566.705       3281.2768      167.41974      1256.8136      597.41759    
  39766000   270.3537      -349.57299     -270.3505      -349.5051       0              5800.0674      45.931478      20.047001      20.857         19204.883      6572.8475      7085.2137      3742.141       75.881362     -1413.397      -57.845204    
  39766500   274.66415     -349.30057     -268.81498     -349.26934      0              7670.4874      45.874727      20.047001      20.857         19181.155      8754.1819      7520.2124      6737.0677      27.544025      1015.3674      546.43169    
  39767000   276.89443     -349.45511     -268.31597     -349.36594      0              5403.8895      45.788822      20.047001      20.857         19145.236      6225.6416      4148.9596      5837.0675     -1413.197      -629.31004     -1738.5299    
  39767500   267.73632     -349.11899     -270.66348     -349.01948      0              4911.9553      45.797973      20.047001      20.857         19149.062      5168.1794      4013.6809      5554.0056     -1145.6531      1788.174      -259.66062    
  39768000   270.96549     -350.78779     -271.38602     -350.72373      0              5460.7913      45.845087      20.047001      20.857         19168.762      6834.7654      5710.1475      3837.4608      1236.0514     -1213.9909      562.52366    
  39768500   270.86455     -349.9279      -270.55572     -349.87705      0              7038.1642      45.64542       20.047001      20.857         19085.277      7990.7034      5870.5763      7253.2128     -566.97844      646.74015      927.27063    
  39769000   271.32166     -348.7437      -269.23756     -348.71292      0              6295.5314      45.633252      20.047001      20.857         19080.189      7114.8759      5509.8739      6261.8445      71.668529     -104.32875      1407.1299    
  39769500   263.91908     -347.91305     -270.57612     -347.86407      0              6973.3245      45.959835      20.047001      20.857         19216.74       8970.4702      5516.1983      6433.3048     -1229.1425      1442.6681      640.49422    
  39770000   269.39088     -348.09161     -269.15126     -348.02884      0              6612.3451      46.18571       20.047001      20.857         19311.183      6848.985       6106.1426      6881.9078     -760.65892     -454.15545     -358.89919    
  39770500   273.53597     -348.9055      -268.7505      -348.86682      0              5649.8944      45.803917      20.047001      20.857         19151.548      6749.9775      4686.666       5513.0397     -210.42681      442.66895      61.660143    
  39771000   265.4932      -346.18065     -268.38245     -346.16643      0              6677.3902      45.513955      20.047001      20.857         19030.308      9415.8203      3576.7969      7039.5533     -646.98608     -1581.6987      678.55062    
  39771500   269.40057     -347.87507     -268.93188     -347.84935      0              7536.3541      45.410703      20.047001      20.857         18987.137      7299.9886      8163.148       7145.9256      1211.3129     -63.465879      544.01219    
  39772000   267.97781     -347.4324      -268.90612     -347.44714      0              4290.4745      45.289817      20.047001      20.857         18936.592      5266.963       2931.8415      4672.6191      352.25441      3150.0242      526.64393    
  39772500   273.27599     -350.42969     -270.35088     -350.35786      0              6560.8498      45.412446      20.047001      20.857         18987.865      8651.2804      4920.158       6111.1111     -718.77744     -1357.8303     -328.4082     
[...]
  39964500   262.11187     -347.67076     -270.8634      -347.69855      0              4399.0027      45.734595      20.047001      20.857         19122.563      3464.8809      4126.0002      5606.1269      275.38378     -1693.9881     -357.02002    
  39965000   269.88779     -348.07339     -268.98743     -348.01876      0              6841.3096      45.793909      20.047001      20.857         19147.363      9115.297       5853.9708      5554.6611      350.63119      264.50476     -448.47768    
  39965500   275.70724     -346.53377     -265.74252     -346.41359      0              5957.9194      45.707351      20.047001      20.857         19111.171      8273.8327      4559.0966      5040.829      -1381.9211     -106.78371     -417.47188    
  39966000   271.17754     -345.11057     -265.64667     -345.02349      0              5294.2977      45.52844       20.047001      20.857         19036.365      6121.0705      5962.4196      3799.403      -71.914342     -1174.2559      809.91312    
  39966500   278.68394     -346.83186     -265.16834     -346.71506      0              6019.1513      45.582444      20.047001      20.857         19058.945      5348.1385      7150.8911      5558.4242      71.181235      103.54451      1545.7304    
  39967000   271.79332     -344.32436     -264.68002     -344.23535      0              5633.9256      45.807832      20.047001      20.857         19153.185      7684.4362      3148.7705      6068.5702      142.54307     -2023.834      -85.144333    
  39967500   270.7196      -347.07683     -267.74712     -346.95318      0              4385.9793      45.710744      20.047001      20.857         19112.59       4203.9141      3012.4544      5941.5693      1650.1936     -575.25346      79.314046    
  39968000   268.23103     -347.1195      -268.51902     -347.03738      0              6623.4081      45.422239      20.047001      20.857         18991.96       7783.6665      6720.8152      5365.7426      580.41962      820.48973     -1118.1434    
  39968500   269.54927     -346.31358     -267.32681     -346.21734      0              6776.9002      45.606211      20.047001      20.857         19068.883      6591.0234      5865.4106      7874.2666     -52.508258      898.95278     -421.51974    
  39969000   264.30023     -345.06781     -267.61919     -344.99732      0              3349.0306      46.250503      20.047001      20.857         19338.274      2512.711       3860.9491      3673.4318     -1618.638      -476.88496     -1652.1544    
  39969500   268.79545     -346.02023     -267.25436     -345.94259      0              4504.2365      45.864446      20.047001      20.857         19176.856      2192.655       4799.7677      6520.2866     -321.78867      1091.2544     -585.49282    
  39970000   260.88464     -345.37473     -268.92699     -345.24569      0              5387.1868      45.398435      20.047001      20.857         18982.007      8082.5159      3810.7337      4268.3107     -249.47944     -137.13869      391.3396     
  39970500   260.43323     -346.85581     -270.54035     -346.75783      0              3700.143       45.548644      20.047001      20.857         19044.813      4711.9456      4019.1785      2369.3047      225.45573     -259.44881     -1046.3085    
  39971000   275.69426     -350.96221     -270.17477     -350.84595      0              5468.5565      45.63276       20.047001      20.857         19079.983      4971.9233      5871.7809      5561.9653     -737.99592     -1571.3364      139.35213    
  39971500   263.76382     -346.53694     -269.2455      -346.41689      0              4912.5851      45.535611      20.047001      20.857         19039.363      5460.8629      5156.054       4120.8384     -562.8621      -353.58296     -1702.8992    
  39972000   272.55682     -348.12365     -268.25558     -347.99575      0              4703.9762      45.585874      20.047001      20.857         19060.379      4971.0589      4478.5156      4662.3541     -505.35668      198.49544     -266.49982    
  39972500   266.30392     -348.33527     -270.2995      -348.28012      0              3356.8945      45.763102      20.047001      20.857         19134.482      3312.9232      2306.5726      4451.1878     -803.06395      430.30809      1345.008     
  39973000   260.60181     -346.10217     -269.73731     -345.97283      0              6611.2163      45.733032      20.047001      20.857         19121.909      6448.3628      6737.3672      6647.9188      1017.9409     -228.34205     -313.89446    
  39973500   267.34487     -347.65557     -269.31477     -347.52916      0              6959.0436      45.862443      20.047001      20.857         19176.019      7327.3495      4978.9775      8570.8039     -57.096798      2323.1582     -545.54632    
  39974000   274.30049     -347.75872     -267.37969     -347.64357      0              6061.2594      45.844457      20.047001      20.857         19168.498      6281.6382      4960.7258      6941.4142      1236.2844     -796.74957     -1542.8392    
  39974500   261.80128     -348.86484     -272.14849     -348.76716      0              5616.1546      45.662803      20.047001      20.857         19092.545      5902.059       6028.4796      4917.9253      1305.6511      981.97461      431.48981    
  39975000   262.78013     -347.97049     -270.9673      -347.87553      0              7743.1665      45.582762      20.047001      20.857         19059.078      6911.1157      7104.3026      9214.0813     -1104.9463     -151.86965     -372.98789    
  39975500   270.18685     -349.00825     -269.83466     -348.91323      0              3254.5526      45.765739      20.047001      20.857         19135.584      5638.7249      2560.1565      1564.7764      191.72951      49.618518     -7.941977     
  39976000   271.77451     -345.46106     -265.82223     -345.35797      0              6703.3619      45.639905      20.047001      20.857         19082.971      6136.7238      6340.3728      7632.989       2422.2854     -1243.5653      530.36784    
  39976500   270.57337     -348.69438     -269.40752     -348.56485      0              5651.0621      45.692858      20.047001      20.857         19105.112      8090.1784      4094.5131      4768.495      -601.01077     -681.65723     -122.5734     
  39977000   271.57505     -346.23373     -266.65335     -346.14653      0              4602.8505      46.017985      20.047001      20.857         19241.054      3509.9074      4893.8412      5404.8028      599.62057      1527.2178     -159.43021    
  39977500   267.00582     -347.55485     -269.3134      -347.47447      0              4660.6817      45.944492      20.047001      20.857         19210.325      6838.3586      1890.0695      5253.6171     -703.98225      612.5303      -396.45764    
  39978000   268.58128     -344.90139     -266.19828     -344.80722      0              7429.1427      45.774475      20.047001      20.857         19139.237      6600.7373      7340.6563      8346.0345     -1342.3298      1034.4838     -56.763254    
  39978500   275.15882     -348.74309     -268.11255     -348.63337      0              5041.3237      45.807046      20.047001      20.857         19152.856      5304.0356      6080.3229      3739.6125     -581.12179      1199.2267      126.75764    
  39979000   269.97121     -350.49841     -271.388       -350.41426      0              4656.4543      46.126163      20.047001      20.857         19286.285      3828.3918      3362.9623      6778.0087     -199.34632      1443.8863      344.93914    
  39979500   263.00488     -350.18162     -273.11257     -350.08768      0              6161.3233      45.876995      20.047001      20.857         19182.103      6795.5356      5395.8349      6292.5993     -1047.2069      665.93314     -156.92542    
  39980000   268.15793     -350.98274     -272.40368     -350.87636      0              6165.0687      45.452362      20.047001      20.857         19004.555      6094.8863      5546.3296      6853.9903      112.0157      -1230.4446      342.77886    
  39980500   273.55134     -348.7076      -268.5481      -348.59804      0              4705.3106      45.617899      20.047001      20.857         19073.77       6287.635       6420.4315      1407.8653      244.50638      1677.4677      2221.7468    
  39981000   279.16044     -348.97973     -267.17658     -348.91207      0              3688.8462      46.031515      20.047001      20.857         19246.711      686.72673      3386.2537      6993.5582     -130.19347      704.84072      423.5393     
  39981500   268.76233     -347.69113     -268.93497     -347.57738      0              3056.0771      46.052753      20.047001      20.857         19255.591      4046.11        2741.548       2380.5734      1955.3478      207.62903     -506.66579    
  39982000   263.8744      -348.50879     -271.18495     -348.40143      0              5306.2048      45.478489      20.047001      20.857         19015.479      7098.9595      5339.9164      3479.7384      852.16881     -1115.1267     -1274.6478    
  39982500   269.65575     -348.88471     -269.86674     -348.78532      0              5520.5049      45.526437      20.047001      20.857         19035.527      6194.6146      6786.9688      3579.9313     -232.23157     -192.66553      311.51037    
  39983000   273.88077     -347.99161     -267.73558     -347.88312      0              5151.1587      45.970623      20.047001      20.857         19221.251      4946.4122      4910.1262      5596.9376      45.879596      418.96634      1950.5928    
  39983500   278.76234     -350.41872     -268.73223     -350.29777      0              4879.5361      45.778896      20.047001      20.857         19141.086      4598.346       3279.2452      6761.0171      806.1395       675.57918      1003.1138    
  39984000   269.27524     -346.20559     -267.29913     -346.1179       0              5657.9093      45.722348      20.047001      20.857         19117.442      8186.5198      4578.6737      4208.5343     -563.27998      1807.3845      528.21948    
  39984500   269.97753     -350.79629     -271.68403     -350.67233      0              5654.9433      45.827169      20.047001      20.857         19161.27       5863.5512      4524.9447      6576.3339      648.36885      1007.5783     -1673.1835    
  39985000   265.05953     -349.00426     -271.33313     -348.93396      0              6642.2731      45.934961      20.047001      20.857         19206.34       7154.7752      6909.1322      5862.912       357.34195      62.687721      1009.5126    
  39985500   269.87018     -347.92996     -268.84916     -347.90425      0              5426.7008      45.803508      20.047001      20.857         19151.377      6613.4195      3827.2057      5839.4771     -170.59055      328.32479      280.99714    
  39986000   271.66457     -346.95896     -267.35235     -346.93628      0              4875.9158      45.808495      20.047001      20.857         19153.462      7021.8385      2389.973       5215.9359      374.48959      294.49438     -884.44861    
  39986500   266.63879     -348.33673     -270.20284     -348.23673      0              3841.9261      45.943168      20.047001      20.857         19209.771      4292.7079      4295.6053      2937.465       985.63183      1130.2892      771.91159    
  39987000   269.75762     -350.00738     -270.95956     -349.90892      0              4980.0262      45.705362      20.047001      20.857         19110.34       5774.1836      3996.1455      5169.7494     -352.25968      961.53481     -318.33407    
  39987500   270.66687     -349.4307      -270.11644     -349.30795      0              4230.0385      45.868605      20.047001      20.857         19178.595      4843.686       4278.7444      3567.6851      1834.2963     -1457.5011      663.9211     
  39988000   267.02755     -346.95329     -268.70547     -346.86121      0              4279.2318      45.803456      20.047001      20.857         19151.355      5497.3884      3163.2844      4177.0225     -1495.6323      7.2111692     -527.9        
  39988500   271.15212     -348.87863     -269.42218     -348.79169      0              8138.3587      45.451468      20.047001      20.857         19004.182      12301.221      6704.9194      5408.9357      1127.4939     -461.59822      604.5217     
  39989000   274.61192     -346.54504     -266.07475     -346.4996       0              6256.6568      45.838837      20.047001      20.857         19166.148      5902.0036      7339.7518      5528.2149      184.12947     -1308.5378      438.38564    
  39989500   277.64973     -350.37037     -269.0099      -350.25982      0              6089.2326      46.109481      20.047001      20.857         19279.31       6311.1553      5614.755       6341.7873      535.8429       29.56215      -861.89072    
  39990000   276.62203     -348.8161      -267.75679     -348.73         0              5957.982       46.048065      20.047001      20.857         19253.631      6768.6254      5483.2884      5622.0323      489.26512      1149.7638     -3605.1487    
  39990500   275.97734     -348.38511     -267.51471     -348.29255      0              5987.1389      45.789033      20.047001      20.857         19145.324      7661.9158      5550.6321      4748.8687      320.39858      900.99468      1134.3088    
  39991000   264.41946     -346.07139     -268.58783     -345.97184      0              5811.3351      45.715721      20.047001      20.857         19114.671      6176.7337      5460.3676      5796.9041     -1866.7953      908.17434     -2145.6843    
  39991500   270.07011     -347.61444     -268.47505     -347.59144      0              4970.2726      45.880067      20.047001      20.857         19183.387      5134.5082      4739.8891      5036.4205     -434.98817      120.14289     -732.83412    
  39992000   267.95112     -348.00905     -269.49059     -347.95867      0              3479.8001      45.852471      20.047001      20.857         19171.849      4756.2432      142.26027      5540.8969      761.09168     -1496.4604     -448.7781     
  39992500   275.35465     -347.37536     -266.68743     -347.30082      0              7301.9139      45.744877      20.047001      20.857         19126.862      8423.642       6919.4332      6562.6664     -73.608482     -1595.4016      2337.6629    
  39993000   270.78379     -347.8935      -268.54498     -347.86865      0              3090.2965      45.810743      20.047001      20.857         19154.402      4176.1367      2493.6091      2601.1436      1346.0469      2927.3473      708.50176    
  39993500   263.60615     -349.24841     -272.00317     -349.2005       0              4190.1002      45.964823      20.047001      20.857         19218.826      5588.3072      3927.6686      3054.3249      1641.5359     -1337.0106     -608.69105    
  39994000   264.78353     -346.92896     -269.33872     -346.85336      0              7318.4934      45.947274      20.047001      20.857         19211.488      10344.122      3871.4525      7739.9057     -157.64216      471.7409       1077.0659    
  39994500   277.40915     -348.35884     -267.06887     -348.26905      0              4398.3785      45.899681      20.047001      20.857         19191.588      4311.1024      5169.6714      3714.3616      398.037        467.95501     -630.0075     
  39995000   269.86099     -349.36571     -270.2876      -349.28296      0              5713.5342      45.803985      20.047001      20.857         19151.576      8287.1678      4730.0546      4123.3802     -843.24755      1215.3961     -1662.7951    
  39995500   271.68592     -349.72676     -270.11389     -349.65069      0              6042.0258      45.740185      20.047001      20.857         19124.9        7483.8903      4791.7166      5850.4705     -1263.6655      3715.7815      1535.8415    
  39996000   267.49352     -347.31331     -268.92895     -347.28043      0              3593.9037      45.714635      20.047001      20.857         19114.217      5137.5692      3492.5581      2151.5837      670.3093      -1614.6128     -89.653185    
  39996500   274.71956     -349.27357     -268.77175     -349.17568      0              6647.3128      45.823682      20.047001      20.857         19159.812      4601.9809      9070.749       6269.2084     -104.30774     -118.85886      542.6289     
  39997000   260.25728     -348.51866     -272.25476     -348.4312       0              5670.1131      45.942163      20.047001      20.857         19209.351      4148.7238      9124.4707      3737.1449      957.28515     -714.05533      132.59335    
  39997500   261.39474     -349.61383     -273.01661     -349.50882      0              4844.0804      45.745831      20.047001      20.857         19127.26       5756.312       4180.1917      4595.7374     -696.05303      56.774759      1051.3995    
  39998000   273.32338     -352.14019     -272.04749     -352.04574      0              4662.3913      45.673529      20.047001      20.857         19097.03       4739.4345      5621.0519      3626.6874     -452.39533     -1520.1753      979.08533    
  39998500   275.35782     -349.37022     -268.68136     -349.27629      0              5887.1192      45.630726      20.047001      20.857         19079.133      6638.1331      3944.6903      7078.5341     -650.71578      512.98163     -10.733523    
  39999000   264.82669     -349.01531     -271.41242     -348.92369      0              4800.3872      45.759495      20.047001      20.857         19132.974      6768.863       2383.2452      5249.0535     -208.73949     -444.0972      -205.30815    
  39999500   259.30509     -350.45529     -274.4704      -350.3987       0              4819.0699      45.755313      20.047001      20.857         19131.225      4707.8358      3420.799       6328.5748      35.917111     -1447.9848      850.16128    
  40000000   274.43198     -350.01468     -269.59712     -349.91909      0              4770.2652      45.508387      20.047001      20.857         19027.981      4840.7107      4559.4945      4910.5903      561.44397      793.1687       1472.2608    
Loop time of 8557.8 on 4 procs for 373500 steps with 2268 atoms

Performance: 1.885 ns/day, 12.729 hours/ns, 43.644 timesteps/s
953.0% CPU use with 4 MPI tasks x no OpenMP threads

MPI task timing breakdown:
Section |  min time  |  avg time  |  max time  |%varavg| %total
---------------------------------------------------------------
Pair    | 4683.7     | 4740.4     | 4761.3     |  47.7 | 55.39
Bond    | 0.044658   | 0.047096   | 0.050655   |   1.1 |  0.00
Neigh   | 121.24     | 124.02     | 126.89     |  18.4 |  1.45
Comm    | 475.15     | 500.48     | 555.98     | 145.7 |  5.85
Output  | 275.33     | 275.33     | 275.35     |   0.1 |  3.22
Modify  | 2904.9     | 2916.4     | 2926.4     |  14.8 | 34.08
Other   |            | 1.102      |            |       |  0.01

Nlocal:            567 ave         585 max         555 min
Histogram: 1 0 1 1 0 0 0 0 0 1
Nghost:           3778 ave        3814 max        3736 min
Histogram: 1 0 0 1 0 0 0 0 1 1
Neighs:              0 ave           0 max           0 min
Histogram: 4 0 0 0 0 0 0 0 0 0
FullNghs:       144651 ave      149423 max      140789 min
Histogram: 1 0 0 1 1 0 0 0 0 1

Total # of neighbors = 578604
Ave neighs/atom = 255.1164
Ave special neighs/atom = 0
Neighbor list builds = 37350
Dangerous builds not checked

unfix		4
unfix		3
unfix		1

write_data	data.final.${pid}
write_data	data.final.0
System init for write_data ...
Generated 0 of 1 mixed pair_coeff terms from geometric mixing rule
write_restart	restart.lmp.${pid}
write_restart	restart.lmp.0
System init for write_restart ...
Generated 0 of 1 mixed pair_coeff terms from geometric mixing rule
Total wall time: 2:22:54
