LAMMPS data file via write_data, version 29 Sep 2021, timestep = 1000000

864 atoms
2 atom types

0.5577143206362987 17.64985867936221 xlo xhi
0.6569137719521176 20.78920122804665 ylo yhi
0.6804101522093546 21.532785847793733 zlo zhi

Masses

1 1.008
2 15.999

Atoms # full

294 0 2 0.5897 1.9769486990028515 3.7735483004224415 3.4775339112300188 0 0 0
286 0 1 -1.1794 3.862775705757615 1.8601402439618528 2.6446798540009873 0 0 0
287 0 2 0.5897 4.048844664856565 2.6911492322955985 3.058645221159121 0 0 0
142 0 1 -1.1794 1.5911690453838427 3.3300771999642094 1.843746822482408 1 1 1
143 0 2 0.5897 2.48719468822188 3.3938829726680275 1.4194498368195525 1 1 1
288 0 2 0.5897 4.229131643512571 1.2362480094146808 3.239001017898725 0 0 0
292 0 1 -1.1794 1.8490865953268931 3.5941211771686707 4.432071316707508 0 0 0
144 0 2 0.5897 1.0021193347332296 3.970735738072479 1.365528385328631 1 1 1
677 0 2 0.5897 1.5455312480783712 1.4882370722108065 2.2087295467003467 1 1 1
265 0 1 -1.1794 4.740934831518807 4.546609006508848 3.54598933423423 0 0 0
570 0 2 0.5897 5.248226929676613 1.6544412733465985 1.1747439126555712 1 1 0
783 0 2 0.5897 6.941098125080174 2.2654006546678724 4.035010066727208 0 0 0
233 0 2 0.5897 7.118097385861618 3.370342775910448 1.58102932592822 0 0 1
781 0 1 -1.1794 7.378961755896121 2.373448839480373 3.1900370421915283 0 0 0
782 0 2 0.5897 8.136572780648358 1.73005889985017 3.0441831608081245 0 0 0
232 0 1 -1.1794 6.770824295614806 4.046181851282272 0.9406191837198102 0 0 1
141 0 2 0.5897 7.713242709466018 4.360502482111614 3.8534689200798375 1 0 1
234 0 2 0.5897 5.834559748306672 4.135217396702407 1.113644989020246 0 0 1
443 0 2 0.5897 8.61266987761709 0.7039430283714037 0.7538087761030261 0 1 1
342 0 2 0.5897 11.888121647295302 4.24947942487307 2.5505375860032995 0 0 0
340 0 1 -1.1794 11.430059047188971 4.63292297483879 1.789042092315367 0 0 0
207 0 2 0.5897 10.935126481002625 2.621434885694945 4.341367729255808 0 0 0
352 0 1 -1.1794 12.091960521729503 0.9484544357216991 3.000343506156902 -1 0 1
354 0 2 0.5897 12.32632974378838 0.8549058887792078 2.0558265105366855 -1 0 1
281 0 2 0.5897 12.95142635421611 2.517217203125802 3.480096650798736 0 0 1
280 0 1 -1.1794 13.053991965113912 3.3716963332109033 3.869605071282062 0 0 0
231 0 2 0.5897 10.198029004627497 0.9112210042687378 2.6550110636705173 0 0 0
282 0 2 0.5897 13.937796179702817 3.681721466306669 3.6006708134501157 0 0 0
182 0 2 0.5897 15.77730246232279 2.305588726881285 3.8372041344963574 0 0 1
820 0 1 -1.1794 15.103670085097866 1.6109010722444603 2.363953660168484 0 1 1
822 0 2 0.5897 15.05708477005467 2.301482893369311 1.6146195605438707 0 1 1
183 0 2 0.5897 17.116882182940742 3.072079915489679 4.35492344587482 0 1 1
181 0 1 -1.1794 16.26511149970885 2.6259083408434867 4.633780011708378 0 1 1
473 0 2 0.5897 14.764890216344183 4.677840573365134 1.7557593178899702 0 0 0
821 0 2 0.5897 15.221698725402485 0.7145258176203159 1.9420971580163613 0 1 1
267 0 2 0.5897 4.465064660534717 4.741003866751263 4.476375539620836 0 0 0
686 0 2 0.5897 3.23604697478397 5.73128075317854 2.6797170562483026 0 0 0
685 0 1 -1.1794 2.7759334432964775 6.4770763530215545 2.2457206658308713 0 0 0
687 0 2 0.5897 2.7894252082185034 6.287293027192206 1.3228785662428244 0 0 0
413 0 2 0.5897 1.9393394764288816 8.333084865673037 2.3115627267216072 0 0 1
26 0 2 0.5897 1.1002180027440422 6.063903287763309 2.840095130274328 1 0 0
563 0 2 0.5897 3.175569722039075 8.689792209123889 4.520173821137984 1 0 0
266 0 2 0.5897 5.6230305269590275 4.902952328764108 3.47088291626288 0 0 0
9 0 2 0.5897 5.0700256272830835 8.659145534961105 2.643868353665642 0 0 1
94 0 1 -1.1794 6.848250957531948 7.820437954277841 2.8042392143020347 0 0 1
95 0 2 0.5897 7.001510062477209 7.550684779709201 3.725746274818266 0 0 1
96 0 2 0.5897 7.11320131571712 6.973879756007113 2.389047307088469 0 0 1
357 0 2 0.5897 8.547175402303257 8.628907738624262 1.4838065558884315 0 0 0
139 0 1 -1.1794 7.665805863372405 5.2754871362259745 4.171958532484304 1 0 1
528 0 2 0.5897 8.998019565948585 6.21273542135476 3.5617995524715416 -1 0 0
341 0 2 0.5897 10.84003033271254 5.3086875318031845 2.1499998766943946 0 0 1
526 0 1 -1.1794 9.812497279121228 6.531643604063819 3.1353930621218056 -1 0 0
527 0 2 0.5897 10.05555209775329 7.360484961256024 3.5788329842349342 -1 0 0
733 0 1 -1.1794 13.341671672082446 7.2170296935102325 2.8636306688288578 0 0 0
417 0 2 0.5897 12.168451431273494 7.340297828593898 0.9911217898807938 0 0 1
480 0 2 0.5897 10.43006245423862 6.05275048227989 4.669279885758138 0 0 0
735 0 2 0.5897 13.200640569395503 7.466478213240996 3.740603483502628 0 0 0
356 0 2 0.5897 9.923979958170213 8.268091011854006 1.0063965893905498 0 0 0
472 0 1 -1.1794 15.004406716950049 4.870127040352449 2.661300017251981 0 0 0
734 0 2 0.5897 13.74222683239949 6.350747748816222 2.8560614318632283 0 0 0
474 0 2 0.5897 15.9615595259787 5.099248526258069 2.6712220122834025 0 0 0
27 0 2 0.5897 17.03523822018505 6.599008982962769 2.2364738709344794 0 0 0
25 0 1 -1.1794 17.30308735425168 6.262309531660797 3.112711650812854 0 0 0
224 0 2 0.5897 13.831251810932763 8.702667770115553 2.3543890348870313 0 0 0
393 0 2 0.5897 16.667165229762823 8.6226735282176 3.3212410546586573 0 0 0
392 0 2 0.5897 15.255461981976074 8.54085741241119 4.130361705827264 0 0 0
330 0 2 0.5897 15.128498696354368 7.649038051790214 0.8541143191107661 0 0 0
412 0 1 -1.1794 1.2509952460642342 9.010567913130453 2.2866642929321026 0 0 1
414 0 2 0.5897 0.8478704704272475 8.966233269402478 1.4120483031696203 0 0 1
8 0 2 0.5897 3.9857810932602233 9.620020800942514 2.055415029207232 1 0 1
7 0 1 -1.1794 4.325010299649797 9.23238815792313 2.890092081204588 1 0 1
435 0 2 0.5897 2.709818519051061 11.437374367862363 3.879192289718069 1 0 0
433 0 1 -1.1794 2.6286638210952358 11.689354692142542 2.939319565269237 1 0 0
434 0 2 0.5897 2.278499720025203 10.930969711758255 2.477383963122877 1 0 0
108 0 2 0.5897 4.587509807023462 11.971400324488032 2.30288821655175 0 0 1
106 0 1 -1.1794 5.559988257666133 11.943541947691287 2.3265222360191213 0 0 0
120 0 2 0.5897 7.446645059048507 10.56048644262452 3.885455730466376 0 -1 0
118 0 1 -1.1794 8.286668597918647 10.812999118671087 3.4674278811993675 0 -1 0
629 0 2 0.5897 5.114035296849445 10.406022428142899 4.112665935431906 0 0 0
119 0 2 0.5897 8.211091940803197 10.546997268216488 2.558519056053113 0 -1 0
630 0 2 0.5897 5.738579388006184 11.738878907613767 4.536868393423256 0 0 0
107 0 2 0.5897 5.879861246542149 11.410658171307126 1.584286742712457 0 0 0
73 0 1 -1.1794 6.751696539041816 10.073566135721718 0.7945998800914155 0 1 1
655 0 1 -1.1794 10.285943828826841 8.967360875943445 4.468575792749228 0 0 1
656 0 2 0.5897 9.624524130090188 9.514278924787215 4.020239707599105 0 0 1
92 0 2 0.5897 10.67800574825883 10.069872421346302 1.8978357774278196 0 0 1
355 0 1 -1.1794 9.407774531027849 9.026996539727492 1.2495494261335063 0 0 0
93 0 2 0.5897 12.170802712484383 10.08745059628582 2.115029465364407 0 0 1
91 0 1 -1.1794 11.344262225400144 10.55452566119042 2.3788960738633422 0 0 1
632 0 2 0.5897 11.860770543327623 9.10095125726254 4.59716598442442 0 0 0
351 0 2 0.5897 11.130856479369937 11.513737755483959 3.923218725472185 0 -1 0
631 0 1 -1.1794 12.857511183639092 9.061654949775527 4.790048302714631 0 0 0
273 0 2 0.5897 11.570180395874429 12.489413298631256 1.7192806510191316 0 0 0
349 0 1 -1.1794 11.078760070400168 12.093755240362842 4.733731876332184 0 -1 0
350 0 2 0.5897 10.25123231063686 12.582250555095625 4.572131232033603 0 -1 0
223 0 1 -1.1794 13.866434457711819 9.479584368828244 1.76441986688907 0 0 0
391 0 1 -1.1794 16.14130254995891 8.89834702846825 4.156154360782852 0 0 0
225 0 2 0.5897 14.53652361485094 10.072027054267991 2.0943589584863704 0 0 0
221 0 2 0.5897 16.426758727184385 11.029162332043892 2.589509797559194 -1 0 0
220 0 1 -1.1794 15.807335950343804 11.498656462537191 2.023379944413438 -1 0 0
222 0 2 0.5897 15.485423502416463 12.240890352730649 2.5961700764269944 -1 0 0
491 0 2 0.5897 3.066294647360962 13.636518486403114 3.252166594245783 0 0 0
504 0 2 0.5897 4.448730335281027 14.249066262244687 4.4098103081651185 1 0 0
490 0 1 -1.1794 3.664318445674792 14.35434055463418 3.088356748116115 0 0 0
492 0 2 0.5897 3.1959319108512294 15.223019211075567 3.248724174885221 0 0 0
701 0 2 0.5897 0.8030757382333499 16.517641693834513 1.526901553490125 0 0 0
408 0 2 0.5897 1.0849360748364039 13.458129367061195 2.1188727491004857 1 0 0
87 0 2 0.5897 2.3023944227253073 16.68175463099545 4.780018066578427 1 0 0
369 0 2 0.5897 8.47542644549861 12.744234278526173 3.147164846096381 0 -1 1
588 0 2 0.5897 8.071658945796202 15.098998350828372 3.5025545639873896 0 -1 0
693 0 2 0.5897 5.907429383957832 13.947712108337944 1.9088030244573435 0 0 0
586 0 1 -1.1794 7.443806661809262 15.808932181656635 3.8318468378339126 0 -1 0
587 0 2 0.5897 6.593916473691663 15.279503629334464 3.879240304618839 0 -1 0
320 0 2 0.5897 6.743160362446816 16.344290772247597 1.4045325671637627 0 0 1
367 0 1 -1.1794 8.84770954541785 13.591360609859565 2.9098116342901927 0 -1 1
692 0 2 0.5897 7.001547428966834 14.136339196289157 0.9198279955147377 0 0 0
691 0 1 -1.1794 6.200653736372004 14.569430922757725 1.2409911761717285 0 0 0
368 0 2 0.5897 9.22723871477719 13.44731121836 2.0132187318140504 0 -1 1
271 0 1 -1.1794 11.866608010958817 13.324587520716264 1.2991309550853392 0 0 0
32 0 2 0.5897 10.32460288532362 15.001757109095376 3.4146489762388956 0 0 1
272 0 2 0.5897 12.587561626710363 13.552803041793005 1.893956794426776 0 0 0
31 0 1 -1.1794 10.71062291266636 15.597078099611627 4.0285423207566 0 0 1
33 0 2 0.5897 10.089514815146982 15.651569616238286 4.732534822460719 0 0 0
129 0 2 0.5897 13.582416088470408 16.65896940273474 1.5999596205033257 0 0 1
406 0 1 -1.1794 17.574724774181924 14.110460435598743 1.7656706607866448 0 0 0
407 0 2 0.5897 17.110708074935637 14.54064230801148 2.492832840407344 0 0 0
707 0 2 0.5897 14.042339456282779 14.103148166289445 3.802788234815945 -1 0 1
706 0 1 -1.1794 14.26584109055854 13.770244601535182 2.89226858046873 -1 0 1
708 0 2 0.5897 14.487016750059118 14.622374378475714 2.3947054106902637 -1 0 1
541 0 1 -1.1794 16.67567823146318 15.18224609275403 4.2391896874432184 0 0 0
127 0 1 -1.1794 14.190500948035877 15.941597891707017 1.2536065240069085 0 0 1
543 0 2 0.5897 16.110384600306965 15.996274856557106 4.130032483340967 0 0 0
57 0 2 0.5897 16.301306913005348 13.3619598604373 4.581217043939711 -1 0 0
678 0 2 0.5897 2.320371058148644 20.385100830143315 1.984975360272411 1 0 1
676 0 1 -1.1794 1.4422612577720766 20.675947195460196 2.112316110798065 1 0 1
86 0 2 0.5897 2.1559145072904453 17.240095498068982 3.255162818505179 1 0 0
85 0 1 -1.1794 2.731604752756454 16.822681233699328 3.913786398427517 1 0 0
700 0 1 -1.1794 1.0827250588513189 17.380816542120996 1.8002138325123695 0 0 0
773 0 2 0.5897 0.9080761578411969 20.193882383234424 3.8446954412073753 1 0 0
66 0 2 0.5897 4.830057514798496 17.665652802012396 3.659711960821424 0 0 0
772 0 1 -1.1794 0.7978744398470332 19.789029663232924 4.725900053440096 1 0 0
188 0 2 0.5897 4.200396577003263 18.26386990582251 1.6258420786670076 0 -1 1
702 0 2 0.5897 1.6422247344812808 17.56413744605163 1.0331071317443898 0 0 0
189 0 2 0.5897 4.5712849631402195 19.74826310254388 1.1500101812685808 0 0 1
187 0 1 -1.1794 3.898505916073543 19.028075444736174 1.1471883803650773 0 0 1
431 0 2 0.5897 5.388023453823518 19.68401995787464 4.317071394989368 0 0 0
321 0 2 0.5897 8.00231196320682 17.29276766678177 1.5761958882617155 0 0 1
65 0 2 0.5897 6.11236276256413 17.780933591182844 2.8449165541386794 0 0 0
64 0 1 -1.1794 5.723669630025544 18.065024690300085 3.663211022791087 0 0 0
319 0 1 -1.1794 7.016819681476007 17.27737718394347 1.3566325506980508 0 0 1
845 0 2 0.5897 8.121559499261549 17.445776129826875 4.068248381940119 0 -1 0
844 0 1 -1.1794 8.682036354767398 18.294334665361887 4.007789969816592 0 -1 0
430 0 1 -1.1794 4.963721023546235 20.406077995953915 4.827852206346946 -1 0 0
525 0 2 0.5897 12.042632806969204 16.876075858938584 3.640287522281622 0 0 1
230 0 2 0.5897 9.230757811931772 19.91527811333558 3.0007726347137473 0 -1 0
229 0 1 -1.1794 9.322475990732132 20.670694876056942 2.399076517719899 0 -1 0
353 0 2 0.5897 12.739575817530872 20.567690060102706 3.464088408934925 -1 -1 1
523 0 1 -1.1794 12.369884236668787 17.477376323563846 2.9391017198802802 0 0 1
425 0 2 0.5897 10.845532618768184 17.713664611391813 1.9343290868133844 0 -1 1
524 0 2 0.5897 12.779717939280124 18.177724724505495 3.489158560146483 0 0 1
424 0 1 -1.1794 10.113042448817252 17.464592771423497 1.3148843297443156 0 -1 1
846 0 2 0.5897 9.551192454740855 18.088377619605644 4.344623612994173 0 -1 0
426 0 2 0.5897 9.99108373926866 18.21830946763982 0.7122307872235658 0 -1 1
532 0 1 -1.1794 13.722525308250976 19.379779472085353 4.400807532553928 0 0 1
534 0 2 0.5897 14.604372407755502 18.971976159233876 4.3205938394165795 0 0 1
50 0 2 0.5897 16.029390649576747 19.155361188844438 0.683034168840733 0 0 1
49 0 1 -1.1794 15.319910163432299 19.206424096551416 1.3519945676381346 0 0 1
51 0 2 0.5897 14.55789809673542 18.812921706244374 0.8552339253951566 0 0 1
6 0 2 0.5897 16.007875775600734 17.943075578362702 2.9516005471585522 -1 0 0
4 0 1 -1.1794 15.950188267598286 17.845333323148317 3.8942563296740444 -1 0 0
5 0 2 0.5897 16.754894579505134 18.162109081303065 4.317347424404048 -1 0 0
293 0 2 0.5897 1.6762590061661402 4.465841344396711 4.878981739819793 0 0 0
317 0 2 0.5897 2.263818654923822 2.5278954448577236 5.587607068498641 0 1 0
318 0 2 0.5897 2.187113417080182 0.9940315108121778 5.852293169359143 0 1 0
316 0 1 -1.1794 2.158869403487561 1.8543899187916935 6.3046587764569635 0 1 0
39 0 2 0.5897 3.9654551342606927 1.8783948053645518 7.102081460980802 1 1 0
37 0 1 -1.1794 4.381041837786318 1.6260635010454099 7.939378975516442 1 1 0
770 0 2 0.5897 1.1004650287863167 2.474464842214581 7.532033845174993 1 1 0
193 0 1 -1.1794 4.3055802075804985 4.516152732919707 6.051325666022384 0 0 0
769 0 1 -1.1794 0.6517341693004366 3.084893737910749 8.176035925887922 1 1 0
38 0 2 0.5897 3.622912300205477 1.5614358449903687 8.559581103937534 1 1 0
457 0 1 -1.1794 6.324092950294812 2.3559775526661033 5.652815405515303 0 1 0
459 0 2 0.5897 5.899858310397576 1.5591357739177003 5.349350638034565 0 1 0
458 0 2 0.5897 5.655973223406735 3.0516493727785186 5.654047272250295 0 1 0
705 0 2 0.5897 6.71197909143435 3.782168201409649 8.216095927280225 0 0 0
704 0 2 0.5897 5.37279760210603 3.1185056521899135 8.486140080101936 0 0 0
759 0 2 0.5897 7.878374577807942 0.992650688334588 6.897538066708038 0 0 0
591 0 2 0.5897 7.797652105616436 3.513136681229089 6.521597873962456 0 0 0
758 0 2 0.5897 8.965589158935552 1.6444670656457752 5.944221805016314 0 0 0
757 0 1 -1.1794 8.87169354841223 1.0037686643398518 6.722757370132173 0 0 0
589 0 1 -1.1794 8.00864343182001 4.348272493038764 7.004053798390005 0 0 0
590 0 2 0.5897 8.895243410402665 4.271991118409785 7.350875493116774 0 0 0
703 0 1 -1.1794 5.947796157842741 3.7718203765180407 8.82870045290645 0 0 0
205 0 1 -1.1794 10.358926136867607 3.0302774498732825 4.994529050072651 0 0 0
206 0 2 0.5897 10.681397333203053 3.9085032434262077 5.175276819016678 0 0 0
736 0 1 -1.1794 11.342602130963341 1.6297521710910257 8.277234885138153 0 1 0
690 0 2 0.5897 10.81416847791696 3.6020970472814304 8.424630990886321 0 1 0
738 0 2 0.5897 10.489230529566644 1.3219588882167814 7.9475080577386406 0 1 0
482 0 2 0.5897 12.26908612099315 2.7800912346022315 7.041221469696653 0 0 0
688 0 1 -1.1794 10.60922052485106 4.4399381965219105 8.086956566754528 0 1 0
737 0 2 0.5897 11.628588613671067 0.890958776689913 8.827201864593862 0 1 0
481 0 1 -1.1794 12.950059391286304 3.3341284685800763 6.691862501709572 0 0 0
483 0 2 0.5897 12.977139927737309 3.218496754812318 5.728519694115073 0 0 0
689 0 2 0.5897 11.057529050845229 4.482223859954208 7.250552009341606 0 1 0
186 0 2 0.5897 16.155167517916308 4.495623072579759 5.4143088466125695 -1 0 0
771 0 2 0.5897 16.792022795514626 2.9903290061410317 8.005565734663133 0 1 0
501 0 2 0.5897 16.17209164825718 1.550237500511217 5.92355803710413 0 1 0
813 0 2 0.5897 14.002031011793791 4.065105337458727 7.740659462226293 0 0 0
811 0 1 -1.1794 14.798216848555816 4.438537026899779 8.244535853935066 0 0 0
499 0 1 -1.1794 16.039454443198537 1.0179860844795128 6.6925867528600795 0 1 0
500 0 2 0.5897 15.068921362911986 0.8836143299046755 6.641441680939101 0 1 0
564 0 2 0.5897 2.4110464956003126 7.877334845425313 5.550144581524705 0 0 0
562 0 1 -1.1794 3.1648859509973057 8.536076999067596 5.467195541837319 0 0 0
450 0 2 0.5897 0.7178449302455251 4.983352862023087 8.247800236326018 0 0 0
195 0 2 0.5897 3.437712947688562 5.0702349122256765 6.165518738796918 0 0 0
21 0 2 0.5897 0.7027641309823507 6.259120606075689 5.027984054497381 0 0 0
448 0 1 -1.1794 1.1321070903741233 5.832420526545918 8.327244888114311 0 1 0
19 0 1 -1.1794 1.4421206481181175 6.180795125392869 5.621345650180244 0 0 0
540 0 2 0.5897 4.565968645498989 7.70067456526434 6.3843895145448375 0 0 0
20 0 2 0.5897 1.0538983040978636 6.1306147319942434 6.527456988746221 0 0 0
194 0 2 0.5897 4.9453185598428115 4.888339361791784 6.656033135307781 0 0 0
140 0 2 0.5897 7.798971837820416 5.209129383778613 5.104769846430368 1 0 1
538 0 1 -1.1794 5.232574460601698 7.0868400491908945 6.706618827015287 0 0 0
695 0 2 0.5897 5.514217528346561 6.8771648629532205 8.446764079394242 0 1 0
539 0 2 0.5897 6.13485714938216 7.314174299790242 6.454810855103471 0 0 0
798 0 2 0.5897 8.386722310439431 7.742272784252099 5.852463127955826 0 0 0
796 0 1 -1.1794 7.474083610806034 7.989694575957724 5.570196891280946 0 0 0
72 0 2 0.5897 7.670569386112648 8.362929743488124 8.93485520340053 0 0 0
479 0 2 0.5897 11.867388043292541 5.881653933067358 5.454486062071598 0 0 0
478 0 1 -1.1794 10.878903452175534 5.628572124136972 5.420895807120863 0 0 0
441 0 2 0.5897 9.326843120395546 7.806646665390318 7.834403107699445 0 0 1
439 0 1 -1.1794 10.067214878546535 7.885846949196688 7.14350014265864 0 0 1
440 0 2 0.5897 10.33860737008251 7.063485686923715 6.793789921131467 0 0 1
554 0 2 0.5897 12.906731894850981 7.431039493943837 8.74887312879983 0 0 1
553 0 1 -1.1794 13.181012303493613 7.771346758493306 7.907111202937972 0 0 0
278 0 2 0.5897 14.168125580303643 5.720284477373622 5.579110057819632 -1 0 0
449 0 2 0.5897 17.56619681352546 6.460230569617638 8.605807657943766 -1 1 0
277 0 1 -1.1794 13.418977596060378 6.232331900728613 5.850838520608954 -1 0 0
185 0 2 0.5897 15.766828130188571 4.887205410494017 6.8096259660190634 -1 0 0
184 0 1 -1.1794 15.905176371000065 5.283412134071913 5.944388541076145 -1 0 0
546 0 2 0.5897 16.3855883458953 8.10392932337507 8.205930467393895 -1 0 0
279 0 2 0.5897 13.604629178634147 6.674927725901464 6.694330816528683 -1 0 0
555 0 2 0.5897 13.664706566880001 8.577462392397667 7.972509384567046 0 0 0
812 0 2 0.5897 14.534762823272473 5.14278419441965 8.829029267793384 0 0 0
242 0 2 0.5897 1.270461061353049 9.005839470186825 8.094669331788452 0 0 0
146 0 2 0.5897 3.385634260755657 10.08837860753709 7.65882645850363 0 0 0
241 0 1 -1.1794 1.9432620793492728 9.235664520315265 8.681363749471856 0 0 0
296 0 2 0.5897 1.8333213774835448 10.325587204121097 5.687640404804798 1 0 0
297 0 2 0.5897 0.7835586688021369 11.431594101266219 5.253978172132818 1 0 0
295 0 1 -1.1794 1.7482614645752128 11.28258935192263 5.4590116603976675 1 0 0
145 0 1 -1.1794 4.183694031730509 10.601509055076866 7.589251192975675 0 0 0
147 0 2 0.5897 4.416011841817762 10.691859715145211 6.665311589256231 0 0 0
628 0 1 -1.1794 5.550650337524969 10.857444457312113 4.895610248265318 0 0 0
797 0 2 0.5897 7.334203415786541 8.888510926393797 5.82989380453656 0 0 0
648 0 2 0.5897 7.096759707313179 10.24027346175859 8.128929065557006 0 0 0
646 0 1 -1.1794 6.670398979598956 9.707386519091449 8.79349888984444 0 0 0
647 0 2 0.5897 5.749266358143161 9.87921997379926 8.639705985527456 0 0 0
847 0 1 -1.1794 8.151210968940408 11.058419588351764 7.0498032613695205 0 1 0
849 0 2 0.5897 8.038571781733946 11.783333457345414 6.455518756234806 0 1 0
848 0 2 0.5897 8.945695656337808 11.19705575480631 7.606425065423445 0 0 0
251 0 2 0.5897 4.849102706812565 12.038224227183836 8.706276290157307 0 0 0
633 0 2 0.5897 12.857503367972914 8.719665916730559 5.682340415183427 0 0 0
657 0 2 0.5897 10.064040861524148 9.03735063150677 5.394340862948025 0 0 1
584 0 2 0.5897 11.303940843778395 8.989492818946264 8.307039957435546 0 0 0
583 0 1 -1.1794 11.350946687683676 9.735168373339492 8.918616313538228 0 0 0
810 0 2 0.5897 11.430668991019994 11.186190289303843 7.893298028167024 0 0 0
809 0 2 0.5897 11.300022576755822 11.864175608437284 6.54571448298871 0 0 0
808 0 1 -1.1794 11.068315138700763 12.007794137384138 7.469779269659756 0 0 0
80 0 2 0.5897 13.352428671259725 10.868551291224097 5.156639551894904 -1 0 0
81 0 2 0.5897 13.139991045287221 12.477822350390753 5.337119084496882 -1 0 0
456 0 2 0.5897 16.54044017756781 9.267790314657931 6.017868724367065 -1 1 0
454 0 1 -1.1794 16.734483886685418 9.445485122239447 6.9488799439269915 -1 0 0
455 0 2 0.5897 16.034563231499888 10.0167838513552 7.326524038783539 -1 0 0
13 0 1 -1.1794 14.319478278398373 10.485540807401993 7.949058475759998 0 0 0
79 0 1 -1.1794 13.735702351834261 11.68301439289771 5.544835638484195 -1 0 0
56 0 2 0.5897 15.420937250321707 12.215925322826893 5.13972637046974 -1 0 0
14 0 2 0.5897 14.027504490331664 11.147395422694597 7.316520810005801 -1 0 0
55 0 1 -1.1794 16.358894511961726 12.461346366124552 4.961770325517592 -1 0 0
728 0 2 0.5897 17.04406562752061 12.624221228871395 6.597795934761966 -1 0 0
15 0 2 0.5897 14.651688738305243 10.970808779066331 8.706919974856502 0 0 0
218 0 2 0.5897 2.5838060973235195 12.741826984063437 6.8688179558633555 0 0 0
219 0 2 0.5897 3.6218150176819837 13.33433283972915 7.810111574911145 0 0 0
217 0 1 -1.1794 3.1369069317046803 13.494385540414314 7.007758021847247 0 0 0
503 0 2 0.5897 4.329711939161722 13.949069808108959 5.848677338234681 1 0 0
461 0 2 0.5897 2.2255732392861995 15.066089565557691 6.677080455101257 1 0 0
460 0 1 -1.1794 1.713688061995487 15.830564442017618 6.3292084198617635 1 0 0
462 0 2 0.5897 1.1943359499190267 16.26471558278201 7.0848226159502845 1 0 0
90 0 2 0.5897 4.620365683700831 16.004163768963956 5.7656310616031785 0 -1 0
502 0 1 -1.1794 4.984883657314413 14.348184403321483 5.239276715237655 1 0 0
411 0 2 0.5897 6.7212970029378285 13.703452254327292 5.585708336042601 0 0 0
409 0 1 -1.1794 7.610094267234093 13.387820003499144 5.838161753496018 0 0 0
410 0 2 0.5897 8.11187404573493 14.149871163189653 5.9675877779834 0 0 0
537 0 2 0.5897 7.766846613202696 13.988137820761128 7.994881810500951 0 0 0
535 0 1 -1.1794 7.608193866842114 14.135686627494529 8.962936729369835 0 0 0
536 0 2 0.5897 7.130147401139267 14.963988822065794 8.972718422456749 0 0 0
788 0 2 0.5897 5.376331310655451 16.510585502272885 7.962480963109855 0 0 0
552 0 2 0.5897 8.593872631270632 16.32481789628752 6.625844981644637 0 0 0
787 0 1 -1.1794 5.816982496182533 16.3396297053057 8.795303882454037 0 0 0
250 0 1 -1.1794 4.9658642198583 12.93644161577871 8.942570515192259 0 0 0
252 0 2 0.5897 5.959093757823209 13.155125898289697 8.983937832923772 0 0 0
550 0 1 -1.1794 9.173707881570518 15.599758915897047 6.392238435810239 0 0 0
825 0 2 0.5897 12.104037728551878 14.496232826010198 4.8601925949422675 0 0 0
418 0 1 -1.1794 11.2452540688245 14.644350624531926 8.250059530356793 0 0 0
420 0 2 0.5897 11.149466344364663 13.722482613952748 7.9553732190508 0 0 0
419 0 2 0.5897 11.778566312771865 15.124074526626389 7.587177644832769 0 0 0
824 0 2 0.5897 13.058358947094098 15.3982891360621 5.610870998080752 0 0 0
551 0 2 0.5897 9.718130615326906 15.365824407207016 7.23106569732188 0 0 0
262 0 1 -1.1794 12.424055074783338 16.663118697761078 6.468036449607717 0 0 0
823 0 1 -1.1794 12.989875787611602 14.464611225636624 5.278700649394272 0 0 0
542 0 2 0.5897 17.216672383250177 15.298726092726405 5.0679420916785896 0 0 0
150 0 2 0.5897 13.590453057947009 13.730614742063171 7.953738332926411 -1 0 0
148 0 1 -1.1794 14.294317152546716 13.306792922198424 8.424079191370772 -1 0 0
727 0 1 -1.1794 16.975295584528773 12.764835264356135 7.577523131761517 -1 0 0
729 0 2 0.5897 16.02032243164365 12.900559379009252 7.685592981120267 -1 0 0
239 0 2 0.5897 17.08945982534369 16.373166389479714 8.741203229357065 0 0 0
836 0 2 0.5897 17.577604633182283 14.09364877906344 8.672008944225187 0 0 0
89 0 2 0.5897 3.9354124922186027 17.36225710582334 6.1457878913342565 0 -1 0
88 0 1 -1.1794 4.703887855691573 16.848371268597646 6.214960931015101 0 -1 0
855 0 2 0.5897 2.1830503633479985 18.94945363179 6.020897959407452 0 0 0
854 0 2 0.5897 2.8604007397642235 18.81505443994905 7.4170902603380995 0 0 0
853 0 1 -1.1794 3.019480742155397 18.84232810574116 6.460873709512458 0 0 0
432 0 2 0.5897 4.419491246488212 19.867197134902582 5.43367250254101 0 0 0
311 0 2 0.5897 5.657085973445662 20.2283152273125 7.875785002987528 0 -1 0
310 0 1 -1.1794 6.520638879408388 19.966088772800227 8.136375403848266 0 -1 0
190 0 1 -1.1794 7.208366538292816 17.97857949120082 6.429426939110339 1 -1 0
192 0 2 0.5897 6.2281152745328345 17.741331452072615 6.234955512756226 1 0 0
312 0 2 0.5897 6.748615318087171 19.16259979024815 7.640666960134615 0 -1 0
191 0 2 0.5897 7.456494294364576 18.593244258094728 5.712061626354181 1 0 0
264 0 2 0.5897 13.267942538310342 16.956508807120763 6.9065850596540965 0 0 0
509 0 2 0.5897 12.659779803789299 20.633541418215266 7.478501984450678 0 0 1
263 0 2 0.5897 11.923215916485026 17.481540331497868 6.5216012621437045 0 -1 0
306 0 2 0.5897 10.11626877416174 19.550270791727264 6.3015534086518725 0 -1 1
304 0 1 -1.1794 10.318263731688162 18.601112349705907 6.357735061977868 0 -1 1
305 0 2 0.5897 10.153662153019495 18.39616254056979 7.320104277070387 0 -1 1
508 0 1 -1.1794 13.296123972989747 20.17851558286467 6.957807130848139 0 0 1
774 0 2 0.5897 17.14603493496876 20.206792599654257 5.206005251281042 0 0 0
240 0 2 0.5897 17.56776221935445 17.836744305506507 8.457615944742189 0 0 0
238 0 1 -1.1794 17.03453196267276 17.113779263063762 8.111697592367822 0 0 0
556 0 1 -1.1794 17.342016082434647 20.08078733281063 8.757284263366406 0 0 0
533 0 2 0.5897 13.554491389380884 19.498933349057637 5.358785691853383 0 0 1
557 0 2 0.5897 16.895892775811852 20.45180049666675 7.986664679643662 0 0 0
400 0 1 -1.1794 14.313583940538155 17.907105170849036 7.957009545112494 0 -1 0
402 0 2 0.5897 15.213975230358853 17.738069901725808 7.747873614833738 0 -1 0
510 0 2 0.5897 13.715099625903392 19.506039672243283 7.50992754288565 0 -1 1
401 0 2 0.5897 14.132583803377358 17.756209524116528 8.905399384439843 0 -1 0
549 0 2 0.5897 1.6627868203626315 2.6004062558507597 9.668951523023116 1 1 0
548 0 2 0.5897 2.0344854165486463 1.8118899749634743 10.926600141511843 1 1 0
547 0 1 -1.1794 2.306222061224041 2.0336716615919297 10.038325165261973 1 1 0
382 0 1 -1.1794 1.1774816408755349 1.4637016137067167 12.640177469337775 0 1 0
477 0 2 0.5897 3.179099512123936 4.303452934744586 11.57499976143603 0 1 0
475 0 1 -1.1794 4.075680727205088 4.057151531473821 11.782288577190833 0 1 0
476 0 2 0.5897 4.32375742034767 3.4452126962689404 11.123698211616775 0 1 0
323 0 2 0.5897 4.108267617099724 1.9759995126236416 12.844436775681498 1 1 0
600 0 2 0.5897 6.0791219474836 2.418675048518346 10.113509541659187 0 1 0
598 0 1 -1.1794 5.7627418205752825 1.958975676295741 10.915126987226847 0 1 0
599 0 2 0.5897 5.299633082398199 1.1237563128557966 10.723088712211043 0 1 0
464 0 2 0.5897 6.900108813884272 2.2018507731897947 12.224100959529475 0 0 0
463 0 1 -1.1794 7.737787269705591 2.520122131454846 12.655437721419132 0 0 0
159 0 2 0.5897 8.884783951588284 3.2676608631837065 11.24294977915868 0 0 0
158 0 2 0.5897 8.945885685089017 4.072373903344575 9.978674428325045 0 1 0
801 0 2 0.5897 8.796358489902591 1.5315252821915135 9.999887340611677 0 0 0
465 0 2 0.5897 8.171915826830997 1.6809367971840963 12.93068191136541 0 0 0
157 0 1 -1.1794 9.232595676034832 3.2494889843123875 10.318867712830421 0 1 0
756 0 2 0.5897 11.139496553942253 3.2877330702863063 10.725141333179359 0 1 0
754 0 1 -1.1794 11.962180747402895 3.2257174653035623 11.27656809494702 0 0 0
78 0 2 0.5897 11.78568737820975 1.6935232563761082 12.126268771805686 0 0 0
76 0 1 -1.1794 11.606179135383083 0.8253497880988174 12.563356116774308 0 0 0
755 0 2 0.5897 12.701291493338907 3.229641616110322 10.712635128178828 0 1 0
77 0 2 0.5897 10.66042215871315 0.8308501187829531 12.829281297124101 0 0 0
383 0 2 0.5897 17.52555459379144 2.1310373545903145 12.43359027522719 -1 1 0
114 0 2 0.5897 14.560961332274202 3.0593675294217766 9.52598161690677 0 1 0
135 0 2 0.5897 14.251779074420941 2.703297232771334 12.700212105079505 0 0 -1
48 0 2 0.5897 15.823832274803488 3.208454782614794 11.382691980773881 0 1 0
112 0 1 -1.1794 14.382916686706414 2.694709706624974 10.412986990073199 0 1 0
113 0 2 0.5897 14.667356839209516 1.742752569948157 10.31380507387112 0 1 0
46 0 1 -1.1794 16.67784305028239 3.4442294703708862 11.834532471371814 0 1 0
47 0 2 0.5897 16.488987782495546 4.288969505641024 12.346752237387165 0 1 0
578 0 2 0.5897 1.1261213129084382 5.130838816055693 10.779531894600561 0 0 0
243 0 2 0.5897 2.1871259099638003 8.458755839209836 9.196294915901833 0 0 0
577 0 1 -1.1794 1.7319813629090033 5.586633371979419 11.358525510961668 0 0 0
579 0 2 0.5897 2.3031411371801758 6.13074427287843 10.833317478745242 0 0 0
602 0 2 0.5897 3.920553433467177 7.264979176882454 10.083602529212635 0 0 0
601 0 1 -1.1794 3.0441366729366894 7.42788779887354 10.378964808173242 0 0 0
603 0 2 0.5897 3.0955369786865217 7.961069709486122 11.188246090959113 0 0 0
213 0 2 0.5897 1.6111755433996544 5.848011457223321 13.166311581320365 0 0 0
70 0 1 -1.1794 8.429801916444806 7.789162023586964 9.064949239019123 0 0 0
71 0 2 0.5897 8.200059448840712 6.961079392991264 9.539560181726797 0 0 0
515 0 2 0.5897 5.4513609137799826 4.920224315129165 12.574164125529384 0 1 0