LAMMPS (29 Sep 2021 - Update 2)
  using 1 OpenMP thread(s) per MPI task
echo both

include		in.partitions
variable        pid world 0
include		in.temp
variable        temperature equal 255
variable        tempDamp equal 0.100 # this is 0.1 ps
include		in.pressure
variable        pressure equal 7092.75
variable        pressureDamp equal 1.0 #this is 1ps
include		in.seed
variable        seed world 745823

units           metal
atom_style	full
include		in.box
read_data       water.data
Reading data file ...
  orthogonal box = (0.0000000 0.0000000 0.0000000) to (18.207573 21.446115 22.213196)
  1 by 1 by 1 MPI processor grid
  reading atoms ...
  864 atoms
  reading velocities ...
  864 velocities
Finding 1-2 1-3 1-4 neighbors ...
  special bond factors lj:    0        0        0       
  special bond factors coul:  0        0        0       
     0 = max # of 1-2 neighbors
     0 = max # of 1-3 neighbors
     0 = max # of 1-4 neighbors
     1 = max # of special neighbors
  special bonds CPU = 0.003 seconds
  read_data CPU = 0.030 seconds
include 	in.setup
variable	out_freq equal 500
variable	out_freq2 equal 500

timestep        0.0005

neigh_modify    delay 7 every 1

include         in.deepmd
# This is deepMD model

# create groups ###
#group ox type 2
#group hy type 1

mass 2 15.999
mass 1 1.008

pair_style      deepmd ../graph.pb
pair_coeff      * *

bond_style      none
angle_style     none
dihedral_style  none
improper_style  none
neigh_modify exclude none


neighbor        2.0 bin
neigh_modify    every 10 delay 0 check no

thermo          ${out_freq}
thermo          500
thermo_style 	custom step temp pe etotal epair emol press lx ly lz vol pxx pyy pzz pxy pxz pyz

restart 	${out_freq} restart.lmp.${pid} restart2.lmp.${pid}
restart 	500 restart.lmp.${pid} restart2.lmp.${pid}
restart 	500 restart.lmp.0 restart2.lmp.${pid}
restart 	500 restart.lmp.0 restart2.lmp.0


include         in.dump
dump            myDump all atom ${out_freq2} dump.water.${pid}
dump            myDump all atom 500 dump.water.${pid}
dump            myDump all atom 500 dump.water.0
dump            myDump2 all dcd ${out_freq2} dump.dcd
dump            myDump2 all dcd 500 dump.dcd
dump_modify     myDump append yes
dump_modify     myDump2 append yes


timer           timeout 05:55:00 every 1000
New timer settings: style=normal  mode=nosync  timeout=05:55:00

fix             2 all nph iso ${pressure} ${pressure} ${pressureDamp}
fix             2 all nph iso 7092.75 ${pressure} ${pressureDamp}
fix             2 all nph iso 7092.75 7092.75 ${pressureDamp}
fix             2 all nph iso 7092.75 7092.75 1
fix             3 all temp/csvr ${temperature} ${temperature} ${tempDamp} ${seed}
fix             3 all temp/csvr 255 ${temperature} ${tempDamp} ${seed}
fix             3 all temp/csvr 255 255 ${tempDamp} ${seed}
fix             3 all temp/csvr 255 255 0.1 ${seed}
fix             3 all temp/csvr 255 255 0.1 745823
velocity 	all create ${temperature} ${seed} dist gaussian
velocity 	all create 255 ${seed} dist gaussian
velocity 	all create 255 745823 dist gaussian

run             1000000

CITE-CITE-CITE-CITE-CITE-CITE-CITE-CITE-CITE-CITE-CITE-CITE-CITE

Your simulation uses code contributions which should be cited:

- USER-DEEPMD package:

@article{Wang_ComputPhysCommun_2018_v228_p178,
  author = {Wang, Han and Zhang, Linfeng and Han, Jiequn and E, Weinan},
  doi = {10.1016/j.cpc.2018.03.016},
  url = {https://doi.org/10.1016/j.cpc.2018.03.016},
  year = 2018,
  month = {jul},
  publisher = {Elsevier {BV}},
  volume = 228,
  journal = {Comput. Phys. Commun.},
  title = {{DeePMD-kit: A deep learning package for many-body potential energy representation and molecular dynamics}},
  pages = {178--184}
}

CITE-CITE-CITE-CITE-CITE-CITE-CITE-CITE-CITE-CITE-CITE-CITE-CITE

Neighbor list info ...
  update every 10 steps, delay 0 steps, check no
  max neighbors/atom: 2000, page size: 100000
  master list distance cutoff = 8
  ghost atom cutoff = 8
  binsize = 4, bins = 5 6 6
  1 neighbor lists, perpetual/occasional/extra = 1 0 0
  (1) pair deepmd, perpetual
      attributes: full, newton on
      pair build: full/bin
      stencil: full/bin/3d
      bin: standard
Per MPI rank memory allocation (min/avg/max) = 7.215 | 7.215 | 7.215 Mbytes
Step Temp PotEng TotEng E_pair E_mol Press Lx Ly Lz Volume Pxx Pyy Pzz Pxy Pxz Pyz 
       0          255    -134.9383   -106.49267    -134.9383            0    24493.946    18.207573    21.446115    22.213196    8673.8466    24372.166    25254.812    23854.861     1106.783   -266.79902   -868.86831 
     500    264.24297   -129.35117    -99.87447   -129.35117            0    6831.0661    17.762561     20.92195    21.670283    8053.2713    10786.223    3984.7934    5722.1816    1134.1745   -1564.9088   -1413.5124 
    1000    256.01029   -126.71451    -98.15618   -126.71451            0    9418.5208    17.636386    20.773333     21.51635    7882.8702    12231.325    8145.1065    7879.1309   -1974.7529    257.11124   -1501.2751 
    1500    248.30147   -127.67867   -99.980265   -127.67867            0    6510.1156    17.539243    20.658911    21.397835    7753.3269    6873.2989      3847.44     8809.608   -492.59812   -1986.3241   -415.97067 
    2000    255.70881   -126.06694   -97.542235   -126.06694            0    6434.8907    17.455778      20.5606    21.296008    7643.1642    6178.2348    7409.5526    5716.8846    -215.7751   -810.78979   -2858.2713 
    2500    258.13524   -124.99969   -96.204314   -124.99969            0    9432.2425    17.393147    20.486829    21.219598    7561.1884    11574.715    7281.6098    9440.4027    955.56454   -2247.8391   -1572.2945 
    3000    252.20993   -123.37784   -95.243439   -123.37784            0    5074.6912    17.320955    20.401796    21.131524    7467.4282    4476.7401    4124.9575    6622.3759   -1053.4379    2335.8414   -320.69566 
    3500     260.3938   -125.71232   -96.664995   -125.71232            0    3965.1863    17.319949    20.400611    21.130296    7466.1269    2300.0246    5122.1562    4473.3782    -685.9257   -1939.2317   -232.77989 
    4000    261.51155   -126.05335   -96.881342   -126.05335            0    7349.7584    17.254391    20.323393    21.050317    7381.6677    4129.5824    8387.4701    9532.2228   -1322.8301     213.7815    493.71762 
    4500    250.87087   -125.27663    -97.29161   -125.27663            0    5924.9414    17.270033    20.341816    21.069399    7401.7607    4680.8558    9847.9034     3246.065    1509.8373   -2199.3641    2341.7955 
    5000    246.15221   -124.36948   -96.910827   -124.36948            0    9367.7522    17.268017    20.339443     21.06694    7399.1698    8692.1912    8114.1666    11296.899      1788.71    966.43338   -1684.0305 
    5500    249.66813   -126.18845   -98.337599   -126.18845            0     7169.619    17.226907     20.29102    21.016786    7346.4498    6856.0004    7027.8372    7625.0194    3059.8345   -3039.2579    105.22358 
    6000    260.79003   -125.50789   -96.416368   -125.50789            0    8099.1815    17.157456    20.209216    20.932055    7257.9541    5402.5036     12024.95    6870.0909   -161.39925    1170.5197   -1371.6745 
    6500    257.43656   -126.48694   -97.769502   -126.48694            0    6834.6532    17.203187    20.263081    20.987847    7316.1448    5958.9681    7269.2503     7275.741    1505.4192   -481.51308   -753.27533 
    7000    250.54902   -123.08004   -95.130917   -123.08004            0    5993.5068     17.17523    20.230151     20.95374    7280.5337    6321.8042    6442.9015    5215.8146   -81.636526   -1853.7744     589.1888 
    7500    262.45638   -124.65914   -95.381731   -124.65914            0    9981.7556    17.105944    20.148542    20.869211    7192.7787    12023.675    10163.863    7757.7286    1196.4228     12.41615    556.80581 
    8000    259.49526   -125.26547   -96.318386   -125.26547            0    7421.4292    17.178353     20.23383     20.95755    7284.5068    7101.4073    4210.8679    10952.012   -596.44377   -1184.2312   -1937.0641 
    8500    260.15257   -125.85471   -96.834298   -125.85471            0    5804.2039     17.12068    20.165898    20.887189    7211.3831    2252.9763    9305.3935    5854.2417    2150.9613   -1589.0904    1926.2254 
    9000    265.28163   -125.06526   -95.472699   -125.06526            0    11287.574     17.12098    20.166252    20.887555    7211.7627    7280.6993    15646.948    10935.074    1236.3164    546.88052    413.46238 
    9500    256.52945   -124.41432   -95.798078   -124.41432            0    7540.9258    17.114208    20.158276    20.879294    7203.2089    6709.4866    7338.7283    8574.5624   -1512.5488    1358.5151   -386.57138 
   10000    264.10695   -124.41264   -94.951115   -124.41264            0    6480.9352    17.205674     20.26601    20.990881    7319.3176    5525.8852    6147.6026    7769.3179   -448.33429   -2110.8984    2628.4535 
   10500    271.52545   -123.86745   -93.578381   -123.86745            0    10475.796    17.127304    20.173701    20.895271    7219.7573    8759.4959    11614.557    11053.335   -2684.3239   -1554.7956    1566.0392 
   11000    264.55506   -125.80305   -96.291532   -125.80305            0    5451.9606    17.072587    20.109251    20.828516    7150.7822    4124.2643    4941.1652    7290.4522    3328.8979   -144.63934   -1764.2676 
   11500     265.7448   -126.87043   -97.226194   -126.87043            0    7692.9667    17.071342    20.107785    20.826996    7149.2176    5518.5478    7360.9286    10199.424    1832.7023    774.12396    758.26866 
   12000    253.48736   -124.53797   -96.261071   -124.53797            0     9009.801    17.099855     20.14137    20.861783    7185.1008    7789.1554    11571.162    7669.0858    1368.3147    649.80263    3436.6444 
   12500    257.15459   -125.38987   -96.703891   -125.38987            0     5022.803    17.140583    20.189342    20.911471    7236.5629    5716.9849    1807.3535    7544.0707    1126.1369    -392.3026    1403.2629 
   13000    263.03211   -124.93937   -95.597745   -124.93937            0    7446.1415    17.019905    20.047199    20.764243    7084.7892    8955.7546    7395.4991    5987.1708    1179.5079   -1487.1144   -376.78769 
   13500     242.0811   -125.20892   -98.204407   -125.20892            0    7402.5572    17.126048    20.172222    20.893739    7218.1694    5809.8811    9304.5671    7093.2233    712.74194   -533.08845   -451.03806 
   14000    245.11861     -125.154   -97.810647     -125.154            0    7733.9681     17.04247    20.073778    20.791773    7113.0061    7710.0311    7535.8954    7955.9778   -1034.9238   -1101.8012    -2705.772 
   14500    250.74713   -126.76606   -98.794837   -126.76606            0    11353.475    17.040849    20.071868    20.789795    7110.9765    10490.156    9356.4589     14213.81   -780.19287   -1300.0303    423.60588 
   15000    262.87325   -127.40243   -98.078524   -127.40243            0    6414.0067    17.195202    20.253676    20.978106     7305.962     4940.415    6702.5468    7599.0584   -640.65751    1060.9857    -2224.028 
   15500    255.29264    -125.1923    -96.71402    -125.1923            0    6275.9221    17.137589    20.185816    20.907818    7232.7716    5880.9144     3835.616    9111.2358    94.372124    560.62643    -198.0396 
   16000    266.97678   -126.80037   -97.018711   -126.80037            0    8899.0838    17.028529    20.057357    20.774765    7095.5647    8357.1165    6869.8113    11470.324     -2609.83   -211.59678    2357.4139 
   16500    258.20393   -126.00673   -97.203694   -126.00673            0    5447.9038    17.070924    20.107292    20.826486    7148.6926    5670.8674    4686.5516    5986.2924    647.17071   -324.78283   -1433.3084 
   17000    260.94691   -125.85674   -96.747722   -125.85674            0    11019.488    17.051661    20.084604    20.802986    7124.5205    11771.963    9775.0561    11511.446   -2371.5231    -1351.835    397.71749 
   17500    253.85269   -125.58256   -97.264908   -125.58256            0    4330.1286    17.087637    20.126979    20.846877    7169.7106    5695.0895    3943.5776    3351.7187    683.90142   -1314.5785     1061.202 
   18000    245.80294   -125.79782   -98.378133   -125.79782            0    9163.9781    17.000612    20.024475    20.740707    7060.7244    12062.115    10445.521    4984.2979    780.23833   -2490.4056   -3703.2004 
   18500    249.35602   -125.71523   -97.899189   -125.71523            0    8163.2291     17.02208     20.04976    20.766897    7087.5054    8987.3061    8309.1736    7193.2076   -1346.4669   -3494.2957    442.61371 
   19000    250.01705   -126.50569   -98.615909   -126.50569            0      6597.44    17.114632    20.158775    20.879811    7203.7442    5483.5112    6274.4128    8034.3959    2057.1854   -805.88533     1810.634 
   19500    265.34226    -126.8217   -97.222369    -126.8217            0    9575.7409    16.962633    19.979741    20.694373    7013.5096    12444.934    10793.335    5488.9534   -2719.3463   -1340.9396   -3839.7862 
   20000    245.83372   -126.75401   -99.330894   -126.75401            0    4397.6821    16.969889    19.988287    20.703225    7022.5137    4115.2364    5228.3886    3849.4211    1854.5279   -4508.4758   -2449.5771 
   20500    249.56774   -127.29321   -99.453555   -127.29321            0    8636.0934    17.012836    20.038872    20.755619    7075.9651    9287.0349    9127.7534    7493.4919    1250.4437   -3528.9017   -249.82285 
   21000    242.42424   -127.40529    -100.3625   -127.40529            0     7739.569    17.071265    20.107695    20.826903    7149.1216    8149.3039    8368.9696    6700.4336    1100.2318    1045.0206   -1267.2239 
   21500    249.30082   -128.47013   -100.66025   -128.47013            0    6602.5813    16.978468    19.998392    20.713691     7033.169     9843.347    6894.9123    3069.4847    1069.5325   -1938.1577    1486.5744 
   22000    254.32167   -127.73683   -99.366862   -127.73683            0    9516.6915    17.011913    20.037785    20.754493    7074.8135    12717.508    6637.6498    9194.9171    283.82805   -2467.4594    2697.1915 
   22500    243.46819   -126.40498   -99.245733   -126.40498            0    4912.0127    17.090542      20.1304    20.850421    7173.3673    6615.0955    2723.9503    5396.9924    2492.2102    1690.5852    456.38274 
   23000     248.7408   -127.05978   -99.312368   -127.05978            0    8596.4137    16.948119    19.962645    20.676666    6995.5217    5628.7419    10617.992    9542.5072    336.86463   -4258.3143   -561.07067 
   23500    253.43558   -126.58292   -98.311801   -126.58292            0    8133.0644    17.064504    20.099731    20.818655    7140.6312    10315.659    8488.6152    5594.9194    640.64801   -1119.1543    1071.7929 
   24000    259.57126   -125.62243   -96.666868   -125.62243            0    7985.1105    17.047651    20.079881    20.798094    7119.4956    3317.9404    10964.041    9673.3499   -2502.8472   -899.07445   -2261.6666 
   24500    252.59521   -126.29746   -98.120081   -126.29746            0    6883.8397    17.028652    20.057502    20.774915    7095.7183    4607.1202    8443.2009     7601.198    2213.3165   -2194.1083   -4265.4391 
   25000    257.52722   -125.44043   -96.712879   -125.44043            0    8104.6152    17.027329    20.055944    20.773301    7094.0648    4849.5853    10398.041     9066.219   -1843.9438   -1130.7354    743.68186 
   25500    257.71269   -126.85376   -98.105518   -126.85376            0    6658.8299    17.137797     20.18606    20.908071    7233.0341    4521.5918     8620.103     6834.795   -2996.2308   -1809.7323   -625.04374 
   26000    257.89557    -125.6657   -96.897061    -125.6657            0    5580.7963     17.01791    20.044849     20.76181    7082.2983    9888.1376    1532.4657    5321.7854   -2924.8541   -6.4535282    1350.6515 
   26500    254.76449   -127.94984   -99.530476   -127.94984            0    10668.821    17.066282    20.101825    20.820823    7142.8624    9322.6045     12355.62    10328.237    560.86397    2183.9799   -1211.1934 
   27000    254.27624    -125.7149   -97.349999    -125.7149            0    7123.9703    17.095117    20.135789    20.856002    7179.1297    8299.0874    6521.7051    6551.1184    -3273.321   -1587.4043     180.4354 
   27500    257.73729    -127.0688   -98.317815    -127.0688            0    6796.4114    17.041501    20.072636    20.790591    7111.7928     6575.426    9869.6789    3944.1293   -791.63553   -1367.6918    43.328967 
   28000    249.22758   -127.26333   -99.461618   -127.26333            0    7229.5299    17.073197     20.10997     20.82926    7151.5489    10229.439    5834.5649    5624.5862    1356.1302    1192.9194   -366.34417 
   28500    265.94218   -127.54315   -97.876898   -127.54315            0    6094.6555    17.075007    20.112102    20.831468    7153.8237     8020.213    6815.7013    3448.0521   -853.71838   -2153.2745   -2630.1045 
   29000    259.89727   -128.63465   -99.642714   -128.63465            0    5840.3992    17.065848    20.101314    20.820294    7142.3181    6084.1779    4573.4238    6863.5959    431.26375    3450.5192     23.66252 
   29500    267.97343   -127.96764     -98.0748   -127.96764            0    7709.6743    17.071377    20.107826     20.82704     7149.262    7827.9534    8924.6435    6376.4261     902.3173    3049.4588     50.57454 
   30000    264.58449   -126.05991   -96.545108   -126.05991            0    5272.5381    17.161328    20.213777     20.93678    7262.8699     2887.162    7649.5859    5280.8663    65.599714    202.41562    2087.8397 
   30500    262.07939   -126.56982   -97.334473   -126.56982            0    8197.1433     17.10238    20.144343    20.864863    7188.2832    9642.7474    6312.8227    8635.8597   -967.82438    88.230764    280.88291 
   31000    257.49773   -125.71681   -96.992552   -125.71681            0    5977.6147    17.056594    20.090414    20.809004    7130.7053    4210.9014     5147.165    8574.7778    741.25554   -318.00793    2131.0267 
   31500    254.98177    -125.9025   -97.458905    -125.9025            0    9969.8954    16.990502    20.012566    20.728372    7048.1342    12363.778    6665.5382     10880.37   -666.15543    2727.5055    890.59938 
   32000    254.14845   -126.56761   -98.216963   -126.56761            0     5696.005    16.983009    20.003741    20.719231    7038.8144    5577.6275    8046.0764    3464.3111   -3519.5244    172.79735   -2042.4422 
   32500    253.37039   -126.91864   -98.654796   -126.91864            0    6844.0244    17.169685    20.223621    20.946976    7273.4854    7004.7837    7484.6981    6042.5913     567.6658    898.94248   -1587.4541 
   33000    253.09998   -125.88382   -97.650132   -125.88382            0    5316.2391    17.043278     20.07473    20.792759    7114.0182    5780.4437    3751.7562    6416.5173   -1883.7489    2393.5752    2480.6489 
   33500    258.56898   -126.95496     -98.1112   -126.95496            0    5142.5856    17.014573    20.040919    20.757739    7078.1332    4953.6472     3366.803    7107.3067    1553.7555   -2061.3649    448.00621 
   34000    247.02812   -128.06848   -100.51212   -128.06848            0    7106.1055    17.114826    20.159004    20.880048    7203.9893    5327.9792    7946.8941    8043.4432   -214.93258   -1400.5659    751.29977 
   34500    248.47025   -128.78371   -101.06648   -128.78371            0    11451.851    17.025827    20.054175    20.771469    7092.1877    14061.424    10480.924     9813.206    1170.4602   -740.20407   -443.84595 
   35000    247.04132   -128.50129   -100.94346   -128.50129            0    7247.6162    17.043161    20.074592    20.792616    7113.8712    6925.0934    7765.0073    7052.7479     1815.135    1631.5288   -515.43695 
   35500    241.95424   -127.76264   -100.77228   -127.76264            0     6042.191    17.117287    20.161902    20.883049    7207.0962    6629.5729    5452.9696    6044.0305   -1311.9438   -1189.3294    851.06567 
   36000    248.89373   -127.32777   -99.563301   -127.32777            0    8951.3629    17.109933     20.15324    20.874078    7197.8121    6063.9326    11185.284    9604.8723    754.01191    2214.4038   -1795.0772 
   36500    248.69266   -126.06771   -98.325666   -126.06771            0    9806.9098     16.99796    20.021351    20.737471    7057.4204    7401.3092    12671.956    9347.4644   -842.30484   -1904.0672   -954.77119 
   37000    253.95456   -126.92615   -98.597133   -126.92615            0     6856.785    17.105937    20.148534    20.869203      7192.77      8013.56    6600.5404    5956.2546    3447.7484   -2200.4167    224.40961 
   37500     261.1219   -127.60286   -98.474317   -127.60286            0    7283.1799    17.049929    20.082563    20.800873    7122.3496    7681.4849    8162.0487    6006.0062   -1206.2483   -1600.2355   -70.915762 
   38000    258.96541   -126.25019   -97.362204   -126.25019            0    3384.6815    17.126324    20.172546    20.894074    7218.5173    3582.1467    4340.4594    2231.4384   -1171.7866   -850.43645    904.60963 
   38500    259.95878   -126.56782   -97.569031   -126.56782            0     5746.407    17.032002    20.061448    20.779003    7099.9073    5044.7926    6916.6561    5277.7723   -113.39638    1262.6427    3376.4643 
   39000    252.85398   -126.75921   -98.552966   -126.75921            0    11995.099    16.957745    19.973983    20.688409    7007.4478    12001.785    14605.347    9378.1651   -365.16982    -2121.262   -1165.7262 
   39500    255.01706   -127.31418   -98.866643   -127.31418            0      3446.91    17.152656    20.203562    20.926199    7251.8644    3717.8695    3181.6337    3441.2269    2314.1931    337.59329   -1361.5181 
   40000    259.31059   -127.57199   -98.645502   -127.57199            0    6492.6563    17.050345    20.083053     20.80138    7122.8703    8387.1436    8884.0412    2206.7841    2062.3244   -1613.8732   -3094.9015 
   40500    247.06803   -127.73695   -100.17614   -127.73695            0    8673.7761    17.107404    20.150261    20.870992      7194.62    7966.1564    7693.4372    10361.735   -653.64454   -993.75313    692.68402 
   41000    245.49513   -126.29706   -98.911712   -126.29706            0    8363.1425    17.076337    20.113668    20.833091    7155.4954    8049.6645    9937.3774    7102.3857   -26.978173    65.118169   -4394.4499 
   41500    254.37242   -126.92237    -98.54674   -126.92237            0    6816.2462    17.008314    20.033547    20.750103    7070.3252    4439.7044    4359.6907    11649.344     2320.831   -147.56162   -708.66836 
   42000    257.45299   -127.80646   -99.087188   -127.80646            0    6230.6218    17.087206    20.126471    20.846351     7169.168    6805.7576    6664.1515    5221.9564   -721.39349   -606.94719   -2523.2604 
   42500     269.0131   -128.18351   -98.174692   -128.18351            0    5895.0797    17.042592    20.073921    20.791922    7113.1587    4112.1223    6902.9148     6670.202   -2047.1671    -1520.793   -732.19145 
   43000    261.67125   -126.40042   -97.210603   -126.40042            0    10372.122    16.982534    20.003181    20.718652    7038.2238    14577.128    8587.9211    7951.3172    1317.2354   -1218.8603   -1437.7145 
   43500    249.90379   -126.64074   -98.763594   -126.64074            0    1918.8005    17.051659    20.084601    20.802983    7124.5176    3002.7252    1020.3807    1733.2955   -3003.0525   -451.81479    261.89851 
   44000    240.83556    -125.0337   -98.168131    -125.0337            0    6243.3064    17.027341    20.055957    20.773316    7094.0795    5520.2593    5889.3684    7320.2914   -88.858168    739.85805    644.40894 
   44500    259.81154   -126.92935   -97.946986   -126.92935            0    7188.8157    17.008164    20.033369    20.749919    7070.1371    6259.5308    8072.6321    7234.2841   -1291.1504   -3528.7426    1549.9644 
   45000    247.93939   -127.86839   -100.21038   -127.86839            0    8468.4594    16.982698    20.003374    20.718852    7038.4274    8532.8922    8330.0872    8542.3989   -1100.0675   -3147.7475    1531.4779 
   45500    248.28164   -127.49991   -99.803722   -127.49991            0    4586.3397    17.016239    20.042881    20.759771    7080.2125    5870.2297    4295.5867    3593.2028   -2480.3352    -2062.347     329.5669 
   46000    257.05747   -127.09999   -98.424839   -127.09999            0    6828.9269     16.97398    19.993105    20.708215    7027.5927     6819.722    5972.9186    7694.1402    1009.4118   -1414.4572    2962.9158 
   46500    256.57247    -126.8098   -98.188752    -126.8098            0    5688.0482    16.986172    20.007466    20.723089    7042.7471    4428.3129    6163.1318       6472.7   -813.48594   -348.04787     471.1904 
   47000    256.54708   -126.98992   -98.371709   -126.98992            0    7610.0437     17.08049     20.11856    20.838157    7160.7175    7720.3301    8254.9119    6854.8892    -904.1785    4346.8682   -2489.3202 
   47500    256.31914    -126.7805   -98.187714    -126.7805            0    5085.0354     17.06541    20.100798     20.81976    7141.7681    6249.2702    5030.0571    3975.7788    1919.6603    1055.6114   -2196.5223 
   48000    258.83691   -127.08221   -98.208566   -127.08221            0    5506.4628     17.11244    20.156193    20.877136    7200.9756    3707.0537    5099.6048    7712.7299   -1920.3571   -1242.6606      1603.07 
   48500    248.97134   -126.14707   -98.373946   -126.14707            0    7503.5616    17.038152    20.068692    20.786506    7107.6014    8025.7225    6323.6795    8161.2827    -1456.963    1297.1488    2128.2433 
   49000     256.4703   -125.87996   -97.270309   -125.87996            0     6357.753    17.060852    20.095429    20.814199    7136.0469    4240.2939    9891.2081    4941.7569   -1873.9173    -2032.186    2618.1144 
   49500     271.2854   -124.74406   -94.481764   -124.74406            0     7526.432    17.081456    20.119698    20.839336    7161.9329    4118.4296    9616.0017    8844.8648   -5289.0845   -1684.5783    554.13883 
   50000    259.76594   -126.18953   -97.212245   -126.18953            0    3968.2724    17.064506    20.099733    20.818657     7140.633    4764.7829     4775.411    2364.6233   -2107.6367   -408.40491    1492.4252 
   50500    256.85168   -127.76978    -99.11759   -127.76978            0    8725.6366    17.033864    20.063641    20.781273    7102.2354    11291.662     6390.805    8494.4433    122.47018   -2481.2307    2272.0003 
   51000    266.54862    -128.0683   -98.334396    -128.0683            0    6017.3577    16.997313    20.020588    20.736682    7056.6141    5133.9309    6830.1454    6087.9968    700.63397   -1100.9498     53.52038 
   51500    247.69306   -126.90242   -99.271883   -126.90242            0    7001.6833     17.02058    20.047994    20.765067    7085.6326    6890.3757    8245.8076    5868.8666    2093.2285    2917.5557    786.14649 
   52000    251.65389     -128.895   -100.82263     -128.895            0    7529.4587      17.0341    20.063919    20.781562    7102.5311    6562.4512     9262.109    6763.8158    -3442.371    1426.8046    35.799549 
   52500    260.16756   -127.25243   -98.230349   -127.25243            0    7124.9851    17.016498    20.043186    20.760087    7080.5355    6534.3863    5799.9322    9040.6367    319.38575    433.64376    3370.8937 
   53000    256.69539   -127.42784   -98.793084   -127.42784            0    4827.4053    16.959764     19.97636    20.690871    7009.9503    4469.2729    4419.0202    5593.9229    938.44174    3537.8095   -2613.3338 
   53500    256.56381   -128.22529   -99.605214   -128.22529            0    6809.4123     17.00254    20.026745    20.743058     7063.126    7310.2177      9669.37    3448.6492   -686.11455   -475.11006   -1614.7872 
   54000     256.0459   -127.09391   -98.531606   -127.09391            0    5078.4036    17.071711    20.108219    20.827447    7149.6815    5862.5835    6886.8365    2485.7907    308.34859    206.35058     3226.193 
   54500    247.85931   -128.98252   -101.33344   -128.98252            0    6527.4159    16.995989    20.019029    20.735066    7054.9653    8736.9056    3843.3031    7002.0391   -669.21198   -81.411992     888.6798 
   55000    252.61632   -127.90073   -99.721002   -127.90073            0     6382.024    16.981137    20.001536    20.716947    7036.4869    5489.7943    6864.0975      6792.18   -1244.2856   -73.114375    3420.6023 
   55500     251.7996    -128.4327   -100.34407    -128.4327            0    3659.9288    17.005452    20.030176    20.746612    7066.7564    6574.2745    2137.7992    2267.7127   -609.69994   -2305.8058    520.55895 
   56000    270.90048   -127.42088   -97.201521   -127.42088            0    8306.9494    16.970675    19.989213    20.704184    7023.4893    6787.7788    9082.3981    9050.6712    157.04115   -842.63562    4079.6667 
   56500    259.95687   -126.84296   -97.844381   -126.84296            0    8156.1579    17.004356    20.028885    20.745275    7065.3903    8625.9145    9169.5295    6673.0296    1625.4808    1580.8851    1282.4191 
   57000    252.23534    -127.5192   -99.381972    -127.5192            0    6391.2166    17.034237     20.06408    20.781729     7102.702    7986.0365    5602.6744    5584.9388   -146.79779     2240.487    -2108.879 
   57500    258.21017   -127.73413   -98.930393   -127.73413            0    7045.0239    17.016137    20.042761    20.759647    7080.0852    7785.9358    7581.1417    5767.9943    -141.8328   -1203.2372    2506.9406 
   58000    255.14246   -127.97356   -99.512035   -127.97356            0    8019.0138    16.979242    19.999304    20.714636    7034.1316    5094.0645    9446.1406    9516.8362   -1703.6106   -463.80074    410.13095 
   58500    253.25954    -127.8346   -99.583113    -127.8346            0    7627.8489    16.989429    20.011302    20.727063    7046.7991    10275.156    5839.5209    6768.8696    3433.7282    2003.8469    1413.1941 
   59000    256.75207   -126.92069   -98.279605   -126.92069            0    9351.2058    16.978685    19.998648    20.713956    7033.4393    9844.4311     7121.999    11087.187   -2463.5444    5.2519217    632.76391 
   59500    248.05416   -126.54572   -98.874906   -126.54572            0    2655.6499    17.037285    20.067671    20.785448    7106.5163    2604.0047     2944.708     2418.237    407.41584    460.42084    2521.0453 
   60000    250.45499   -127.29812   -99.359485   -127.29812            0    8924.6098    16.969456    19.987777    20.702696     7021.976    9477.4566    11218.936    6077.4372   -1690.6014    558.59928    303.65603 
   60500    249.24685   -128.26513   -100.46127   -128.26513            0    8131.5446    16.992269    20.014648    20.730528    7050.3339    11354.598    3827.4581    9212.5776   -85.386283      1482.75    2819.3732 
   61000    262.10374   -128.79426   -99.556191   -128.79426            0    5624.2981    17.063328    20.098346     20.81722    7139.1545    7138.2086    3971.2301    5763.4556    882.46073    419.79767   -1245.4431 
   61500    258.75629   -127.26754   -98.402883   -127.26754            0    8645.9831     16.95539    19.971209    20.685536     7004.529    9278.7085    7513.4743    9145.7665    960.12117    512.13944    875.52478 
   62000    253.29192   -126.77802   -98.522929   -126.77802            0    3496.5845    17.005647    20.030405    20.746849    7066.9989    1386.9226    4138.8407    4963.9903    1983.2774    1248.4966    2649.9311 
   62500    248.51695   -126.79114   -99.068701   -126.79114            0    8183.0017    17.050726    20.083503    20.801846    7123.3489    4148.3379      9224.87    11175.797   -2142.9895    1972.0216   -450.90568 
   63000    258.54634   -125.62332   -96.782081   -125.62332            0    6386.3549    16.977631    19.997405    20.712669    7032.1284    4527.5877    7498.8212    7132.6558    2203.7453   -1776.2165     2793.364 
   63500    249.55008   -127.78272   -99.945033   -127.78272            0    7622.8448    16.987065    20.008518    20.724179    7043.8582    5277.3294     8331.552    9259.6529   -1340.2014    2494.0033    169.31961 
   64000    251.13092   -126.41692   -98.402889   -126.41692            0    8532.7151    17.033513    20.063227    20.780845    7101.7963    7459.5954    5503.4252    12635.125   -550.58252   -161.03162    3490.6332 
   64500    258.14494   -127.63571   -98.839252   -127.63571            0    8383.1726    17.004206    20.028708    20.745091    7065.2028    7821.3003    7023.1699    10305.048   -605.87342    1447.1425    142.54012 
   65000    252.58625   -128.64418   -100.46781   -128.64418            0    4731.9392    16.999835    20.023559    20.739759     7059.756    1403.2384    4723.4815    8069.0975    2609.5375   -1279.5363   -596.78738 
   65500    248.32336    -127.1793   -99.478457    -127.1793            0    7590.2401    16.967497    19.985469    20.700306    7019.5439    7183.0268    7641.9829    7945.7106    2092.7556   -708.34906   -2883.5135 
   66000    264.52121    -126.7331   -97.225357    -126.7331            0    6858.3957     16.89234    19.896945    20.608615    6926.6785    7704.5579    4251.3879    8619.2412    496.45138    2495.9537   -2819.5302 
   66500    253.66575   -126.77126   -98.474464   -126.77126            0    6685.6147    17.004151    20.028643    20.745024    7065.1343    8979.6004    6202.7394    4874.5043   -841.82455    1959.0791    2028.6446 
   67000    244.59366   -126.99735   -99.712556   -126.99735            0    6264.2737    17.008957    20.034303    20.750887    7071.1261    8278.9431    5885.7499    4628.1282   -1133.7136   -795.06096   -897.95816 
   67500    257.21186   -129.05072   -100.35835   -129.05072            0    8258.8817    16.931553    19.943132    20.656455    6975.0283    9884.8511    6523.3536    8368.4405   -1415.5012    805.70403   -667.79958 
   68000    249.73232    -128.5454   -100.68739    -128.5454            0    4572.4439     17.07196    20.108513    20.827751    7149.9947    1689.7698    6892.3559    5135.2059   -476.40922   -362.05956    1338.6533 
   68500    260.58916   -128.40408   -99.334972   -128.40408            0    8819.3954    16.939216    19.952158    20.665803    6984.5024    8406.3952    11126.968    6924.8231   -86.982842   -2868.8898    305.40715 
   69000     238.4573   -127.29896   -100.69869   -127.29896            0    5081.9108    17.045731    20.077618    20.795751    7117.0896    6935.9945    5359.5707    2950.1673    -269.7378   -677.93167   -831.90786 
   69500    246.64537   -127.93553   -100.42187   -127.93553            0    6696.9781    16.992522    20.014945    20.730836    7050.6485    6959.0372    8138.5364    4993.3608    1870.8962   -675.75124   -3858.7719 
   70000    249.02893   -128.00966    -100.2301   -128.00966            0    6918.8479    17.007827    20.032973    20.749509    7069.7178    5808.3465    8263.4902    6684.7068   -1120.5175    157.99621    3370.4463 
   70500    246.30535    -128.0207   -100.54497    -128.0207            0    8565.6961     17.04518    20.076969    20.795079    7116.3993    7415.1988    10960.537    7321.3523   -4631.0739   -1138.0147    2022.3465 
   71000    249.84688   -128.05707   -100.18628   -128.05707            0    7977.1985    17.006005    20.030826    20.747286    7067.4452    9055.4734    8565.7221    6310.3999    3091.9689    1993.6817    236.47757 
   71500    256.45583   -129.30148   -100.69345   -129.30148            0    4030.5399    17.079264    20.117117    20.836662    7159.1762     3873.104    3485.0219    4733.4938   -478.76625    1249.9418   -736.59736 
   72000    269.90212   -127.12962   -97.021633   -127.12962            0    6699.2596    17.096518    20.137439    20.857711    7180.8944    5869.8362    5812.7083    8415.2344    4099.0441    751.91094    389.88544 
   72500    260.82538   -128.24853   -99.153067   -128.24853            0    6374.4176    17.050033    20.082686       20.801    7122.4796    10141.279    5000.5776    3981.3963    433.15164     2160.893    3298.5973 
   73000    252.75028    -128.4118   -100.21712    -128.4118            0     7621.625    17.032205    20.061686    20.779249    7100.1604    11912.093    6753.6866    4199.0954    356.64394   -1615.4731   -953.51199 
   73500     256.4521   -128.89629   -100.28867   -128.89629            0    4384.9372    17.097985    20.139167    20.859501    7182.7431    3479.8405    5262.8134    4412.1576    1736.6214   -620.70735   -486.39637 
   74000     244.3832   -128.13584   -100.87452   -128.13584            0    8285.8116    17.092527    20.132738    20.852843    7175.8673    7900.5878     7073.216    9883.6311     -444.772    528.03835    498.04545 
   74500    260.09209   -129.69713   -100.68347   -129.69713            0    10191.376    17.170883    20.225031    20.948437    7275.0078     12607.44     12995.76    4970.9279    1164.4882    2105.4891   -2208.2022 
   75000    255.62849   -127.90857   -99.392826   -127.90857            0    8119.9026    17.071984    20.108542     20.82778    7150.0251    12166.346    6212.7308    5980.6311   -2790.2472    579.88479    40.621537 
   75500    243.06352   -128.78292   -101.66882   -128.78292            0    7913.6341    17.104337    20.146649    20.867251    7190.7518    8617.3714    6100.6838    9022.8472    600.77239    -1386.819    1451.2841 
   76000    253.15368   -129.01144   -100.77177   -129.01144            0    9283.7755    17.100245    20.141829    20.862258     7185.592    9269.7785    11568.962    7012.5864   -161.83978    23.613658   -246.38292 
   76500    236.39539   -130.32802   -103.95776   -130.32802            0    7124.5833    17.057389     20.09135    20.809974    7131.7027     9269.213    4545.1279     7559.409    1824.3334    1887.8282     2617.235 
   77000    240.34391   -129.82113   -103.01041   -129.82113            0    6072.6475    17.030747    20.059969    20.777471    7098.3373    5578.9741    7185.8066    5453.1616    1396.4136    898.43797    2189.4081 
   77500    252.49344   -128.34911   -100.18309   -128.34911            0    8171.0366    16.982191    20.002777    20.718233    7037.7967    13480.693    5160.7853    5871.6316   -655.35431   -1765.2032   -265.02429 
   78000    261.64947   -127.69237   -98.504979   -127.69237            0    4192.8131    17.164608     20.21764    20.940781    7267.0341    4937.3467    4927.8594    2713.2333    916.85273    -706.5164    41.262907 
   78500    261.33992   -130.17444   -101.02158   -130.17444            0     8942.614    16.995476    20.018425     20.73444    7054.3262    11627.804    7452.7048    7747.3336   -73.195264   -2755.8606    236.44893 
   79000    253.08393    -129.3801    -101.1482    -129.3801            0    6389.2861    17.028958    20.057863    20.775289    7096.1012    6271.3909    5222.6317    7673.8355    1080.9772    1282.8628    992.57303 
   79500    262.59191   -127.33688    -98.04436   -127.33688            0    6086.8511     17.04565    20.077523    20.795653    7116.9886    13139.864    4643.0849    477.60458    1948.8521    1139.3761    -1514.972 
   80000    262.02183   -126.97323   -97.744302   -126.97323            0    9831.0639    16.993428    20.016013    20.731942    7051.7768    10245.166    8015.6982    11232.327    497.02149    1562.6151    1972.4631 
   80500     257.7304   -128.52836    -99.77815   -128.52836            0    3230.7779    17.111604    20.155208    20.876116    7199.9203    5082.6536    2243.8459    2365.8344    332.49229   -406.46011     798.4851 
   81000    251.00312   -128.58322   -100.58344   -128.58322            0    5771.5716    17.065502    20.100906    20.819872    7141.8835    8198.7629    5384.5905    3731.3615    289.83022    1054.3777    100.03168 
   81500    259.78072   -129.38152   -100.40259   -129.38152            0    6624.2262    17.032911    20.062519    20.780112    7101.0443    9059.1531    3922.7707    6890.7549   -132.34111   -1800.0122     -1599.53 
   82000    247.74615   -128.71412   -101.07767   -128.71412            0    4759.7281    17.057621    20.091623    20.810257    7131.9931    2895.5599    5262.8971    6120.7274   -205.87296   -2724.2724   -15.846055 
   82500    263.34131   -127.16017   -97.784054   -127.16017            0    10790.699    17.035968    20.066119    20.783841    7104.8681    8873.8287    11040.087    12458.181    359.39084    372.10051   -2363.8119 
   83000    253.45272   -127.25821   -98.985174   -127.25821            0    4621.2742    17.113384    20.157305    20.878289    7202.1685    8356.7171    2336.8737    3170.2316   -2344.8015    2121.5571    2778.4093 
   83500    258.11425   -128.42551    -99.63248   -128.42551            0    7212.5248    17.079092    20.116914    20.836452    7158.9595    8989.1884    6977.0074    5671.3786    625.01273   -298.39108      3028.65 
   84000     267.4698   -127.26718   -97.430519   -127.26718            0    6785.4292    17.013167    20.039263    20.756024    7076.3787    7722.6174    3394.4705    9239.1997   -1268.8379   -307.82064   -1644.5432 
   84500    255.00867   -127.69499   -99.248391   -127.69499            0    7924.9998    17.121668    20.167063    20.888395    7212.6326    7367.3784    6161.7158    10245.905    487.93026   -857.95856   -1857.3152 
   85000    252.62677   -128.51037   -100.32947   -128.51037            0    6904.0074    17.043256    20.074704    20.792732    7113.9904    5958.5658    7577.9837    7175.4728    1677.2536    1861.5852    738.08345 
   85500    260.78508   -127.96059   -98.869626   -127.96059            0    10857.875    17.043043    20.074453    20.792472    7113.7238    9076.6856    12658.856    10838.083   -172.10206   -783.11784    123.10149 
   86000    257.45106   -128.71372   -99.994671   -128.71372            0    6186.0773    17.115729    20.160067    20.881148    7205.1285    5336.4425    4143.0953     9078.694   -2347.7255   -1149.8306   -1045.6021 
   86500    250.74561     -129.156   -101.18495     -129.156            0    8547.3418    17.164968    20.218064     20.94122     7267.492    6864.0256    10933.835     7844.165   -14.748302    273.46414    -599.9426 
   87000    245.36614   -128.72117   -101.35021   -128.72117            0    4884.2524    17.109902    20.153204     20.87404    7197.7731    4345.3248    7216.3103    3091.1221   -572.77667    1655.0647    1504.4863 
   87500    259.49785   -128.44572   -99.498341   -128.44572            0    6894.7159    17.006697    20.031642     20.74813    7068.3084    4922.8647    7479.4422    8281.8408    636.01432     36.76249    1587.8677 
   88000    250.58915   -127.55943   -99.605835   -127.55943            0    5979.1674    17.096486    20.137402    20.857673    7180.8549    7147.3984    10791.668   -1.5639641   -829.28464   -498.47293    1008.3692 
   88500    256.81469    -128.3985   -99.750437    -128.3985            0    5745.1951    17.107708    20.150619    20.871363    7195.0039    7053.7107    2620.2583    7561.6165    2901.2518    -34.57823    -98.00842 
   89000    240.06259   -128.50236   -101.72302   -128.50236            0     8212.257    17.045641    20.077513    20.795642    7116.9772    6001.9354    13102.096    5532.7398   -2939.1887    863.23371    3009.5788 
   89500     247.9777   -129.45516   -101.79287   -129.45516            0     5436.463    17.049728    20.082327    20.800628     7122.098    7664.7478    1976.9544    6667.6868    69.757173   -654.72168   -1123.0719 
   90000    246.22316    -129.4329   -101.96634    -129.4329            0     7746.015    17.064782    20.100058    20.818994    7140.9795    5087.8962    5863.4398    12286.709     452.8361   -4335.7815      966.536 
   90500    254.72744   -128.31585    -99.90062   -128.31585            0    5067.8404    17.107641    20.150541    20.871282      7194.92     4943.114    3631.8416    6628.5655    2013.2787    850.77885   -1136.2621 
   91000    251.40156    -127.2771   -99.232882    -127.2771            0    5447.0113    17.112059    20.155744    20.876672    7200.4953    7790.5955    3107.3579    5443.0806   -1049.5198     1482.309    518.14971 
   91500    243.75029    -129.2884   -102.09769    -129.2884            0    3142.9333    17.092755    20.133007    20.853121    7176.1548    3397.6891    1116.3348    4914.7759    1102.6219    958.32189   -4478.0954 
   92000    255.05273   -128.40079   -99.949276   -128.40079            0    11246.043    17.086162    20.125241    20.845077    7167.8532     10674.39    13546.593    9517.1473   -2070.8607    2366.6928   -57.849001 
   92500    245.74864   -127.83567   -100.42204   -127.83567            0    7416.4172    17.132075    20.179321    20.901091    7225.7925    7456.8194    5171.7629    9620.6693    375.09564    -841.9164   -2128.6285 
   93000    252.97309   -128.55913    -100.3396   -128.55913            0    5964.6402    17.134432    20.182097    20.903967    7228.7753    5871.5294    7388.9043    4633.4868   -1233.1295   -1786.1788    1449.1865 
   93500     253.4761   -128.53604    -100.2604   -128.53604            0    10292.464    16.977408    19.997143    20.712397    7031.8517    8471.0234    10755.619     11650.75   -89.765588    1389.6009   -879.59412 
   94000    251.68446   -129.33427   -101.25849   -129.33427            0    6624.9539    17.088945    20.128519    20.848472    7171.3564    4877.3809    5599.0296    9398.4511   -986.58481    -1327.183   -862.71373 
   94500    254.76142   -130.43409   -102.01507   -130.43409            0    5233.6387    17.095701    20.136476    20.856714    7179.8649    6491.6788    2833.4919    6375.7453   0.78259167   -3705.2785    1320.9343 
   95000    236.88594   -129.53862   -103.11363   -129.53862            0    8250.4501    17.019183    20.046348    20.763363    7083.8875    8062.2196    4039.9075    12649.223   -256.81675    349.25183   -389.87089 
   95500    248.00517   -129.26691   -101.60156   -129.26691            0    6155.8218    17.160063    20.212287    20.935237    7261.2639    4393.3644    8864.7045    5209.3964    -852.0521   -28.848437    69.587452 
   96000    261.69683   -129.23528    -100.0426   -129.23528            0    9355.7604     17.08699    20.126216    20.846087    7168.8957    10343.466    8451.2339    9272.5811    2291.5711   -662.86907   -427.61914 
   96500    262.50631   -128.68575   -99.402774   -128.68575            0    7452.2445    17.006246     20.03111     20.74758    7067.7459    7498.3434    6220.8814    8637.5087   -1099.6738   -376.11038     98.12766 
   97000    245.84355   -128.16779   -100.74357   -128.16779            0    4904.1002     17.06296    20.097913    20.816771    7138.6931    5645.7806    4917.3193    4149.2006   -541.13817   -465.90728   -1813.4054 
   97500    251.65849   -127.85272   -99.779834   -127.85272            0    7887.2226    17.038164    20.068706     20.78652    7107.6158    9432.0132    7917.6967    6311.9578   -387.33613   -2512.0776    977.78254 
   98000    250.66194   -129.70768   -101.74596   -129.70768            0    6944.9873    17.071658    20.108157    20.827383    7149.6154      7232.72    4140.8478    9461.3942   -701.20154   -907.27608   -2715.8274 
   98500    262.97755    -130.2879   -100.95236    -130.2879            0     7773.167    17.039586    20.070381    20.788255    7109.3956     9111.542    7269.0744    6938.8845    645.48523    2314.4699    827.27164 
   99000    249.07381   -129.64503   -101.86047   -129.64503            0    4498.2615    17.098164    20.139378    20.859719    7182.9688    5455.4825    2373.3026    5665.9995   -360.08605   -1889.3808    103.45367 
   99500     264.9055   -128.60973   -99.059118   -128.60973            0    8473.8921    17.093985    20.134455    20.854621    7177.7029    7194.0303    8045.1053    10182.541    639.38367    272.26787   -1887.4567 
  100000    261.98167   -129.74527   -100.52082   -129.74527            0     6883.064    17.078316       20.116    20.835505    7157.9838    8430.0184    5758.2114    6460.9622    388.10724     371.1295   -2009.4423 
  100500    256.91267   -128.88555   -100.22656   -128.88555            0    7083.4255    17.087759    20.127122    20.847025    7169.8629    6218.9691     8759.592    6271.7154    -2990.206    1998.5041    134.55948 
  101000    248.35837   -128.84053   -101.13578   -128.84053            0    8058.1808    17.071568    20.108051    20.827272    7149.5018    6577.4591    8538.0465    9059.0368     2754.799    583.12387   -1386.5846 
  101500    248.84651   -129.32202   -101.56282   -129.32202            0    6902.2673    17.094874    20.135503    20.855706    7178.8239    5885.9218    9694.1598    5126.7205   -3409.4886     1906.794    160.70358 
  102000    251.46128   -129.42861   -101.37773   -129.42861            0    7484.1978    17.032521    20.062059    20.779635    7100.5559    7289.9345    7775.8249    7386.8339    2255.2154     4441.119    1943.1181 
  102500    250.16429   -129.66816   -101.76196   -129.66816            0    3969.0304    17.111053    20.154559    20.875444    7199.2248    5563.2368    2926.0543    3417.8001    1706.7665    1215.6071    3390.0648 
  103000    254.95215   -128.68276   -100.24246   -128.68276            0    7832.8651    17.006118     20.03096    20.747424    7067.5863    10203.212    7599.5593     5695.824    1138.8404    1149.6835   -264.46394 
  103500    258.89076   -130.70483   -101.82517   -130.70483            0    6838.0021    17.008481    20.033743    20.750307    7070.5333    7537.6238    9034.6024      3941.78   -1567.4272    -1423.708    3795.9593 
  104000    262.40472   -129.65387   -100.38223   -129.65387            0    7070.8813    17.040677    20.071665    20.789585    7110.7607    5389.6975     6091.074    9731.8724   -296.81731   -1559.6258    547.57681 
  104500    257.49791    -130.0063   -101.28202    -130.0063            0    8128.4754    16.980055    20.000261    20.715627    7035.1414    8548.0603    10363.024    5474.3413   -1689.4997   -2309.3782    1159.6708 
  105000    257.56574   -128.77345    -100.0416   -128.77345            0     6573.457    17.124716    20.170652    20.892113    7216.4843     5306.917      6671.08     7742.374   -2277.2337    753.30257    229.44972 
  105500    245.58351    -126.8977   -99.502488    -126.8977            0    4475.5516     17.02545    20.053731    20.771009    7091.7166    3779.4021    5968.1802    3679.0724   -2336.0569    2336.3007    2419.3331 
  106000    253.83439   -129.25755   -100.94194   -129.25755            0    6082.7702     17.04918    20.081681    20.799959    7121.4112    6943.6897    3331.1525    7973.4684    154.47841   -345.19737    1803.1747 
  106500     252.7804   -129.37548   -101.17744   -129.37548            0    6931.8892    17.128388    20.174977    20.896592    7221.1275    7435.6486      7678.19     5681.829   -1404.7437    171.66833   -997.72303 
  107000    254.57514   -129.50624     -101.108   -129.50624            0    10491.602    17.111892    20.155548    20.876468    7200.2846    10359.684    11046.502    10068.621    2096.8862     3235.844    1341.8481 
  107500    253.65568   -128.55115   -100.25547   -128.55115            0    10543.624    17.103144    20.145244    20.865796    7189.2476     9512.573    10978.587    11139.713   -1369.5851    100.57198    203.25932 
  108000    247.52403    -127.5495   -99.937817    -127.5495            0    7678.7292    17.094423    20.134971    20.855155    7178.2551    10324.473    6527.9521    6183.7624    108.12014   -363.85357    1094.0106 
  108500    266.63193   -129.43368   -99.690491   -129.43368            0    7087.6109     17.09957    20.141034    20.861435    7184.7409    7303.9718    4494.1123    9464.7486   -2920.9514    1728.7828    1123.6795 
  109000    244.92193   -128.11108   -100.78967   -128.11108            0    7320.9255    17.073899    20.110797    20.830116    7152.4312    6555.2543    9489.8818    5917.6403   -333.85845     2021.614    2167.2405 
  109500    252.47395   -128.21082   -100.04697   -128.21082            0    4241.5922    17.059861    20.094262     20.81299    7134.8038    5699.7915    4349.9696    2675.0154    490.99035   -1722.3656   -4.4754525 
  110000    255.94038   -129.02855   -100.47802   -129.02855            0    8595.9088    17.060103    20.094547    20.813285    7135.1073    7347.1213    10433.056    8007.5488   -992.74857   -2396.5225    2562.0889 
  110500    252.71219   -130.32925   -102.13883   -130.32925            0    4880.6077    17.040831    20.071847    20.789773    7110.9535    3929.8624    5476.0028    5235.9581    176.07709   -192.62893    1343.2727 
  111000    259.69153   -129.59202   -100.62304   -129.59202            0      10084.9    17.091784    20.131862    20.851935    7174.9307    12475.516    8664.2762    9114.9081    798.35766    1995.5845    446.21089 
  111500    263.70528   -129.65567   -100.23895   -129.65567            0    3253.4433    17.014625     20.04098    20.757803    7078.1986    4132.4159     2305.565    3322.3489     500.9948    321.05623   -3960.4662 
  112000     260.7594   -129.71686   -100.62876   -129.71686            0    6640.9833    17.063451     20.09849    20.817369    7139.3084    8481.0719    4993.3713    6448.5067   -1131.8111   -1123.5355   -828.33772 
  112500    248.79762   -129.12424   -101.37049   -129.12424            0     6783.656    17.100014    20.141556    20.861976    7185.3004    8490.4787    5042.9508    6817.5384    162.41084    1696.6778   -523.89764 
  113000     261.3108   -129.27291    -100.1233   -129.27291            0    7427.4919    16.943088    19.956719    20.670528    6989.2936     9016.729    9630.5754    3635.1713     472.8282    281.78021   -2680.1609 
  113500    252.20481   -128.80204   -100.66822   -128.80204            0    3900.7835    17.096159    20.137016    20.857274    7180.4426    3803.8003    2155.8218    5742.7284    3286.9527    2093.7072    2160.2669 
  114000    245.66761   -127.42454   -100.01995   -127.42454            0    5901.6636    17.096188    20.137051    20.857309    7180.4795     7080.166     7061.807     3563.018   -2186.8924   -816.02172    -480.8709 
  114500    259.86529     -126.443   -97.454637     -126.443            0    5173.4631    17.053111    20.086312    20.804755    7126.3383    4241.5565    5464.1193    5814.7134    1879.0942    81.093594   -2136.0341 
  115000    259.48109   -127.80187   -98.856368   -127.80187            0    6857.5726    17.053045    20.086234    20.804675    7126.2555    8283.2352    4332.6929    7956.7897   -1382.2277    310.66342   -1549.5254 
  115500    252.58257   -126.34341    -98.16744   -126.34341            0    7663.6001    17.113418    20.157346     20.87833    7202.2115    4850.0701    11719.053    6421.6769    719.58289   -867.57652   -1058.7995 
  116000    246.67164   -127.47078   -99.954191   -127.47078            0    7277.0723    17.121364    20.166705    20.888024    7212.2483    5714.1809    9805.5689    6311.4671   -1072.0407    -2434.003   -1452.0312 
  116500    268.27614   -127.25023   -97.323624   -127.25023            0    10284.568    17.000227    20.024021    20.740237    7060.2447    9188.6412    9925.2935     11739.77   -787.18025    594.80118    1157.0434 
  117000    237.01031   -127.38081   -100.94195   -127.38081            0    7580.1635    17.017916    20.044856    20.761817    7082.3061    4968.1629    8488.6546     9283.673   -4180.3793   -484.48796    2138.7436 
  117500    249.03073   -128.53646   -100.75671   -128.53646            0      9954.31    17.072063    20.108635    20.827877    7150.1245    10009.851    12261.251    7591.8276    2154.6257    48.094563   -475.84977 
  118000     253.0865   -129.33491   -101.10273   -129.33491            0    7110.7568    17.003944    20.028399    20.744771    7064.8762    6819.2437    6697.5803    7815.4462    -1662.262   -1301.6721   -1620.1461 
  118500    248.66932   -127.93803   -100.19859   -127.93803            0    4868.2527    17.047595    20.079814    20.798025    7119.4245    6803.5794    3427.7407     4373.438   -27.581782    1214.3711    750.62893 
  119000    245.43909   -128.62732   -101.24822   -128.62732            0    5092.3411    17.063724    20.098813    20.817703     7139.652    5101.3017    2862.8388    7312.8827   -1354.4106   -3047.5785    1754.7586 
  119500    252.27071   -127.81033   -99.669156   -127.81033            0    7896.3117    17.027757    20.056448    20.773823    7094.5997    6144.0287    9534.0048    8010.9016    1390.8292    3865.4546   -1908.3295 
  120000    261.64182   -129.07638   -99.889845   -129.07638            0     6400.001    17.040548    20.071514    20.789428    7110.5995    9200.5714    5946.7782    4052.6534    784.00865    555.36333    1918.3848 
  120500    252.73715   -127.88714   -99.693934   -127.88714            0    7599.9734    16.981963    20.002509    20.717955    7037.5137    9353.4406    10095.957    3350.5229    945.50855     2382.502   -621.14711 
  121000    251.76721   -127.57458   -99.489573   -127.57458            0    8553.9741     17.03064    20.059843     20.77734    7098.2033    9465.7589    8447.0404    7749.1228    -2508.649   -1494.0393    1689.5154 
  121500    251.89476   -128.13983    -100.0406   -128.13983            0    3037.3445    17.033105    20.062747    20.780348    7101.2869    5251.0173    2185.7282    1675.2879    -2558.261   -194.07124   -430.52041 
  122000    256.15832   -127.00186   -98.427012   -127.00186            0    4437.0619      17.0228    20.050609    20.767776     7088.406    3682.3879    5725.8543    3902.9433   -617.06576    -922.5815   -2327.3385 
  122500    264.56653    -127.2078    -97.69501    -127.2078            0    4061.2472    17.114089    20.158135    20.879148    7203.0578    5692.2775    3758.4222    2733.0418   -1731.3003   -518.72057     1671.118 
  123000    259.71054   -128.26922   -99.298115   -128.26922            0     9853.574    16.936994    19.949541    20.663093    6981.7542     8990.453    9876.9564    10693.313   -396.44246   -2079.8197    245.74168 
  123500    245.60509   -128.13563   -100.73801   -128.13563            0    2683.7167    17.055538     20.08917    20.807716    7129.3811    2067.0132    3205.4798    2778.6573    455.40806   -836.15638    1543.6994 
  124000    257.27501   -128.44856   -99.749142   -128.44856            0    8691.3423    17.085741    20.124745    20.844563    7167.3235    9657.0799    11111.352    5305.5947   -138.14089   -1314.5585      1318.64 
  124500    260.20325   -128.65322   -99.627161   -128.65322            0    8184.8885    17.013962    20.040199    20.756994    7077.3708     6755.402     8205.764    9593.4994   -1135.4336   -336.84721    403.06019 
  125000    251.23313    -126.7244   -98.698961    -126.7244            0    5417.8405    17.078989    20.116792    20.836326    7158.8298    4247.3215    5621.5852    6384.6148    1038.0617   -2053.0558    736.37177 
  125500    263.27451   -127.81972   -98.451055   -127.81972            0      8327.93    17.075472     20.11265    20.832036    7154.4085     7801.559    8328.9749    8853.2562   -429.64699    3210.9023    764.82749 
  126000    261.95952   -127.86247   -98.640487   -127.86247            0    7285.8734    16.981899    20.002433    20.717876    7037.4335    7997.7408    7936.4566    5923.4228    -1159.617   -1304.8168    341.21204 
  126500    239.46336   -127.66365   -100.95115   -127.66365            0      5458.78    17.040201    20.071105    20.789005    7110.1656    4171.6217    4775.6282      7429.09   -89.905111    750.92709    298.07879 
  127000    256.33426   -128.03994   -99.445466   -128.03994            0    12276.086    17.008808    20.034128    20.750706    7070.9408    13694.723    13490.883    9642.6523    930.70265    1514.2575    184.47561 
  127500    264.49138   -128.87163   -99.367219   -128.87163            0    7900.8929    16.978673    19.998634    20.713941    7033.4242    3343.9411     11421.29    8937.4476   -1840.3975   -1867.3851   -1652.2917 
  128000    260.01555   -129.13098   -100.12585   -129.13098            0     5666.741    17.059797    20.094187    20.812912    7134.7234    5391.5591    6946.5212    4662.1426   -1874.3866    4283.2918   -1022.9918 
  128500    254.18937   -127.30949   -98.954279   -127.30949            0    9119.3242    17.011181    20.036923    20.753601    7073.9008    12188.879    5500.2869    9668.8065    1974.9776   -2494.8729    -2221.291 
  129000    262.29874   -128.12855   -98.868735   -128.12855            0    8832.1717    16.973694    19.992768    20.707866    7027.2378    9167.6631    7732.6171    9596.2348   -1715.4788    1652.8188   -1218.6466 
  129500    247.40555   -126.57138   -98.972918   -126.57138            0    7035.4667    17.050151    20.082824    20.801143    7122.6271    4837.7406    9979.4085    6289.2512    206.91555    1546.6229    1033.5573 
  130000    252.86846   -128.51184   -100.30399   -128.51184            0    10150.879    16.941154    19.954441    20.668168    6986.8999     12863.39    12028.257    5560.9894   -2012.7548   -2617.5727   -5683.7615 
  130500    253.77101   -127.58573   -99.277193   -127.58573            0    4923.7641    16.996206    20.019285    20.735331    7055.2359    4032.7722    5919.7368    4818.7834    2100.5006   -198.64766   -6555.3713 
  131000    246.56641     -128.716   -101.21115     -128.716            0    3942.6068    17.025108    20.053327    20.770591    7091.2887    3733.9469    3811.8721    4282.0014    1760.5583   -877.93072   -781.07692 
  131500    253.36639   -129.40188   -101.13848   -129.40188            0    10033.258    16.997696     20.02104    20.737149    7057.0917    13330.246    9832.1933    6937.3341     1206.009    1627.2518   -1550.3654 
  132000     244.8382   -126.23159   -98.919524   -126.23159            0    8183.2185    17.038855     20.06952    20.787363     7108.481    7632.4416    6644.9611    10272.253     256.0005    326.19082    1417.5507 
  132500    254.68208   -126.18493   -97.774762   -126.18493            0    6131.7808    17.017526    20.044397    20.761342    7081.8193    5928.9319    3883.5787    8582.8319   -786.14944    -473.4542   -1174.4617 
  133000    257.19782   -127.37821   -98.687401   -127.37821            0    5615.3719    17.062532    20.097408    20.816249    7138.1555    3695.6669    5987.2308    7163.2178   -1639.3506    138.65184    1628.2214 
  133500     259.8995   -127.86053   -98.868349   -127.86053            0    8951.0461    16.960403    19.977113    20.691651    7010.7426    9273.7056    9708.4661    7870.9666    469.17821   -2398.2265    -1972.516 
  134000    240.39377   -129.96467   -103.14839   -129.96467            0    5649.0509      17.0487    20.081115    20.799373    7120.8089     6742.949    6362.8508    3841.3529    105.48588    1144.0675    596.30254 
  134500    247.67037   -129.02221    -101.3942   -129.02221            0     6067.944    17.021322    20.048868    20.765972    7086.5587    7548.3224    4931.3973    5724.1123   -1210.9415    90.612287    3158.4267 
  135000    249.58453   -129.35093    -101.5094   -129.35093            0    10227.667    17.001912    20.026006    20.742292    7062.3437    13569.923     7361.294    9751.7838     692.8083    135.06284   -406.28632 
  135500    255.64594   -129.20232   -100.68463   -129.20232            0    6999.8976    17.045342     20.07716    20.795276     7116.602    7354.6473     8684.066    4960.9795   -1011.8241    415.42256   -2399.6485 
  136000    263.89375   -129.71851   -100.28077   -129.71851            0    7590.2406    16.941399    19.954729    20.668466    6987.2028    8417.9701     5322.987    9029.7648    3007.7557    3105.4513    1306.1788 
  136500    268.09565   -130.37983   -100.47335   -130.37983            0    5970.8115    16.995937    20.018968    20.735003     7054.901    5736.1883    5765.5773    6410.6688   -765.44655   -763.74735    1832.3633 
  137000    263.80931    -130.6712   -101.24288    -130.6712            0    10260.597    17.054614    20.088082    20.806589    7128.2224    9171.5127    10464.546    11145.733   -1145.7471    -1886.196   -826.17563 
  137500    270.52485   -129.01083   -98.833381   -129.01083            0    8031.1894    16.947551    19.961975    20.675972    6994.8176    7738.4216    7654.1489    8700.9979    1545.2632    1733.0107   -78.447392 
  138000    252.82471   -128.89867    -100.6957   -128.89867            0    3900.8551    17.067419    20.103164    20.822211    7144.2908      3726.85    4308.0634    3667.6517   -1275.1728    1066.9358    1165.4811 
  138500    251.12606   -128.13094   -100.11745   -128.13094            0    8281.8416    16.976216    19.995739    20.710943    7030.3708    7637.1394    10159.811    7048.5743    -1688.955    288.66594   -2170.6812 
  139000    250.76498   -130.25082   -102.27761   -130.25082            0    4032.7769    17.026208    20.054623    20.771933    7092.6634    5941.0851    2448.7492    3708.4965    156.70397   -866.86859    2827.9599 
  139500    249.70547   -129.40347   -101.54845   -129.40347            0    7135.4993    16.999415    20.023065    20.739246    7059.2329    3895.3393    5544.4154    11966.743    392.98658    4211.8562   -954.86414 
  140000    256.64244    -127.7643   -99.135445    -127.7643            0    7586.6138    17.008318    20.033551    20.750108    7070.3294    7820.1081    4843.4864    10096.247   -1153.3908    -2223.062    2260.2734 
  140500    254.68453   -126.98508   -98.574634   -126.98508            0    7251.4635    17.023251     20.05114    20.768326     7088.969    7758.9244    2725.7182    11269.748   -553.02001     1638.562   -234.99322 
  141000    255.64531   -128.64412    -100.1265   -128.64412            0    9122.6694    16.995017    20.017884     20.73388    7053.7544    8466.9428    8640.2382    10260.827   -805.27937     4904.024     2404.718 
  141500    242.23459   -128.17225   -101.15062   -128.17225            0    8348.8544     16.97138    19.990043    20.705044    7024.3648    9304.1256    7662.8171    8079.6206    699.74422    141.12896   -1710.8423 
  142000    255.31297   -129.30739   -100.82684   -129.30739            0    7371.4833     17.06317     20.09816    20.817028    7138.9566    6663.5529    8467.7788    6983.1183   -1498.1497    2613.6995   -2119.0176 
  142500    258.26539   -127.82248   -99.012587   -127.82248            0    8087.2057     17.01332    20.039443    20.756211    7076.5698    9091.5315    9956.5723    5213.5134   -1788.6094    -704.4813    1395.8587 
  143000    257.52148   -127.90963   -99.182719   -127.90963            0    10097.782    16.985132    20.006241    20.721821    7041.4541    13309.785    5867.7769    11115.784    1355.0785    3377.3523    3340.7911 
  143500    249.78756   -128.15833   -100.29415   -128.15833            0    6938.6463    17.024617    20.052749    20.769993    7090.6757    5112.4315    6232.1099    9471.3975     165.9525   -736.31121    239.50663 
  144000    256.52032    -128.6441   -100.02887    -128.6441            0    7192.2988    16.966351     19.98412    20.698908    7018.1219    9383.3477    4420.1778     7773.371   -201.16551   -1898.9975   -1467.6859 
  144500     247.0063   -128.42532    -100.8714   -128.42532            0    6266.7113     17.06446    20.099679      20.8186     7140.575    4821.4042    8599.1225    5379.6071   -2080.3304   -2269.8919    1232.0092 
  145000    261.50597   -127.95933   -98.787948   -127.95933            0    6054.2368    17.041066    20.072124     20.79006    7111.2483    4395.5811    6099.2427    7667.8867    260.22785    -3837.157    807.16819 
  145500    250.98106   -127.34775   -99.350435   -127.34775            0    7387.1314    17.032426    20.061947    20.779519    7100.4366    5069.0184    8025.0284    9067.3475     626.1577   -1893.2259    220.95558 
  146000    256.37726     -128.783   -100.18373     -128.783            0    9142.0585    17.009713    20.035194    20.751809     7072.069    8605.4494    5411.1046    13409.622   -1297.3438   -257.13757   -6.9946153 
  146500    249.18266   -128.73501   -100.93831   -128.73501            0    7866.8983    16.966185    19.983924    20.698705    7017.9153    3367.0763    9920.8251    10312.793    -893.3954    992.01837    -984.1965 
  147000    257.46506   -129.64175   -100.92114   -129.64175            0    7739.2317    17.071239    20.107663    20.826871    7149.0885    8950.6301     4951.599    9315.4659    414.59661   -1240.7912   -1975.2214 
  147500    248.93996   -128.72129   -100.95166   -128.72129            0    7066.6087    16.968114    19.986196    20.701059    7020.3099    6349.7057    7789.1148    7061.0055    1169.9129    291.90615    970.89916 
  148000    241.92524   -128.37977   -101.39265   -128.37977            0    5712.6841    16.999911    20.023648    20.739851      7059.85      8034.55    9448.9157   -345.41359   -3743.6704    532.61673    2536.2279 
  148500    255.46371   -129.19224   -100.69488   -129.19224            0    9090.1559    17.050622     20.08338    20.801719    7123.2182    10114.497    8399.6216    8756.3495    -2157.396   -1761.5719     2412.426 
  149000     257.5929   -127.05199   -98.317115   -127.05199            0    4245.6307    17.067937    20.103775    20.822843    7144.9416    5907.7785    2759.4257    4069.6881    722.70564    1513.2457   -616.93426 
  149500     265.5297   -127.69119   -98.070954   -127.69119            0    11916.948    17.013524    20.039682    20.756458    7076.8234    15281.541    8780.8395    11688.464    323.11102   -703.42285    -520.1588 
  150000    247.37376   -127.11281   -99.517893   -127.11281            0    8653.6962    16.988559    20.010278    20.726002    7045.7168    11544.712    10600.251    3816.1265   -1681.2887    -1043.356     2673.639 
  150500    250.92022   -129.14125   -101.15072   -129.14125            0     6520.951    17.008775     20.03409    20.750666    7070.8999    6602.3431    7584.2291    5376.2809    555.83081   -1624.8946    165.40435 
  151000    257.76505   -128.53734   -99.783259   -128.53734            0    11075.575     16.98629    20.007605    20.723234    7042.8941    7081.1792    12913.353    13232.193   -427.80071    -954.1881     293.1369 
  151500    252.88747   -129.37883   -101.16885   -129.37883            0    4235.3656    17.084967    20.123833    20.843619    7166.3491    4766.8634    5255.2651    2683.9683    429.93919    358.58341   -728.04301 
  152000    258.09515   -129.18631   -100.39541   -129.18631            0    9758.1365    16.972464     19.99132    20.706366    7025.7104    10578.387    11014.532    7681.4904   -545.41405   -1745.9645    3359.0621 
  152500    248.61419   -129.74232   -102.00903   -129.74232            0    4477.4395    17.052033    20.085042     20.80344    7124.9871    3089.7863    1960.0184    8382.5139    1728.1623   -3048.9453   -2652.3404 
  153000    250.20459   -128.52417   -100.61347   -128.52417            0     7920.878    16.971271    19.989914     20.70491    7024.2286    10287.776    6860.2076      6614.65   -1754.2354   -1717.8794    2481.5333 
  153500    259.11275   -129.52323   -100.61881   -129.52323            0    9868.0485    16.990254    20.012275     20.72807    7047.8266    7287.7148    9788.3681    12528.062    475.21948     372.0009    201.94813 
  154000    247.80881   -129.08081   -101.43736   -129.08081            0     5667.706    17.048891    20.081341    20.799607    7121.0487    5575.5224      5013.85    6413.7457    1926.3424   -1357.9331    -2555.338 
  154500    254.04005   -129.36848   -101.02993   -129.36848            0     9044.883    17.010836    20.036517     20.75318    7073.4706    6649.3091    7821.9781    12663.362    -2513.624   -2998.7888    3519.0766 
  155000    254.98434   -130.73507   -102.29118   -130.73507            0    8099.8212    16.994679    20.017486    20.733468     7053.334    8035.3204    8278.8013    7985.3419    2061.1251   -1570.1331   -1114.6737 
  155500    260.86503   -130.67172   -101.57184   -130.67172            0    6256.4703    17.112062    20.155748    20.876676    7200.4995    5796.4876    3890.7781    9082.1453   -1511.1255   -1285.1881     872.9345 
  156000    242.71348   -129.19731   -102.12226   -129.19731            0    12261.169    16.977323    19.997043    20.712294    7031.7465    13111.398    13568.303    10103.806    -1186.428   -548.31757    -244.6541 
  156500    241.96227   -129.31596   -102.32471   -129.31596            0    260.37078    16.979683    19.999823    20.715173    7034.6795    1831.7662   -623.82616   -426.82773     548.3811    1539.9326    599.58614 
  157000     244.3326   -129.78088   -102.52521   -129.78088            0    11139.603    16.965435     19.98304     20.69779    7016.9847    7448.2476    14491.158    11479.403    1088.8336    -3476.002    1575.0275 
  157500    249.09061   -130.89214   -103.10571   -130.89214            0    5936.7967    16.986425    20.007764    20.723399    7043.0624    3968.9027    3414.2866    10427.201    326.77329    749.85975    3627.4542 
  158000    254.93408   -130.12716   -101.68888   -130.12716            0    8113.4371    16.979185    19.999236    20.714565      7034.06    13088.735    6684.9446    4566.6317    1206.6549   -2027.9875    1361.9395 
  158500    251.29363   -129.84479   -101.81261   -129.84479            0    7511.0728    17.049556    20.082124    20.800418    7121.8818    9505.9119    4741.6371    8285.6696   -674.16823   -1772.9621    286.53963 
  159000     257.3213   -130.81689   -102.11231   -130.81689            0    3057.1904    16.991549    20.013799    20.729649    7049.4371    5399.5776   -88.647805    3860.6414    4690.6281    707.72877    -894.5503 
  159500    255.04765   -128.85488   -100.40393   -128.85488            0    5727.9412    17.047126    20.079261    20.797453    7118.8368    5387.5418    7113.5541    4682.7275    479.37915   -2067.0226   -666.57161 
  160000    258.94306   -130.35341   -101.46792   -130.35341            0    6670.9063    17.038596    20.069215    20.787047    7108.1565    7645.4879    6540.5803    5826.6508    1284.8953   -1570.3716   -1572.4254 
  160500    260.18997   -130.18421   -101.15962   -130.18421            0    4742.6042    16.989033    20.010836    20.726581    7046.3072    7563.9339    3265.7929     3398.086    2488.1015   -1987.6539   -2607.9554 
  161000    252.45837    -129.8895   -101.72739    -129.8895            0       5047.6    17.045992    20.077926     20.79607     7117.417     9021.947    3934.6207    2186.2325    677.37989   -2679.5815    340.34071 
  161500    252.64619   -129.91246    -101.7294   -129.91246            0    9394.3117     17.03954    20.070327    20.788199    7109.3385    8517.1232    9591.7415     10074.07   -986.77833   -293.74177    1911.4205 
  162000    254.27636   -128.73272   -100.36781   -128.73272            0    9939.7815    17.025194    20.053429    20.770697     7091.397    8457.2766    10208.706    11153.362    418.25735   -2373.6317   -1547.5405 
  162500    249.71822   -128.90727   -101.05083   -128.90727            0    7592.8295    17.031121     20.06041    20.777927    7098.8051    5653.5384    8783.8127    8341.1374    -1360.752    3232.9774    123.24824 
  163000    261.16115   -129.56932    -100.4364   -129.56932            0    6894.4283    17.002939    20.027215    20.743545    7063.6234    8247.7219    5751.0752    6684.4876    1449.2621   -1700.6098    -2472.327 
  163500    250.76938   -129.23516   -101.26145   -129.23516            0    4643.6021    17.056006    20.089721    20.808287    7129.9678    6653.4614    6602.9858    674.35892   -2629.2447   -2099.2401     198.0782 
  164000    258.63123   -129.66781   -100.81711   -129.66781            0    8849.6434     17.05321    20.086428    20.804876    7126.4624    10204.761    6427.2725    9916.8966    2932.9075   -1508.1158    510.57113 
  164500    256.61009   -129.29236   -100.66712   -129.29236            0     3922.413     17.01609    20.042705    20.759589     7080.026    2976.8327    6272.3921    2518.0143   -1164.1134   -350.48815    167.14405 
  165000    264.81217   -130.31034   -100.77015   -130.31034            0    10705.635    16.975886    19.995351    20.710541    7029.9614    13846.492    8864.6801    9405.7321     546.8943    1099.9697   -2006.8227 
  165500    248.03989   -129.24461   -101.57539   -129.24461            0    3205.5798    17.074015    20.110934    20.830258    7152.5771   -358.07353    4392.7607    5582.0523    134.37277   -749.89401    1943.5274 
  166000    263.85356   -129.03803   -99.604772   -129.03803            0     12580.45    16.975362    19.994733    20.709901    7029.3097    13754.143     11623.24    12363.967     -2108.62   -942.93438   -1255.0929 
  166500    241.48764   -129.83219   -102.89388   -129.83219            0    4507.4005    17.101245    20.143007    20.863478    7186.8524    4579.8707    1990.6301    6951.7008    1648.9257   -336.81852   -890.59755 
  167000      245.523   -129.83708   -102.44862   -129.83708            0    7578.8712     16.98837    20.010055    20.725771    7045.4818    8650.7924    5744.2236    8341.5976    1740.5915    -1216.648   -725.54442 
  167500    250.92103   -130.84559   -102.85497   -130.84559            0    8518.0818    17.044222    20.075841    20.793911    7115.2001    10143.095    8961.5001    6449.6506    1088.4726    1739.5071   -920.53866 
  168000     249.3191   -128.93378   -101.12186   -128.93378            0    7312.9911     16.98819    20.009842    20.725551    7045.2572    9030.2636    7689.7486    5218.9611    1281.1286   -805.04378   -1508.2815 
  168500     254.6297   -130.52729   -102.12297   -130.52729            0     4448.383    17.056501    20.090304    20.808891    7130.5885    5105.6978    365.99009    7873.4609    1577.4488    2443.7774   -509.30801 
  169000    267.20073   -129.56958   -99.762933   -129.56958            0    8354.0698    17.047776    20.080027    20.798246    7119.6512    7339.1087    7453.1452    10269.955    2287.0391   -1550.6985    3437.2985 
  169500    259.32389   -129.86229   -100.93432   -129.86229            0    6650.3344    16.976497     19.99607    20.711286    7030.7203    4943.2074     6330.665     8677.131   -815.04039     1610.656   -594.00422 
  170000    258.45316   -127.68913   -98.858292   -127.68913            0    6550.5916    16.989021    20.010822    20.726565    7046.2917    7790.2008    6385.9995    5475.5744    -4233.287   -2417.3763     731.9358 
  170500    244.61191   -130.25118   -102.96435   -130.25118            0    7175.3793    16.990907    20.013043    20.728866    7048.6382    9483.2827    8020.9866    4021.8686    3055.2402   -591.83567    1002.5447 
  171000    253.91701   -130.20562   -101.88079   -130.20562            0    9359.2236    16.958764    19.975183    20.689652    7008.7109    8545.1563    8301.6192    11230.895   -1450.5699   -399.96751    1410.8289 
  171500    243.20893   -129.20026   -102.06994   -129.20026            0    7339.5141     16.99536    20.018288    20.734299    7054.1816     9125.632    4476.9388    8415.9714    -1912.113    -1449.082   -2660.7722 
  172000    245.95597   -129.31405   -101.87729   -129.31405            0    6716.5542    17.031891    20.061317    20.778867    7099.7685    5514.2861    9085.9274    5549.4493   -858.38599   -1667.5978   -865.71767 
  172500    273.03957   -130.55975   -100.10178   -130.55975            0    7740.5269    16.950204    19.965101    20.679209    6998.1037    6207.7157    7312.7507    9701.1141    -1777.061   -440.95248   -559.90883 
  173000    248.45171   -129.26944   -101.55428   -129.26944            0    9555.9944    17.007181    20.032212     20.74872    7068.9115    10425.193    8094.7681    10148.022     48.98066    1736.8935     2581.504 
[...]
  958500    249.40221   -132.80033   -104.97913   -132.80033            0    6963.5112    17.005772    20.030552    20.747002    7067.1551     3008.531    9626.3031    8255.6996    1074.2417   -214.65275   -2075.6563 
  959000    244.95479   -131.94386   -104.61878   -131.94386            0    6961.7197    17.045105    20.076881    20.794988    7116.3057    2983.5291     12594.36    5307.2698     943.7628    479.89186    1076.3369 
  959500    250.79212   -129.96305   -101.98681   -129.96305            0    6715.2726    16.979195    19.999248    20.714578    7034.0725    4081.6924    5997.1079    10067.018    150.08777    2350.3731   -635.90884 
  960000    248.95079    -131.5922   -103.82136    -131.5922            0    8751.4614    17.016262    20.042908    20.759799    7080.2407    3718.8739    12221.847    10313.664   -738.62628   -1544.4619    468.43527 
  960500    241.07724   -131.28068   -104.38815   -131.28068            0    6818.4771    17.039906    20.070758    20.788645    7109.7961    6667.9145    6869.0567    6918.4603    2173.7861    722.41256    1861.4107 
  961000    255.29004   -131.26772   -102.78974   -131.26772            0    6241.4741     17.02236    20.050091    20.767239    7087.8561    8825.1858    3320.0406     6579.196    1971.0752   -2549.9369    1331.9381 
  961500     264.7413   -132.32904   -102.79675   -132.32904            0    6051.9664    16.998889    20.022444    20.738604    7058.5767     5469.925     5467.038    7218.9361     115.8281    106.51635    -1349.364 
  962000    258.49755   -130.69916   -101.86337   -130.69916            0    9376.0141    16.992214    20.014583    20.730461    7050.2654     12453.28     9325.104     6349.658    938.96762    1640.7698   -1050.6407 
  962500    254.77895   -130.77976   -102.35879   -130.77976            0    5001.1683    17.037784    20.068258    20.786056      7107.14    5274.6225    4859.5937    4869.2888    1836.9783    3291.1969   -1834.7656 
  963000    244.02791   -130.68907   -103.46739   -130.68907            0    8605.8591    17.020953    20.048433    20.765522    7086.0984    5959.0865    11238.153    8620.3374    132.97268    2592.1812   -2422.1957 
  963500    256.17062   -129.80466   -101.22844   -129.80466            0    8680.8434    16.958553    19.974934    20.689394     7008.449    7578.8473    4634.6742    13829.009    1060.1214   -2309.8646   -1538.5891 
  964000    254.80648    -131.6399   -103.21586    -131.6399            0    8090.6812    16.988675    20.010414    20.726143    7045.8613    10295.781    6992.5107    6983.7521    2341.3284   -1958.7914   -1193.4537 
  964500    260.97528   -131.00325   -101.89107   -131.00325            0    4710.6214     17.02194    20.049596    20.766727    7087.3313    4848.1776    4232.2551    5051.4314   -1520.1514   -1741.8017   -542.79069 
  965000    260.36076   -130.63032   -101.58669   -130.63032            0    8251.3134    16.984122    20.005051    20.720589    7040.1977    8989.5034    8284.4554    7479.9813     1914.072   -2992.2314    3439.7181 
  965500    253.24388   -130.85436   -102.60463   -130.85436            0    9443.0251    17.110157    20.153504    20.874351    7198.0942    4245.7066    9044.7272    15038.642   -413.31057    1610.8712    -3820.638 
  966000    252.59228    -129.7261   -101.54905    -129.7261            0    6359.7377    17.002218    20.026366    20.742666    7062.7253    6386.5336    8575.5382    4117.1414    -1413.457   -411.56868    2262.9306 
  966500     267.7134   -130.24617   -100.38233   -130.24617            0    6003.0416    17.087072    20.126312    20.846187    7168.9983    6707.1824    3380.4887    7921.4538   -1293.6941   -1345.6524   -834.06128 
  967000    260.50316   -131.46601   -102.40649   -131.46601            0    7261.6839    17.017882    20.044817    20.761776     7082.264    7078.6546    8806.2522    5900.1449    1824.9046     3825.329   -2937.3892 
  967500    246.72326   -131.78685    -104.2645   -131.78685            0    8347.0765    16.967024    19.984912    20.699729    7018.9571     6032.319    8250.6126    10758.298   -3989.9152    1413.4218    1605.7385 
  968000    256.11025   -130.51185   -101.94236   -130.51185            0    7925.8416    17.048185     20.08051    20.798746    7120.1646    8103.6331    9238.4199    6435.4717    1939.2806    1211.3155   -1447.2717 
  968500    229.75583   -130.16968   -104.54007   -130.16968            0    8404.9493     17.02044    20.047829    20.764897    7085.4578    5309.5461     11800.08    8105.2223    2072.9622   -2940.4488   -1261.2106 
  969000    252.36837   -129.63888   -101.48681   -129.63888            0    10177.979    16.981372    20.001812    20.717234    7036.7786     10195.42    11385.816    8952.7016    2201.7083    -326.8632     2473.481 
  969500    254.64007   -131.65342   -103.24793   -131.65342            0     5355.183    17.035251    20.065274    20.782966    7103.9705    4433.0922    4542.0038     7090.453    2894.0069   -1291.9326    1511.9024 
  970000    261.73558   -130.14112   -100.94412   -130.14112            0    6036.5596    17.012219    20.038147    20.754868    7075.1962    5873.3743    6401.1924    5835.1121   -641.49706     2071.765    971.45913 
  970500    255.09433   -130.53327   -102.07712   -130.53327            0    13100.707    16.919437    19.928861    20.641673    6960.0651    11552.952     13200.87      14548.3   -2256.0311   -1016.1731   -34.239594 
  971000    236.85132   -131.19925   -104.77813   -131.19925            0    6429.0623    16.976333    19.995877    20.711086    7030.5166    5986.4002    4332.0545    8968.7322    278.45445    331.56203    2956.1107 
  971500    256.93427   -132.44243   -103.78102   -132.44243            0     10117.81    16.953836    19.969378    20.683639    7002.6024    10802.655    8080.7013    11470.072    2115.9503    -1335.152    14.198694 
  972000    259.21631   -130.91066   -101.99469   -130.91066            0    2683.1028    16.953413    19.968881    20.683124    7002.0789    -860.1708    6148.7036    2760.7757     -601.426     2448.303    1335.9758 
  972500    241.48084   -130.52239   -103.58483   -130.52239            0    8158.1657    16.972761    19.991669    20.706728    7026.0789    9264.2734     9063.164    6147.0597     368.4881    3624.5766   -1899.3284 
  973000    247.61042    -130.5395   -102.91818    -130.5395            0    9645.3656    16.963315    19.980544    20.695205    7014.3555    11948.234    10559.093    6428.7706    691.33382     3132.708   -1572.5626 
  973500     262.8848   -131.29755   -101.97236   -131.29755            0    5778.2404    17.030775    20.060003    20.777506     7098.373      5044.17    4351.9424    7938.6086   -659.11231   -473.83107    -75.86749 
  974000    258.11917   -131.27385   -102.48027   -131.27385            0    6951.4173    16.975922    19.995393    20.710584    7030.0054     5209.086    5980.8742    9664.2917    2299.0917    395.63379      1982.81 
  974500    250.32268    -131.2382   -103.31432    -131.2382            0    6024.7064    16.987674    20.009236    20.724923    7044.6163    6415.9255    9540.3131    2117.8807   -1055.0661    682.51247    1562.2865 
  975000    251.07931   -130.64752   -102.63924   -130.64752            0    4174.4593    17.032385    20.061898    20.779469    7100.3855    3479.0768    3916.9234    5127.3777   -361.32073   -680.13263    899.37284 
  975500    245.11897   -131.77281   -104.42942   -131.77281            0    5568.4205    16.975581    19.994991    20.710168    7029.5816    6442.6584    2711.5893    7551.0139    3129.0652    922.26205    1848.0577 
  976000    233.85342   -128.55813   -102.47143   -128.55813            0    9814.1663    16.916263    19.925122      20.6378    6956.1481    8572.5659    11174.793    9695.1405    930.92433     272.6586    372.30211 
  976500    249.21891   -130.32588   -102.52513   -130.32588            0    6048.2291    17.016396    20.043066    20.759963     7080.409    7136.9467    7369.6747     3638.066    2131.8794     -1890.21    159.54625 
  977000    266.63203   -129.95055   -100.20735   -129.95055            0    6149.9792    16.985406    20.006564    20.722155    7041.7946    4950.8368    8107.6734    5391.4273    375.20858    -1126.733    3209.6839 
  977500    262.34358   -131.64922    -102.3844   -131.64922            0    6528.9394    16.999804    20.023522     20.73972    7059.7166    2245.6869    8180.5354    9160.5958    1716.7614    439.61474   -1103.8578 
  978000    269.64252   -130.77078   -100.69175   -130.77078            0    3434.9894    17.046025    20.077965    20.796111    7117.4587     5022.587    2828.6864    2453.6947   -2041.3219    1792.0753    1255.1427 
  978500    258.86651   -130.42906   -101.55211   -130.42906            0    7401.6668    16.926733    19.937454    20.650574    6969.0723    3259.9123    12240.963    6704.1249    1439.8265   -585.00729   -1590.2807 
  979000     253.8198   -131.29799   -102.98401   -131.29799            0    6365.4112    17.021597    20.049191    20.766308    7086.9022    5121.5096    7691.7362    6282.9877    1691.3837    564.23295   -609.45886 
  979500      254.724   -131.88049   -103.46564   -131.88049            0    4903.4811    17.011877    20.037743    20.754449    7074.7685    7041.4452    2550.4359    5118.5622    1194.3214     -83.3731   -898.60191 
  980000    257.25692     -131.194    -102.4966     -131.194            0    6024.8186    16.950234    19.965135    20.679245    6998.1399    2965.7171    6866.7067    8242.0321    1678.6244    1736.8825   -2031.1733 
  980500    244.63442   -131.61437   -104.32503   -131.61437            0    7120.2683    17.018834    20.045937    20.762937    7083.4521    6853.3959    7265.4125    7241.9964    2204.2494   -376.63357   -2588.6123 
  981000    255.03301   -130.46912    -102.0198   -130.46912            0    9888.4867    16.944709    19.958629    20.672505    6991.2999    8920.4351    8699.3451     12045.68    891.79787   -1662.5658    241.49036 
  981500    249.58683   -131.53875   -103.69696   -131.53875            0     5211.391     17.05336    20.086604    20.805059    7126.6499    2994.5183     3999.133    8640.5217    155.93894    2159.0045   -1302.4911 
  982000    263.49201   -129.80787   -100.41494   -129.80787            0     7065.379    17.028117    20.056871    20.774262    7095.0493    6117.9924    2948.8032    12129.341    331.72777   -1322.7957    1475.3913 
  982500    254.31744   -128.46546   -100.09597   -128.46546            0    9148.4933    16.987025     20.00847     20.72413    7043.8082    7898.0036    11748.333    7799.1434    1256.8043    2146.4406    1608.7532 
  983000    263.43131   -130.50713   -101.12097   -130.50713            0    6917.8564    17.016693    20.043416    20.760326    7080.7797    6415.8459    7686.4416    6651.2819   -2641.2348   -937.29576    407.43674 
  983500    246.38921    -131.8636   -104.37851    -131.8636            0    10624.575    16.963204    19.980413    20.695069    7014.2173    13218.518    12776.446    5878.7613    1436.4235    3198.8381   -2379.4751 
  984000    246.57219   -130.72443   -103.21893   -130.72443            0    8055.7803    16.988349    20.010031    20.725746     7045.456    3629.1217    11597.057    8941.1622     -568.433   -262.76113   -153.49924 
  984500    235.08214   -130.41089   -104.18712   -130.41089            0    5726.1704    17.038056    20.068579    20.786388    7107.4809    7090.5045    7528.4419    2559.5649    129.03894   -2299.5088   -999.05379 
  985000    242.83982   -130.07829   -102.98915   -130.07829            0    10863.979    16.934853    19.947019    20.660481    6979.1074    13229.386    9474.1996    9888.3508    1813.9679    1807.9809   -1792.4323 
  985500    244.86425     -131.467   -104.15203     -131.467            0    5461.9036    16.985062    20.006158    20.721735    7041.3666    4793.6911    4575.5032    7016.5166     2093.986    1748.7894    2696.3135 
  986000    265.77269   -130.65667   -101.00933   -130.65667            0    8385.5277    16.980417    20.000687    20.716068    7035.5909    9852.8047    7535.5992    7768.1794    705.18881   -114.31737   -2536.9186 
  986500    254.62176    -129.7308   -101.32736    -129.7308            0    5152.8346    16.984451    20.005439     20.72099    7040.6074    5609.3868    8284.7662    1564.3507    3397.0732    722.70084    1057.7712 
  987000     251.5952    -130.9776   -102.91178    -130.9776            0    8214.0673    17.006339     20.03122    20.747694    7067.8622    8518.2354     8586.501    7537.4657    1175.0943    227.91061   -981.37352 
  987500    260.06696   -130.73204   -101.72118   -130.73204            0    6296.1486    17.005574    20.030319     20.74676    7066.9085    5697.2022    7839.7726    5351.4709    1417.3299    27.398256   -645.09979 
  988000    249.57331   -130.28425   -102.44397   -130.28425            0    10904.977    17.050716     20.08349    20.801833     7123.336    12397.004    6621.6601    13696.266    2404.4763   -918.23851    231.85722 
  988500    261.80933   -130.51285   -101.30763   -130.51285            0    7562.2093    16.979679    19.999818    20.715168    7034.6739    6313.0354     6709.764    9663.8284    372.93546    1457.9563   -877.98145 
  989000    251.96579   -128.62144   -100.51427   -128.62144            0    10033.265    16.963559    19.980831    20.695502    7014.6574    10534.383    9583.7092     9981.703    -2514.797    1420.9306    776.17344 
  989500    247.12721   -129.12896   -101.56154   -129.12896            0    4459.9102    17.058747     20.09295    20.811631    7133.4062     5369.418    3905.1824      4105.13   -769.95551     1096.073   -350.04242 
  990000    270.23761   -130.04525   -99.899834   -130.04525            0    8687.7321    16.979177    19.999227    20.714556    7034.0506    8518.3561    5877.6398    11667.201    666.72488   -172.88251    1030.9971 
  990500    257.08502   -131.85097   -103.17275   -131.85097            0      3730.73    17.065516    20.100922    20.819889    7141.9008    3800.8434    12.696944    7378.6497   -756.52078    3699.6243   -1603.1392 
  991000    252.99132    -130.1899   -101.96834    -130.1899            0    12997.276    16.999073    20.022662    20.738829    7058.8063    16120.365    10002.377    12869.086    3301.2378    1998.3701    215.71633 
  991500    259.44618   -129.59773   -100.65611   -129.59773            0    7438.2753     17.02338    20.051293    20.768484    7089.1306    5336.0436    10223.926     6754.856   -809.40882    932.26802    1362.2553 
  992000    255.63685   -129.66381   -101.14713   -129.66381            0    6719.6514    17.038031    20.068549    20.786358    7107.4495    8857.2624    6726.3065    4575.3854   -235.79135   -565.25903    872.48765 
  992500    252.15467   -129.91071   -101.78248   -129.91071            0    11307.823    17.051584    20.084512    20.802892    7124.4233    9271.7342    13222.569    11429.167     3125.609   -152.57954    2750.9907 
  993000    252.84829   -131.07011    -102.8645   -131.07011            0    4783.3571    17.051154    20.084006    20.802367    7123.8842     6436.636     3777.291    4136.1444    1426.4225   -307.03074   -522.53129 
  993500    254.95183   -129.21286   -100.77259   -129.21286            0    5757.8514    16.981113    20.001507    20.716917    7036.4562     8687.207     5259.922    3326.4252    1134.7416   -1355.5657   -1334.3073 
  994000    249.17334   -129.65545   -101.85979   -129.65545            0    7473.8043    17.022862    20.050682    20.767851     7088.483     4093.153    10828.788     7499.472    146.02729    185.07289    758.10702 
  994500    251.34079    -128.5548   -100.51735    -128.5548            0    6697.3045    16.980692    20.001011    20.716404    7035.9331    3703.3168    9127.0358    7261.5607   -1617.3612    946.62478   -1045.6931 
  995000    245.52998   -130.56187   -103.17263   -130.56187            0    6925.8952    17.037388    20.067791    20.785573    7106.6442    4835.1258    7368.8274    8573.7324    2011.4013    1928.3759    701.68486 
  995500    264.43721   -129.41544   -99.917069   -129.41544            0    9117.5112    17.001369    20.025366     20.74163    7061.6675    8125.1943    8571.4143    10655.925    1619.2609    1972.8813   -1710.0731 
  996000    250.91641   -129.58217   -101.59207   -129.58217            0    4114.8741    17.045466    20.077306    20.795428    7116.7579    4213.3184    5563.9183    2567.3856   -914.07697   -1808.6285    2456.9931 
  996500    252.77335   -129.33265   -101.13541   -129.33265            0    5605.2697    17.033088    20.062727    20.780327    7101.2651    5060.2671    7711.7844    4043.7575    13.587798   -1068.5942   -3447.4197 
  997000    253.30996   -131.12787   -102.87076   -131.12787            0    8982.0698    16.968824    19.987032    20.701925    7021.1908    11050.179    7806.9432    8089.0873   -1000.8174    4958.2972   -814.88244 
  997500    246.18003   -129.00565    -101.5439   -129.00565            0     7186.784    17.068974    20.104995    20.824107     7146.243    6194.0159    5300.0244    10066.312   -869.14137   -2657.1505    624.66176 
  998000    250.24812   -129.67121   -101.75566   -129.67121            0    3981.0694    17.002368    20.026543    20.742849    7062.9118    5835.1247    2191.4649    3916.6187    -3593.881   -3186.6546    504.50057 
  998500     249.1063   -130.36543   -102.57725   -130.36543            0    6674.1331    17.009921    20.035439    20.752064    7072.3291    7773.8542    9129.1573    3119.3877    1736.4035    156.60052   -2060.8753 
  999000    247.31136   -129.96503   -102.37708   -129.96503            0    6813.5117    17.022354    20.050083    20.767231    7087.8479    5699.8816     6458.937    8281.7166   -1549.3262   -112.78203    -1368.592 
  999500    254.23006   -129.08076   -100.72101   -129.08076            0    7759.1841    16.994033    20.016726     20.73268    7052.5302       6820.9    8196.7352    8259.9172   -823.75808    612.22526    323.32165 
 1000000     245.2581    -130.1469   -102.78799    -130.1469            0    7295.3467    17.092144    20.132287    20.852376    7175.3851    5075.8621    5316.3813    11493.797    1547.2182   -2283.7795   -1149.8903 
Loop time of 5659.65 on 1 procs for 1000000 steps with 864 atoms

Performance: 7.633 ns/day, 3.144 hours/ns, 176.689 timesteps/s
73.7% CPU use with 1 MPI tasks x 1 OpenMP threads

MPI task timing breakdown:
Section |  min time  |  avg time  |  max time  |%varavg| %total
---------------------------------------------------------------
Pair    | 5022.3     | 5022.3     | 5022.3     |   0.0 | 88.74
Bond    | 0.12955    | 0.12955    | 0.12955    |   0.0 |  0.00
Neigh   | 575.61     | 575.61     | 575.61     |   0.0 | 10.17
Comm    | 23.865     | 23.865     | 23.865     |   0.0 |  0.42
Output  | 4.5638     | 4.5638     | 4.5638     |   0.0 |  0.08
Modify  | 29.841     | 29.841     | 29.841     |   0.0 |  0.53
Other   |            | 3.303      |            |       |  0.06

Nlocal:        864.000 ave         864 max         864 min
Histogram: 1 0 0 0 0 0 0 0 0 0
Nghost:        4401.00 ave        4401 max        4401 min
Histogram: 1 0 0 0 0 0 0 0 0 0
Neighs:         0.00000 ave           0 max           0 min
Histogram: 1 0 0 0 0 0 0 0 0 0
FullNghs:      222052.0 ave      222052 max      222052 min
Histogram: 1 0 0 0 0 0 0 0 0 0

Total # of neighbors = 222052
Ave neighs/atom = 257.00463
Ave special neighs/atom = 0.0000000
Neighbor list builds = 100000
Dangerous builds not checked

unfix		3
unfix		2

write_data	data.final.${pid}
write_data	data.final.0
System init for write_data ...

write_restart   restart.lmp.${pid}
write_restart   restart.lmp.0
System init for write_restart ...
Total wall time: 1:34:23
