LAMMPS data file via write_data, version 23 Jun 2022, timestep = 400000

972 atoms
2 atom types

-0.0326247866103504 20.02367778661073 xlo xhi
0.08882511334164356 19.902227886656654 ylo yhi
0.21092805006921544 20.589843949930156 zlo zhi

Masses

1 1.008
2 15.999

Atoms # full

2 0 2 0 2.0662330285507955 2.4135044628066864 0.9881616261162636 0 0 0
31 0 1 0 0.7299011009385731 2.280032976601628 2.22636603555944 0 0 0
32 0 2 0 0.6323232839121998 1.3295158075963847 2.4375770249805404 0 0 0
33 0 2 0 0.9541259446587174 2.735121313237027 3.0554199488967986 0 0 0
5 0 2 0 3.938662939718897 1.0218688414707848 3.939710364961866 0 0 0
10 0 1 0 1.3683126691803804 4.368083978055828 4.002216426678444 0 0 0
1 0 1 0 2.814624940867536 2.475907336432216 0.2856002367145536 0 0 0
4 0 1 0 4.576530262094967 1.407805361673877 3.326825742943917 0 0 0
18 0 2 0 4.352334463800682 3.2754871147097306 3.548130866973471 0 0 0
35 0 2 0 4.588358886340886 2.2661585884383695 0.652090752481187 0 0 0
6 0 2 0 5.4323140634804234 1.144029524901714 3.7171261511124194 0 0 0
230 0 2 0 4.68540250821299 0.28739883920331044 2.1397264229511044 0 1 0
36 0 2 0 6.034940502790823 2.1825538386181185 1.2909006395616913 0 0 0
34 0 1 0 5.509886013729501 2.5034209382350747 0.5524665400550974 0 0 0
67 0 1 0 7.647291709560021 1.8349808276938022 2.32068092553885 0 0 0
68 0 2 0 7.715221275452075 2.5624238847205825 3.0243502341685513 0 0 0
272 0 2 0 7.870517394789609 0.17819293326725166 2.271730711417656 0 1 0
16 0 1 0 4.137452931667459 4.177224272590416 3.8226909853379913 0 0 0
17 0 2 0 4.478340042572635 4.76286176030305 3.1165833737844326 0 0 0
46 0 1 0 7.687762164759097 4.09801217200769 3.975795858821045 0 0 0
69 0 2 0 8.221230286336874 2.197458092196632 1.5928145453538014 0 0 0
41 0 2 0 10.320418343727896 1.037692234951694 3.9997265093300864 0 0 0
39 0 2 0 10.133903934151299 2.5375318802699813 0.3622732083586546 0 0 0
40 0 1 0 11.242709508591187 1.0972832102600842 3.613939728587694 0 0 0
54 0 2 0 10.817252655265024 2.9310173295751123 3.7300137030342917 0 0 0
52 0 1 0 10.502274237414536 3.720122066947216 4.167364719900516 0 0 0
70 0 1 0 11.904624791312841 2.8458313675862357 0.8638340258360614 0 0 0
51 0 2 0 10.955402621613397 4.937372499359258 2.7960927840449266 0 0 0
72 0 2 0 12.594247299956931 2.6317381086911715 1.4838236245569 0 0 0
84 0 2 0 14.434228489681052 3.195386396503013 3.40508750017684 0 0 0
103 0 1 0 14.229367344374708 2.1749230517976446 2.095714062532851 0 0 0
105 0 2 0 14.215992462097322 1.1969390158254685 2.167434547464558 0 0 0
104 0 2 0 14.95018697110776 2.4568759107026183 1.5488043506418834 0 0 0
71 0 2 0 12.378289763208585 3.5394077904537595 0.3085506132739835 0 0 0
73 0 1 0 15.989043773433947 2.921368610559424 0.3112182236337322 0 0 0
82 0 1 0 14.459012992664023 4.026110055616124 3.884665585575021 0 0 0
83 0 2 0 14.178902036412042 4.625223619303051 3.1675710686486127 0 0 0
76 0 1 0 17.739495270611243 1.5940139359781755 3.389776000141422 0 0 0
77 0 2 0 17.815975389364837 0.7905901330216348 2.8734544524519143 0 0 0
89 0 2 0 17.305846736443073 3.585343195623327 3.6688879159264998 0 0 0
108 0 2 0 19.516104678094848 2.8685264973794333 1.2693581655799255 0 0 0
107 0 2 0 17.965159662670096 2.785143815403085 0.7285912067454946 0 0 0
106 0 1 0 18.872832997442103 2.8807362712855404 0.5243776311703272 0 0 0
78 0 2 0 18.508779928465174 1.464275016036343 3.9971462391759047 0 0 0
88 0 1 0 17.08682962221922 4.546494546366422 3.6868208253033106 0 0 0
90 0 2 0 16.116046269414078 4.440055476590913 3.877959442848446 0 0 0
96 0 2 0 16.0408017602725 1.095295689261615 4.12963252385983 0 0 0
675 0 2 0 2.1084764368555797 5.518096835410228 0.6209619453464428 0 0 1
20 0 2 0 1.009332253303399 5.257946617538748 2.578962947107436 0 0 0
19 0 1 0 0.869969793205336 5.7792192895461465 1.745168985530152 0 0 0
21 0 2 0 0.9683164692264818 6.66381319435143 2.1316801913064802 0 0 0
139 0 1 0 0.6579785059908743 8.56430069547131 2.3436445527456042 0 0 0
141 0 2 0 1.23925400460704 8.821019337437114 1.6308741556284891 0 0 0
110 0 2 0 3.2667571391251395 8.5659869723422 0.5049866086853656 0 0 0
119 0 2 0 0.8297806944004246 9.92808808132499 3.45554444099111 0 0 0
109 0 1 0 2.3653571095408132 8.858693723121343 0.22408109349523425 0 0 0
112 0 1 0 4.105214874680362 7.748700232813586 3.690391690560701 0 0 0
14 0 2 0 4.318598000915623 5.874692101217557 0.8074821537100967 0 0 0
114 0 2 0 4.355331709416021 7.169900988952666 3.0154348012754046 0 0 0
13 0 1 0 4.8332629281208614 5.876826110315125 1.6312937656684006 0 0 0
56 0 2 0 7.794855329775436 5.2461701497714515 2.7271092766123353 0 0 0
15 0 2 0 5.792209175730484 5.75514709937952 1.498822267859471 0 0 0
55 0 1 0 7.629539236020451 5.850817906377708 1.9825773030876748 0 0 0
177 0 2 0 7.164640035979499 7.737871708304763 2.303763194126269 0 0 0
126 0 2 0 4.00762067152456 9.55281924859325 3.6286050426616003 0 0 0
176 0 2 0 6.432840231116875 8.849575699393245 1.5377526240443402 0 0 0
175 0 1 0 7.195277980102202 8.668050224543993 2.145722992603343 0 0 0
142 0 1 0 5.113682965735509 9.045976306223427 0.5943271963200467 0 0 0
155 0 2 0 7.535914102509359 9.810490133689232 3.4112534181943333 0 0 0
143 0 2 0 5.234793640517648 9.970457192809592 0.2662670840182011 0 0 0
57 0 2 0 8.058421834030566 5.487237186454712 1.1714678865033572 0 0 0
149 0 2 0 10.28670146022458 7.92318950761121 4.175202761874376 0 0 0
49 0 1 0 10.956560598759726 5.6201178988186 2.0865444007014586 0 0 0
50 0 2 0 10.36386152261254 5.282884496225626 1.4137802164606796 0 0 0
150 0 2 0 10.946115869164373 7.176411332757219 2.9700919901038816 0 0 0
148 0 1 0 11.06210481041529 7.964602551198285 3.5569399298464344 0 0 0
147 0 2 0 8.282153851233078 8.949781782575197 0.9464372497794564 0 0 0
145 0 1 0 9.042525278775358 9.205467923497542 0.35751162495439137 0 0 0
179 0 2 0 10.939351886804856 8.922083359926658 0.7017629748690416 0 0 0
162 0 2 0 10.869000776739597 9.73714421922596 3.351686112439641 0 0 0
178 0 1 0 11.876303809452425 9.051986593886973 0.6177355519080369 0 0 0
91 0 1 0 13.823944931054697 5.74360432130625 1.9024935587168226 0 0 0
92 0 2 0 13.989865132715888 6.672889229707933 2.252121259813948 0 0 0
93 0 2 0 12.820475785366032 5.6636029539550785 1.962054579159198 0 0 0
747 0 2 0 15.099213279465872 5.614637874622388 0.596292281616646 0 0 1
211 0 1 0 13.991210443245194 8.448416090782578 2.3059500197895697 0 0 0
212 0 2 0 14.525490386103689 9.104061361273446 2.835608369819974 0 0 0
213 0 2 0 13.255087576901218 8.868538796081713 1.8831589144069425 0 0 0
183 0 2 0 15.061755986220994 8.516125142496668 0.7994965120594573 0 0 0
86 0 2 0 17.86460524596982 5.572569767312547 2.2269456207490825 0 0 0
85 0 1 0 18.13843517500611 6.226269170047209 1.5526539056965094 0 0 0
87 0 2 0 18.99857738959051 5.849878175673031 1.3931915010499436 0 0 0
185 0 2 0 17.766055194774815 7.738645321361604 2.6240646846655693 0 0 0
746 0 2 0 16.63498263909168 5.8363699871749395 0.5997920387599682 0 0 1
140 0 2 0 19.846381230557668 8.663843548206032 1.9570021800536392 -1 0 0
184 0 1 0 17.3731353270179 8.133355619589475 3.413163195633669 0 0 0
186 0 2 0 17.574368247004458 9.098878107459928 3.447344238996461 0 0 0
214 0 1 0 18.42995047457562 9.421567687379294 0.5258398542672065 0 0 0
216 0 2 0 17.492259556360445 9.290538082603021 0.7589041484135091 0 0 0
118 0 1 0 0.9555008453391236 10.66937185654962 4.045323270608112 0 0 0
120 0 2 0 1.942257635170855 10.680558083847815 4.203963580346798 0 0 0
129 0 2 0 0.7956000070718335 12.17806570635063 2.6648003000342704 0 0 0
782 0 2 0 1.4320924774046893 11.850927166786116 0.5764857955867401 0 0 1
127 0 1 0 0.34583172927212713 12.711384865321085 1.9647905188483303 0 0 0
124 0 1 0 3.758901992858128 10.456678713619745 3.93012471636924 0 0 0
249 0 2 0 0.6457910340105938 14.453872788339972 2.2897241059603135 0 0 0
221 0 2 0 2.955702556535219 14.24199335499245 3.764551317280957 0 0 0
123 0 2 0 3.828259578684004 12.087308774365146 1.0950358764950696 0 0 0
220 0 1 0 3.816800809046767 14.43048974709516 3.3886817625923897 0 0 0
222 0 2 0 3.9779905882315685 13.777682985156405 2.732875351972918 0 0 0
783 0 2 0 2.3208432615168033 10.539851865567565 0.258799871064869 0 0 1
156 0 2 0 7.851690749959351 11.267753593611392 3.1728282886019974 0 0 0
122 0 2 0 4.050158638757232 11.688783992272146 2.5600942851630677 0 0 0
121 0 1 0 4.503103129293948 12.11485416345944 1.825998602177798 0 0 0
165 0 2 0 6.364917472563114 12.280616736468824 1.9571598173607871 0 0 0
163 0 1 0 7.284555946776325 12.435290366938435 2.04823432630604 0 0 0
164 0 2 0 7.448054811254583 13.32402153056838 2.3753613832293854 0 0 0
154 0 1 0 8.005680585672248 10.523911994560619 3.8103562468793104 0 0 0
161 0 2 0 9.70672066246108 10.568501210897509 3.7691768992700756 0 0 0
160 0 1 0 10.634722019744475 10.642968116047477 3.632676196125928 0 0 0
158 0 2 0 11.033199427461229 12.102384803647427 2.617384867773179 0 0 0
819 0 2 0 8.605824141182524 12.16979974020038 0.8888127409745901 0 0 1
159 0 2 0 10.833852914023987 13.610526052837551 2.4795442962386005 0 0 0
157 0 1 0 11.20063286646278 12.824335503374904 1.9773843936134459 0 0 0
256 0 1 0 10.53145352835433 14.52430831420995 3.7624994005002006 0 0 0
146 0 2 0 9.037291689107741 10.187682674848247 0.26212183548744006 0 0 0
818 0 2 0 10.088943062408214 12.169499504366025 0.7093107474367956 0 0 1
191 0 2 0 14.911610378646976 11.118550591316918 3.0930957689919367 0 0 0
190 0 1 0 14.985974410769554 10.590330866025752 3.908869130215802 0 0 0
192 0 2 0 15.89001402524708 10.881416080553345 4.204127981612887 0 0 0
199 0 1 0 14.176447327473712 12.41406044271982 1.7457944872656959 0 0 0
200 0 2 0 13.178146965493097 12.366634460991937 1.809500837612353 0 0 0
201 0 2 0 14.386090899301095 13.36856636345963 1.9288553324103874 0 0 0
855 0 2 0 15.100471937553461 11.824966774167239 0.30798690077753277 0 0 1
196 0 1 0 17.63878138406517 10.851962381131912 3.7434358539835877 0 0 0
197 0 2 0 17.656897725720782 11.30724574858056 2.8684228793702933 0 0 0
128 0 2 0 19.46488744744385 12.43621988451807 1.9477355745736673 -1 0 0
195 0 2 0 17.02050160965714 12.261761717653773 0.7884344627775896 0 0 0
193 0 1 0 17.616162691320376 12.643487464412543 1.4762663929791657 0 0 0
194 0 2 0 17.326968987562147 13.544613601633193 1.697776868796376 0 0 0
294 0 2 0 16.371170468539525 14.579880472677647 3.7110320162886623 0 0 0
292 0 1 0 17.167964730170723 14.719985310742922 3.1664836183770277 0 0 0
247 0 1 0 0.8321905812819435 15.39575688525355 2.167501039753552 0 0 0
218 0 2 0 2.386554996879465 15.36363334419519 1.366848056888404 0 0 0
217 0 1 0 3.180194438556089 15.651915961609786 0.8347652908048437 0 0 0
248 0 2 0 0.10322318638478034 15.734979739710672 1.6083553640053365 0 0 0
227 0 2 0 1.0023059483756658 16.676562766861736 3.556906907400122 0 0 0
235 0 1 0 0.8056362958045452 19.3427731157 2.0274271645908146 0 0 0
236 0 2 0 1.0695141692287615 18.86711681740607 2.8398592450134714 0 0 0
237 0 2 0 1.336096351096321 18.829453083350238 1.396642401823746 0 0 0
226 0 1 0 1.4636219758065525 17.365336577836914 4.093280577434644 0 0 0
228 0 2 0 2.4275128739111387 17.237146139491166 3.9834670372531447 0 0 0
891 0 2 0 3.3233757668095523 18.679188119761577 0.21452236312603645 0 0 1
283 0 1 0 7.79461245820668 15.242187693769012 2.409078596303125 0 0 0
284 0 2 0 7.0157110898288675 15.517799782718487 1.8352162500439595 0 0 0
233 0 2 0 3.9829943510174894 16.359762864412893 2.7501280162214283 0 0 0
251 0 2 0 5.033875492061128 15.431262898499238 0.9165671926039681 0 0 0
232 0 1 0 4.122903985119377 17.180657700686282 3.2063969081177617 0 0 0
234 0 2 0 4.380569286723467 17.86870378850312 2.5095678077223518 0 0 0
229 0 1 0 4.93115690254674 19.342967303238233 1.5142863870101582 0 0 0
250 0 1 0 5.898220228181481 15.860687918835945 0.7257831787873165 0 0 0
231 0 2 0 5.87894002602109 19.39123776456548 1.245624797535783 0 0 0
271 0 1 0 7.754362307768309 19.048277596752555 2.100052764411111 0 0 0
285 0 2 0 8.510882184902131 15.388694878662214 1.7618190613956992 0 0 0
257 0 2 0 10.664504293834355 15.462813667561576 3.7125182132299517 0 0 0
273 0 2 0 8.183759101943467 18.470799889422658 2.834073041997899 0 0 0
263 0 2 0 8.262809980509989 16.709676374066255 3.330956968623547 0 0 0
262 0 1 0 8.435344001913435 17.43364759584044 4.025652935269773 0 0 0
266 0 2 0 11.489907025761914 19.574110787859304 2.5732959124022385 0 0 0
253 0 1 0 9.722317395356836 15.626731931280572 0.26109706213826767 0 0 0
255 0 2 0 10.698454910481734 15.552329783813336 0.4798673718403385 0 0 0
927 0 2 0 8.863060626891675 18.557952742860508 0.9405149609861219 0 0 1
264 0 2 0 9.417938282552656 17.45434255319411 4.191733981098698 0 0 0
265 0 1 0 11.546706923885846 18.759413296053687 2.0118346080593223 0 0 0
267 0 2 0 10.914662026351467 18.90303372136824 1.2692886284998297 0 0 0
268 0 1 0 11.168386863463049 17.257653888151573 4.049093228927028 0 0 0
269 0 2 0 11.269162313907485 17.66557318606234 3.1643080931404963 0 0 0
926 0 2 0 9.579015923501517 17.376237793118634 0.2317373916702611 0 0 1
319 0 1 0 14.21666402588974 15.160435162984351 2.2654572910835062 0 0 0
320 0 2 0 13.374290494465733 15.275836631085973 1.8613369681720064 0 0 0
321 0 2 0 14.418049413154284 15.898916608006623 2.8152437083502257 0 0 0
291 0 2 0 15.561858416315992 15.614300134623674 0.884890271801975 0 0 0
286 0 1 0 12.381787928594491 15.539466334005736 0.6221348563587458 0 0 0
307 0 1 0 14.271606214432243 19.103199362871578 2.014538101015015 0 0 0
308 0 2 0 13.3496040497357 18.792295656052133 1.8261623878357318 0 0 0
309 0 2 0 14.658629256968814 18.56887415020092 2.750505230263967 0 0 0
298 0 1 0 14.898720417090228 17.327752875704498 3.850171663305834 0 0 0
963 0 2 0 15.455947464885336 18.700011488833788 0.7163842351284774 0 0 1
300 0 2 0 15.81214789201855 17.35524155614104 4.098376265434751 0 0 0
287 0 2 0 12.433780176133428 16.4042164297584 0.23281391926789807 0 0 0
293 0 2 0 17.333152905129218 15.68466358829046 3.2827690920522947 0 0 0
322 0 1 0 19.016468800835412 16.25562779323611 0.48786945050485725 0 0 0
290 0 2 0 17.080663444987735 15.783335798270814 0.30565382576827116 0 0 0
301 0 1 0 18.1558994020291 19.232992223328665 1.6291432801081782 0 0 0
302 0 2 0 17.635709573295692 18.907792727221555 0.8967956859716705 0 0 0
303 0 2 0 19.125041973299197 19.318841205888646 1.4513072987035727 0 0 0
306 0 2 0 17.730246226015183 18.207525499972455 2.9194292164806206 0 0 0
304 0 1 0 17.646038480941485 17.479199937162413 3.6021250484361587 0 0 0
22 0 1 0 2.38057041994364 1.1365912163229268 5.0559857470639615 0 0 0
23 0 2 0 2.690655954406477 1.7114437346344145 5.738657128892806 0 0 0
325 0 1 0 3.3034657162674517 2.815231268980883 7.27467589246205 0 0 0
327 0 2 0 3.0412600209175333 3.6787772220989474 6.958365049628061 0 0 0
101 0 2 0 0.565521295128965 1.1967986038801406 4.957554595557193 1 0 0
24 0 2 0 2.485135927212119 0.2364613182969426 5.485522659669789 0 0 0
12 0 2 0 2.2250466608682005 4.36948327028481 4.368942301884518 0 0 0
11 0 2 0 0.7269709806272168 4.5603037739916665 4.678965463432957 0 0 0
356 0 2 0 2.120201963865924 2.439631125077509 8.361294987980559 0 0 0
357 0 2 0 0.59609044296522 2.5308631794810434 8.24979134028491 0 0 0
326 0 2 0 4.236356840100788 2.755899218740904 7.52588807663715 0 0 0
28 0 1 0 6.373034338532409 0.9908774093218508 4.979533556819123 0 0 0
29 0 2 0 7.362880570986535 0.9795601167199611 4.993501380115486 0 0 0
358 0 1 0 5.905701948233493 2.486478160670175 7.5274499560761 0 0 0
359 0 2 0 6.04198459578527 1.848130021430148 6.789748035468352 0 0 0
360 0 2 0 6.687240455336772 2.5203766937435117 8.108594492757458 0 0 0
8 0 2 0 5.8943524873845785 3.9144472890208903 6.491872680953842 0 0 0
48 0 2 0 7.094501553074614 4.213747219319415 4.789172517632138 0 0 0
9 0 2 0 5.040507544070285 4.491841676448869 5.274213686933686 0 0 0
7 0 1 0 5.850682628400295 4.582652956968848 5.7953425298342705 0 0 0
30 0 2 0 6.109411106197093 0.11648114491369241 5.253183377461854 0 0 0
42 0 2 0 11.906768460932616 0.9128539893438457 4.364936980593147 0 0 0
58 0 1 0 9.103140622373807 0.8549232268056847 5.230588847805089 0 0 0
59 0 2 0 9.48317454019853 1.5474697717946027 5.8146982667948555 0 0 0
361 0 1 0 9.709629047120856 2.8823351172039584 7.06748489006025 0 0 0
363 0 2 0 9.679089061287725 3.6502410870143702 6.596028486926412 0 0 0
362 0 2 0 10.623603570922159 2.681782303887167 7.194753879375338 0 0 0
392 0 2 0 8.765173624435418 2.19430739638567 8.284621222706262 0 0 0
47 0 2 0 8.539977714628012 3.930248569774714 4.314523822699509 0 0 0
53 0 2 0 11.138209466779363 3.934317387032235 4.872223009466583 0 0 0
394 0 1 0 12.356933433518735 2.5294975205869146 7.657084861166354 0 0 0
396 0 2 0 12.5795851917907 3.2705370492691297 7.04487382689944 0 0 0
65 0 2 0 13.942183044454852 0.9886896334373091 5.375629350187084 0 0 0
64 0 1 0 12.994386411746211 0.8621870507955282 5.6137833295987525 0 0 0
66 0 2 0 12.819767182308704 1.4198585313419503 6.3660908921846415 0 0 0
395 0 2 0 13.128211499727959 2.3789993758791814 8.194318822011194 0 0 0
94 0 1 0 15.620556451677286 0.9973950908671189 4.959124191360536 0 0 0
95 0 2 0 15.908103533451648 1.80586669824882 5.433692505406114 0 0 0
44 0 2 0 13.243567043631176 4.039583805300797 5.001816094038 0 0 0
43 0 1 0 12.574591594093416 4.287655099628358 5.681259221063522 0 0 0
429 0 2 0 15.33638521326955 2.2437254732275624 8.325996366659355 0 0 0
399 0 2 0 16.20087832096663 3.6567478941863474 6.932471127845013 0 0 0
397 0 1 0 16.400335414287902 2.714579549197594 6.968469161565336 0 0 0
100 0 1 0 19.670544220045464 1.0329840611916747 4.971598300530418 0 0 0
398 0 2 0 17.33905522739086 2.6514989101314925 7.096634760376056 0 0 0
430 0 1 0 19.274710003238013 2.6189178969530973 7.267409745163485 0 0 0
431 0 2 0 19.495564388659496 2.031055354958692 6.526093367292736 0 0 0
432 0 2 0 19.32097217863356 3.4787246805554943 6.725386329665119 0 0 0
81 0 2 0 18.24226307105294 4.8730341755985656 5.044004452027022 0 0 0
79 0 1 0 19.037081173433798 4.7717706211290745 5.621305782500635 0 0 0
102 0 2 0 19.577786442041784 0.15179010309710234 5.427560308263705 0 0 0
131 0 2 0 2.246813180756248 7.728298144784622 4.381204149218054 0 0 0
132 0 2 0 0.8546319303445294 7.802473373028393 5.144536680930141 0 0 0
25 0 1 0 2.797730254724573 5.43773200614813 6.436157217303478 0 0 0
130 0 1 0 1.731524754813202 7.623980688697014 5.212622225843785 0 0 0
26 0 2 0 2.3960645636124456 6.130966032293141 5.95786988349805 0 0 0
27 0 2 0 3.633051540215959 5.8161505371082844 6.833405141654839 0 0 0
344 0 2 0 1.5373396729286821 5.371907357237548 7.735531151319914 0 0 0
433 0 1 0 2.674692499459196 9.263630684308525 7.396495404027309 0 0 0
435 0 2 0 2.5032895655267833 8.887900110597014 6.526368659024739 0 0 0
434 0 2 0 3.6147509551078127 9.479812015640706 7.411412000322932 0 0 0
465 0 2 0 1.0734640241272406 8.4832238578328 8.193417747861716 0 0 0
113 0 2 0 4.687263082234307 7.634013684173762 4.406713394527737 0 0 0
136 0 1 0 5.954054174657141 7.278305560718613 5.6428611261093575 0 0 0
137 0 2 0 5.960281677369253 6.365011898349591 5.940420196341871 0 0 0
138 0 2 0 6.826070696250941 7.344303158430081 5.286601464404724 0 0 0
466 0 1 0 5.367465227330504 9.28735157832446 7.404417070338634 0 0 0
468 0 2 0 5.594599361594038 8.520500038732582 6.823934322762771 0 0 0
337 0 1 0 4.6754219792000224 6.0580134088322035 8.346479887733667 0 0 0
61 0 1 0 9.18983875835776 5.398010572011441 6.448969235329235 0 0 0
166 0 1 0 8.72711002386478 7.647118706065484 5.140784584625467 0 0 0
63 0 2 0 8.483422070972889 5.448474898621175 7.102463980425797 0 0 0
167 0 2 0 8.938851906909967 6.823846891140231 5.578785157217638 0 0 0
62 0 2 0 9.960288219554855 5.284417397123344 7.069439325226925 0 0 0
168 0 2 0 8.939090784580367 8.296043140642784 5.823730879877016 0 0 0
469 0 1 0 9.428913607795852 9.651520435752222 7.322752038846084 0 0 0
471 0 2 0 10.386976711254624 9.530775035317111 7.149934257705873 0 0 0
500 0 2 0 8.327571727811785 8.61223538123629 8.195780386832617 0 0 0
502 0 1 0 11.909821460039925 8.835245391906078 7.3264302894354145 0 0 0
373 0 1 0 11.347514907119193 5.660612755858657 8.214379088537903 0 0 0
173 0 2 0 12.24756370637549 7.457023112168767 4.802819690862009 0 0 0
172 0 1 0 12.875139427241105 7.173176728942766 5.519139639352326 0 0 0
45 0 2 0 12.725239012252121 5.297488438579635 5.614764248932149 0 0 0
416 0 2 0 14.630419432443398 5.690421853513364 7.842277202434222 0 0 0
174 0 2 0 13.735259492514851 7.289751592941614 5.112830229428501 0 0 0
202 0 1 0 15.335922212330198 7.30878566216836 5.024774527846004 0 0 0
99 0 2 0 15.88174112258251 6.016096061197034 5.968205577247404 0 0 0
203 0 2 0 15.48191891960585 7.958235789716013 5.755930361726193 0 0 0
204 0 2 0 15.990344257391373 7.524734474199586 4.365282127708153 0 0 0
503 0 2 0 12.22210925418803 8.110724211832835 6.736476784116436 0 0 0
507 0 2 0 15.192615745132205 9.238880085294827 7.815884181489379 0 0 0
504 0 2 0 12.2159862455844 9.627223201221554 6.851813336230031 0 0 0
505 0 1 0 15.54123505963275 9.440158723717389 6.9576646238191415 0 0 0
417 0 2 0 13.101360764625037 5.571850222935953 8.298935513258956 0 0 0
97 0 1 0 16.208486603873304 5.515427603027423 6.716037532609768 0 0 0
98 0 2 0 17.071496210627544 5.88968790322303 6.9437987996604615 0 0 0
80 0 2 0 19.264786222638307 5.672125059673274 5.888268538695214 0 0 0
208 0 1 0 18.964841526713634 7.535322447412781 5.7432480519822535 0 0 0
209 0 2 0 18.546862932281734 7.769634371442353 4.916871174344241 0 0 0
210 0 2 0 18.727026395872414 8.29782951327267 6.33828433673887 0 0 0
506 0 2 0 16.49121057522622 9.665134124918232 7.133833706104746 0 0 0
538 0 1 0 18.221716287514 9.646067329576343 7.617996778790569 0 0 0
539 0 2 0 18.784341682764165 9.301241142418407 8.313598085404069 0 0 0
410 0 2 0 19.102741979785073 6.614344812241764 8.322017668254182 0 0 0
135 0 2 0 2.4044061673690162 11.02310768765217 6.99980895085613 0 0 0
189 0 2 0 -0.01810415792259125 11.406440408399545 5.328612411175686 1 0 0
133 0 1 0 2.4019091766176883 11.948606204238635 6.7170563635563765 0 0 0
134 0 2 0 3.168032319858388 12.278760815400465 7.195870375999559 0 0 0
238 0 1 0 1.8118371322312559 14.248694682245437 5.044337378946871 0 0 0
239 0 2 0 0.8672805550631223 14.20286263649552 4.811790054439116 0 0 0
240 0 2 0 1.9108369650299597 13.51057175611186 5.625878663068271 0 0 0
453 0 2 0 0.7954502314465663 12.46946370226787 7.6913523951809495 0 0 0
125 0 2 0 4.543132602716642 10.731468652344022 4.44603397081266 0 0 0
467 0 2 0 5.633102467070284 10.049987201303068 6.830939840759731 0 0 0
116 0 2 0 6.61234538645979 11.305231019841486 5.132033814285717 0 0 0
115 0 1 0 5.774757827304058 11.384861357029767 5.569433784796948 0 0 0
117 0 2 0 5.6584626196652295 12.306683541606688 5.650946641162682 0 0 0
246 0 2 0 5.077338127515562 14.149464853262403 4.57793877567472 0 0 0
244 0 1 0 5.6065905161529965 14.12740530806031 5.398261072660491 0 0 0
276 0 2 0 7.4022166359099035 14.227013939517946 5.076080686693824 0 0 0
245 0 2 0 5.342009164302371 14.888873964337641 5.918071631980971 0 0 0
489 0 2 0 7.664731937487506 12.098432438415744 7.7705471887620154 0 0 0
258 0 2 0 9.702012472555834 14.374722317073877 4.335769369506482 0 0 0
281 0 2 0 11.602665692274332 13.926298981521294 4.942401253431936 0 0 0
470 0 2 0 9.191845244428665 10.44070090854126 6.8296939277468285 0 0 0
152 0 2 0 11.991765425911417 10.669318575489214 4.782837762504819 0 0 0
169 0 1 0 8.707805639853746 11.91591206194014 6.417798392032477 0 0 0
274 0 1 0 8.36580276579842 14.160997286251202 5.233860372020288 0 0 0
170 0 2 0 8.825513410281607 12.550728138459203 5.723359713269367 0 0 0
275 0 2 0 8.589771321784493 14.81142943898195 5.907088985876851 0 0 0
171 0 2 0 9.38979873324809 12.187032839650128 7.063834709665019 0 0 0
481 0 1 0 10.636302051147906 12.49821726274492 8.235636165226518 0 0 0
153 0 2 0 13.48931089495602 10.768718715029244 5.145421568816283 0 0 0
151 0 1 0 12.6305699110805 10.84185724802425 5.518564709426358 0 0 0
207 0 2 0 15.49976616637818 11.36336449049606 6.641889177617776 0 0 0
205 0 1 0 15.44710079919407 12.314964922959462 6.789855049822811 0 0 0
311 0 2 0 14.170971885787898 14.226423582659864 4.447023148393283 0 0 0
282 0 2 0 12.230974864062404 12.695900827433206 5.677668301536329 0 0 0
280 0 1 0 12.253550610643549 13.62299695368831 5.649290773153613 0 0 0
206 0 2 0 14.705446741174411 12.48130265665404 7.408972783865541 0 0 0
310 0 1 0 15.023323010998494 14.367906307681372 4.828286008216133 0 0 0
312 0 2 0 15.220550905637275 13.563408853154293 5.3719661535935765 0 0 0
524 0 2 0 12.610051918179995 12.681438518757398 8.289880206694358 0 0 0
198 0 2 0 18.284367874130297 11.253539174745836 4.404874369149543 0 0 0
540 0 2 0 18.72348498884965 10.38911354137112 7.240440422041868 0 0 0
187 0 1 0 19.31096891792353 11.692591245962417 5.933940180786669 0 0 0
188 0 2 0 19.234125003601612 12.65674125497336 5.737209553846802 0 0 0
318 0 2 0 18.4023059823274 14.371050272336342 4.533252206820704 0 0 0
518 0 2 0 16.69933299783566 12.849139005290281 7.7316423580363445 0 0 0
316 0 1 0 19.167019457704598 14.295220802705787 5.171086698217727 0 0 0
317 0 2 0 18.910140522320205 14.86948946332992 5.904727835295611 0 0 0
519 0 2 0 18.27076955631567 12.675849330963912 7.9477472935150475 0 0 0
517 0 1 0 17.4745266143742 13.038788684250942 8.320312336557322 0 0 0
542 0 2 0 2.2478172529379195 15.558409653192738 6.231025118500866 0 0 0
543 0 2 0 3.275875454984034 15.822762639415915 7.287483549869528 0 0 0
541 0 1 0 2.359733018327581 16.042483158414417 7.05831586338312 0 0 0
241 0 1 0 2.44109774656705 18.6850638398764 6.674355569061813 0 0 0
242 0 2 0 2.5086758895445964 17.709704316452076 6.782320248491821 0 0 0
243 0 2 0 3.229127805926332 19.006806097076115 7.188655446681957 0 0 0
560 0 2 0 1.17692552207271 19.067010207634375 7.777807224977265 0 0 0
297 0 2 0 0.08956513176076472 17.83514246404168 5.267265731730874 1 0 0
575 0 2 0 5.813990361624724 15.731503015635713 7.751783321162622 0 0 0
574 0 1 0 5.18896974906496 16.103584186740918 7.1165333151874055 0 0 0
224 0 2 0 5.548028914579708 17.59305033031349 4.660041420950263 0 0 0
225 0 2 0 7.015216523291392 17.724335971190072 5.170601510804178 0 0 0
223 0 1 0 6.129054369730274 18.001337987973947 5.312587889324774 0 0 0
576 0 2 0 5.543399372499775 16.920636050309653 6.692728398789031 0 0 0
553 0 1 0 4.552162529967299 19.3917995951711 8.185894377791156 0 0 0
578 0 2 0 8.995738809651716 15.658537358821443 7.824549905858171 0 0 0
577 0 1 0 9.616923125370691 15.88310264434104 7.118153902389884 0 0 0
270 0 2 0 11.962598685350573 17.50428625980684 4.554319998377437 0 0 0
60 0 2 0 9.16791424638727 19.801674218059148 5.701200904539049 0 -1 0
611 0 2 0 11.090891115697193 15.939925846919142 7.212078941856589 0 0 0
278 0 2 0 8.43355163465284 18.644702137898207 7.442551394842977 0 0 0
277 0 1 0 9.187489266851133 18.611206276189826 6.786588546671145 0 0 0
579 0 2 0 9.370293810493816 16.7650119057001 6.778559773055544 0 0 0
279 0 2 0 10.041749578121191 18.731746900050986 7.257467365187643 0 0 0
612 0 2 0 12.33072064295029 15.124528585830067 6.763034280409062 0 0 0
614 0 2 0 15.175632189334577 15.25703371903325 6.417132722443413 0 0 0
613 0 1 0 15.547402278289582 15.803192582321063 7.117173711407697 0 0 0
610 0 1 0 12.118769643408074 16.01821060353395 7.117085611970226 0 0 0
299 0 2 0 14.361623606244997 17.652230435480675 4.5905056940614495 0 0 0
261 0 2 0 12.719148615027995 17.267995065509297 6.444093258508188 0 0 0
260 0 2 0 12.914555362049118 18.82984283691711 6.189712980477766 0 0 0
259 0 1 0 13.09409575938668 17.94274387270041 5.809735003885764 0 0 0
315 0 2 0 15.263827564849521 18.89081898992542 7.1290880010247974 0 0 0
615 0 2 0 15.384736263488756 16.74479600961577 6.9043926877774435 0 0 0
314 0 2 0 15.959066762890773 19.10702804714046 5.841381963515534 0 0 0
633 0 2 0 13.279569374038815 18.804290835492118 8.328263260124015 0 0 0
313 0 1 0 15.976477715620396 18.53868918392606 6.584738483057959 0 0 0
648 0 2 0 18.81689320091705 15.81947429996161 8.053596264706051 0 0 0
647 0 2 0 17.390430302694284 15.981194471772064 7.357677648382268 0 0 0
646 0 1 0 18.332167654778296 16.2835991054732 7.371394642840802 0 0 0
305 0 2 0 18.30564930851442 17.621921949647188 4.296300986422265 0 0 0
295 0 1 0 19.300851867317796 18.153629738387934 5.6251572800334015 0 0 0
296 0 2 0 18.953924457484 17.538373445789944 6.273792902783765 0 0 0
627 0 2 0 17.552114581791116 19.16581300859503 7.848442565597717 0 0 0
626 0 2 0 19.0369585855808 19.56296004453673 8.277739649660226 0 0 0
355 0 1 0 1.2778145857260965 2.142240167849671 8.811383051645128 0 0 0
335 0 2 0 1.694393799519048 3.302463481898552 10.221643014018179 0 0 0
346 0 1 0 2.3092139385601493 0.852762037945797 11.901205013620025 0 0 0
347 0 2 0 2.957444712343579 1.001054326015421 11.134227427940603 0 0 0
348 0 2 0 1.4677413483871162 1.253399962045752 11.687481141085996 0 0 0
334 0 1 0 1.7741441145603747 4.022992066282912 10.850984870746448 0 0 0
336 0 2 0 2.7606542039514625 4.21084996244933 10.97677970802101 0 0 0
405 0 2 0 0.27044038418978694 4.6593619775554265 12.080161757256237 1 0 0
345 0 2 0 1.3491554762047469 4.952699878402389 9.230453801872763 0 0 0
561 0 2 0 0.9892966475902174 0.4464415595407257 8.726756514265709 0 1 0
340 0 1 0 4.364370557609228 4.294994848940811 10.6078217835265 0 0 0
328 0 1 0 4.208248019248953 1.481119959848288 10.077884278456056 0 0 0
329 0 2 0 4.066590863727947 2.4100845141942746 10.048812813279882 0 0 0
330 0 2 0 4.936712927903453 1.321188383583339 10.689517610326913 0 0 0
353 0 2 0 6.997805561278528 1.1903206219848745 11.738135768932159 0 0 0
352 0 1 0 6.122744808501816 1.0074446475853716 12.04654594653546 0 0 0
341 0 2 0 4.475057536923499 4.896054806768109 9.819093690136206 0 0 0
342 0 2 0 5.150995310163315 4.5225977731707445 11.16448136983562 0 0 0
332 0 2 0 7.299490364137528 4.56866638655379 12.182299891433741 0 0 0
554 0 2 0 4.428960728339092 0.4743167532868461 8.536091589891944 0 1 0
331 0 1 0 6.3726773531249785 4.733434626832341 12.37642180852732 0 0 0
393 0 2 0 8.014317559350436 0.9569430507898012 8.844986000907829 0 0 0