LAMMPS (23 Jun 2022)
echo both

include		in.partitions
variable        pid world 0
include		in.temp
variable        temperature equal 255
variable        tempDamp equal 0.100 # this is 0.1 ps
include		in.pressure
variable        pressure equal 5066.25
variable        pressureDamp equal 1.0 #this is 1ps
include		in.seed
variable        seed world 745823

units           metal
atom_style	full
include		in.box
read_data       iceIII.data
Reading data file ...
  orthogonal box = (0 0 0) to (19.991053 19.991053 20.800772)
  1 by 1 by 1 MPI processor grid
  reading atoms ...
  972 atoms
Finding 1-2 1-3 1-4 neighbors ...
  special bond factors lj:    0        0        0       
  special bond factors coul:  0        0        0       
     0 = max # of 1-2 neighbors
     0 = max # of 1-3 neighbors
     0 = max # of 1-4 neighbors
     1 = max # of special neighbors
  special bonds CPU = 0.002 seconds
  read_data CPU = 0.009 seconds
include 	in.setup
variable	out_freq equal 500
variable	out_freq2 equal 500

timestep        0.0005

neigh_modify    delay 7 every 1

include         in.deepmd
# This is deepMD model

# create groups ###
#group ox type 2
#group hy type 1

mass 2 15.999
mass 1 1.008

pair_style      deepmd ../graph.pb
Summary of lammps deepmd module ...
  >>> Info of deepmd-kit:
  installed to:       /u/sigbjobo/software/DEEPMD_FROM_SOURCE/deepmd-kit/install
  source:             v2.1.3
  source branch:       master
  source commit:      5a32c49
  source commit at:   2022-07-01 09:52:58 +0800
  surpport model ver.:1.1 
  build float prec:   double
  build with tf inc:  /u/sigbjobo/software/DEEPMD_FROM_SOURCE/tensorflow/install/include;/u/sigbjobo/software/DEEPMD_FROM_SOURCE/tensorflow/install/include
  build with tf lib:  /u/sigbjobo/software/DEEPMD_FROM_SOURCE/tensorflow/install/lib/libtensorflow_cc.so;/u/sigbjobo/software/DEEPMD_FROM_SOURCE/tensorflow/install/lib/libtensorflow_framework.so
  set tf intra_op_parallelism_threads: 0
  set tf inter_op_parallelism_threads: 0
  >>> Info of lammps module:
  use deepmd-kit at:  /u/sigbjobo/software/DEEPMD_FROM_SOURCE/deepmd-kit/install
  source:             v2.1.3
  source branch:      master
  source commit:      5a32c49
  source commit at:   2022-07-01 09:52:58 +0800
  build float prec:   double
  build with tf inc:  /u/sigbjobo/software/DEEPMD_FROM_SOURCE/tensorflow/install/include;/u/sigbjobo/software/DEEPMD_FROM_SOURCE/tensorflow/install/include
  build with tf lib:  /u/sigbjobo/software/DEEPMD_FROM_SOURCE/tensorflow/install/lib/libtensorflow_cc.so;/u/sigbjobo/software/DEEPMD_FROM_SOURCE/tensorflow/install/lib/libtensorflow_framework.so
pair_coeff      * *

bond_style      none
angle_style     none
dihedral_style  none
improper_style  none
neigh_modify exclude none


neighbor        2.0 bin
neigh_modify    every 10 delay 0 check no

thermo          ${out_freq}
thermo          500
thermo_style 	custom step temp pe etotal epair emol press lx ly lz xy xz yz vol pxx pyy pzz pxy pxz pyz cella cellb cellc cellalpha cellbeta cellgamma

restart 	${out_freq} restart.lmp.${pid} restart2.lmp.${pid}
restart 	500 restart.lmp.${pid} restart2.lmp.${pid}
restart 	500 restart.lmp.0 restart2.lmp.${pid}
restart 	500 restart.lmp.0 restart2.lmp.0


include         in.dump
dump            myDump all atom ${out_freq2} dump.water.${pid}
dump            myDump all atom 500 dump.water.${pid}
dump            myDump all atom 500 dump.water.0
dump            myDump2 all dcd ${out_freq2} dump.dcd
dump            myDump2 all dcd 500 dump.dcd
dump_modify     myDump append yes
dump_modify     myDump2 append yes


timer           timeout 04:55:00 every 1000
New timer settings: style=normal  mode=nosync  timeout=04:55:00

fix             2 all nph aniso ${pressure} ${pressure} ${pressureDamp}
fix             2 all nph aniso 5066.25 ${pressure} ${pressureDamp}
fix             2 all nph aniso 5066.25 5066.25 ${pressureDamp}
fix             2 all nph aniso 5066.25 5066.25 1
fix             3 all temp/csvr ${temperature} ${temperature} ${tempDamp} ${seed}
fix             3 all temp/csvr 255 ${temperature} ${tempDamp} ${seed}
fix             3 all temp/csvr 255 255 ${tempDamp} ${seed}
fix             3 all temp/csvr 255 255 0.1 ${seed}
fix             3 all temp/csvr 255 255 0.1 745823
velocity 	all create ${temperature} ${seed} dist gaussian
velocity 	all create 255 ${seed} dist gaussian
velocity 	all create 255 745823 dist gaussian

run             400000

CITE-CITE-CITE-CITE-CITE-CITE-CITE-CITE-CITE-CITE-CITE-CITE-CITE

Your simulation uses code contributions which should be cited:

- USER-DEEPMD package:

@article{Wang_ComputPhysCommun_2018_v228_p178,
  author = {Wang, Han and Zhang, Linfeng and Han, Jiequn and E, Weinan},
  doi = {10.1016/j.cpc.2018.03.016},
  url = {https://doi.org/10.1016/j.cpc.2018.03.016},
  year = 2018,
  month = {jul},
  publisher = {Elsevier {BV}},
  volume = 228,
  journal = {Comput. Phys. Commun.},
  title = {{DeePMD-kit: A deep learning package for many-body potential energy representation and molecular dynamics}},
  pages = {178--184}
}

CITE-CITE-CITE-CITE-CITE-CITE-CITE-CITE-CITE-CITE-CITE-CITE-CITE

Generated 0 of 1 mixed pair_coeff terms from geometric mixing rule
Neighbor list info ...
  update every 10 steps, delay 0 steps, check no
  max neighbors/atom: 2000, page size: 100000
  master list distance cutoff = 8
  ghost atom cutoff = 8
  binsize = 4, bins = 5 5 6
  1 neighbor lists, perpetual/occasional/extra = 1 0 0
  (1) pair deepmd, perpetual
      attributes: full, newton on
      pair build: full/bin
      stencil: full/bin/3d
      bin: standard
Per MPI rank memory allocation (min/avg/max) = 7.648 | 7.648 | 7.648 Mbytes
   Step          Temp          PotEng         TotEng         E_pair         E_mol          Press            Lx             Ly             Lz             Xy             Xz             Yz           Volume          Pxx            Pyy            Pzz            Pxy            Pxz            Pyz           Cella          Cellb          Cellc        CellAlpha       CellBeta      CellGamma   
         0   255           -175.65013     -143.64467     -175.65013      0              37630.855      19.991053      19.991053      20.800772      0              0              0              8312.8663      41406.567      41870.306      29615.69      -62.790736     -1049.5753     -448.09673      19.991053      19.991053      20.800772      90             90             90           
       500   253.75575     -162.76307     -130.91378     -162.76307      0              2409.6699      19.908071      19.81761       20.380118      0              0              0              8040.5758      2925.5045      3342.0992      961.40601     -249.46751     -753.95269     -1228.1034      19.908071      19.81761       20.380118      90             90             90           
      1000   261.83916     -161.56204     -128.69819     -161.56204      0              1784.699       20.046512      19.949317      20.190709      0              0              0              8074.5518      2138.7433      2157.1729      1058.1809     -1643.3354     -189.29495     -1691.4089      20.046512      19.949317      20.190709      90             90             90           
      1500   247.8558      -161.50049     -130.39171     -161.50049      0              11991.88       20.155906      20.052893      20.189014      0              0              0              8160.081       8544.5099      15023.49       12407.64       486.33043      49.091105      544.37726      20.155906      20.052893      20.189014      90             90             90           
      2000   254.58954     -160.00293     -128.04899     -160.00293      0             -1710.8366      20.103157      20.01772       20.229163      0              0              0              8140.6072     -1572.6902      500.99962     -4060.8193     -429.78172      547.14019      523.90344      20.103157      20.01772       20.229163      90             90             90           
      2500   256.11992     -159.06023     -126.91421     -159.06023      0              9046.2883      19.868045      20.04942       20.333325      0              0              0              8099.6333      7664.3773      8141.2064      11333.281      1863.6233      2905.085       769.45531      19.868045      20.04942       20.333325      90             90             90           
      3000   254.34235     -159.2373      -127.31438     -159.2373       0              8676.6375      19.859175      20.093448      20.480327      0              0              0              8172.4554      12030.646      7683.4672      6315.7992     -158.14565     -2140.1994      2583.9623      19.859175      20.093448      20.480327      90             90             90           
      3500   246.44615     -158.97698     -128.04513     -158.97698      0              4231.897       20.086392      19.948187      20.377164      0              0              0              8164.8669      1980.6904      4016.2424      6698.7582      407.57218      2014.0899      15.581348      20.086392      19.948187      20.377164      90             90             90           
      4000   252.90222     -160.40966     -128.6675      -160.40966      0              3663.7614      20.182504      19.89084       20.288796      0              0              0              8144.8754      356.35183      7618.2876      3016.6448      1573.1834      1437.9409      1801.1765      20.182504      19.89084       20.288796      90             90             90           
      4500   260.69349     -161.37792     -128.65786     -161.37792      0              4388.4638      20.031203      19.984822      20.261382      0              0              0              8111.0371      4506.3542      1826.0779      6832.9592      44.417416      1503.1611      282.05263      20.031203      19.984822      20.261382      90             90             90           
      5000   254.37024     -160.5391      -128.61269     -160.5391       0              4707.5467      19.997042      20.071393      20.305055      0              0              0              8149.8092      2700.104       4771.1913      6651.3448      912.0493       928.09859     -451.37074      19.997042      20.071393      20.305055      90             90             90           
      5500   247.77949     -160.89674     -129.79754     -160.89674      0              3498.7212      19.944399      20.000673      20.373968      0              0              0              8127.2046      4956.8505      5540.5547     -1.2416794      444.42147      2779.6818      1721.9553      19.944399      20.000673      20.373968      90             90             90           
      6000   264.26472     -161.78456     -128.61627     -161.78456      0              1395.1822      20.027197      19.908249      20.405772      0              0              0              8135.9127      939.10789      493.70869      2752.7299      384.76235     -2378.3492      750.59809      20.027197      19.908249      20.405772      90             90             90           
      6500   256.02539     -161.3605      -129.22635     -161.3605       0              5314.7765      20.123761      19.981855      20.281458      0              0              0              8155.3785      252.3558       9072.3938      6619.5798      1478.6798     -586.66754      2266.1404      20.123761      19.981855      20.281458      90             90             90           
      7000   255.29024     -158.78218     -126.74029     -158.78218      0              4689.8034      20.074356      20.199195      20.079471      0              0              0              8141.941       3535.9213      5349.4033      5184.0855      179.6961       981.00593     -1474.0534      20.074356      20.199195      20.079471      90             90             90           
      7500   251.91612     -158.55057     -126.93218     -158.55057      0              4000.0266      20.011474      20.230518      20.031271      0              0              0              8109.5098      7055.4559      1180.1661      3764.4579      1055.3283     -1017.8193     -59.904456      20.011474      20.230518      20.031271      90             90             90           
      8000   251.69507     -160.45288     -128.86223     -160.45288      0              7543.4312      20.139164      19.934921      20.353741      0              0              0              8171.4702      7036.8822      6951.8268      8641.5846     -758.21945     -803.709       -100.91746      20.139164      19.934921      20.353741      90             90             90           
      8500   242.86626     -160.06715     -129.58461     -160.06715      0              6882.9856      20.057423      19.778552      20.610542      0              0              0              8176.3421      5698.7645      8926.3399      6023.8524      2536.3922      2638.6721      2693.6687      20.057423      19.778552      20.610542      90             90             90           
      9000   264.44069     -159.99503     -126.80466     -159.99503      0              6483.2915      19.86752       19.933222      20.539581      0              0              0              8134.1602      5552.9175      9440.3702      4456.5868     -922.18209     -235.45902     -232.45258      19.86752       19.933222      20.539581      90             90             90           
      9500   262.63938     -160.25966     -127.29537     -160.25966      0              3995.8931      19.97082       20.150349      20.37288       0              0              0              8198.4337      2374.9262      5856.6211      3756.1321     -415.21053     -1300.4805     -1196.3484      19.97082       20.150349      20.37288       90             90             90           
     10000   259.28556     -158.99533     -126.45199     -158.99533      0              7956.5845      20.082889      20.103199      20.138855      0              0              0              8130.6661      2421.5408      9961.1848      11487.028     -166.17103      48.007481      1444.3341      20.082889      20.103199      20.138855      90             90             90           
     10500   263.10647     -158.03954     -125.01663     -158.03954      0              3033.7435      20.21283       20.077382      20.16813       0              0              0              8184.6446      5251.4977     -1231.7821      5081.5149     -1281.5547      515.58915      1887.3502      20.21283       20.077382      20.16813       90             90             90           
     11000   265.25274     -160.52106     -127.22876     -160.52106      0              4996.6866      20.089825      19.953527      20.286085      0              0              0              8131.9384      2870.3055      9438.6949      2681.0595     -154.59009     -1722.4015     -548.76367      20.089825      19.953527      20.286085      90             90             90           
     11500   251.58743     -159.92459     -128.34745     -159.92459      0              5610.0284      19.983529      19.961377      20.46492       0              0              0              8163.4311      2901.4353      5702.214       8226.436       792.64448      5834.4027      351.78419      19.983529      19.961377      20.46492       90             90             90           
     12000   255.59739     -159.6704      -127.58996     -159.6704       0              6885.9197      19.989479      20.026144      20.499952      0              0              0              8206.3803      10510.07       4404.8621      5742.8265      1160.6659      750.96457     -1594.9849      19.989479      20.026144      20.499952      90             90             90           
     12500   257.52858     -159.44049     -127.11766     -159.44049      0              9628.032       20.012909      20.104698      20.254879      0              0              0              8149.6212      10786.697      8340.0501      9757.349      -588.82148     -1568.5679      5008.3645      20.012909      20.104698      20.254879      90             90             90           
     13000   266.69982     -159.33969     -125.86576     -159.33969      0              5575.3888      20.063094      20.157478      20.07159       0              0              0              8117.3802      7706.1466      2014.8292      7005.1905      2006.2877      1292.9744     -3371.8775      20.063094      20.157478      20.07159       90             90             90           
     13500   249.8014      -159.84339     -128.49041     -159.84339      0              3321.4498      20.123494      20.029229      20.166594      0              0              0              8128.3083      1999.1263      5076.1305      2889.0926      970.71229     -465.86658      2237.7947      20.123494      20.029229      20.166594      90             90             90           
     14000   241.47235     -159.62942     -129.32183     -159.62942      0              6071.7014      20.116558      19.845307      20.520495      0              0              0              8192.177       5026.8968      8894.7322      4293.4751      1407.1197     -220.91327     -979.15469      20.116558      19.845307      20.520495      90             90             90           
     14500   245.83851     -160.96236     -130.10677     -160.96236      0              3828.1434      19.873297      19.751144      20.681656      0              0              0              8117.9709      4873.7358      4811.1176      1799.5769     -1353.7534      1449.7846      61.525885      19.873297      19.751144      20.681656      90             90             90           
     15000   261.35192     -160.22906     -127.42636     -160.22906      0              4815.4708      19.835417      19.972218      20.479647      0              0              0              8113.161       5130.2541      6666.5879      2649.5705     -944.2935       1067.852      -735.77903      19.835417      19.972218      20.479647      90             90             90           
     15500   255.03852     -159.58634     -127.57605     -159.58634      0              5355.9436      20.151286      20.19698       20.101692      0              0              0              8181.2904      2880.5984      2700.5489      10486.683     -1918.8463      1241.3602      1717.7431      20.151286      20.19698       20.101692      90             90             90           
     16000   254.8233      -159.59655     -127.61327     -159.59655      0              6396.0231      20.234109      20.091032      19.967386      0              0              0              8117.224       8351.3557      5193.2059      5643.5076     -395.32919     -70.056171     -1925.6549      20.234109      20.091032      19.967386      90             90             90           
     16500   263.47475     -160.58233     -127.51319     -160.58233      0              5102.3982      20.117365      20.01517       20.229465      0              0              0              8145.444       2784.7327      5602.104       6920.3578      562.97292      2269.2722     -20.221726      20.117365      20.01517       20.229465      90             90             90           
     17000   252.63743     -159.06418     -127.35525     -159.06418      0              8373.7164      19.894772      20.002549      20.414514      0              0              0              8123.877       8926.2266      7680.877       8514.0458      1716.4538      286.0181      -740.04693      19.894772      20.002549      20.414514      90             90             90           
     17500   248.21305     -159.02861     -127.875       -159.02861      0              4555.3504      19.901676      20.0768        20.451214      0              0              0              8171.5276      3190.8774      3393.5331      7081.6408     -500.33618     -489.89456     -4156.1821      19.901676      20.0768        20.451214      90             90             90           
     18000   248.73327     -160.92303     -129.70412     -160.92303      0              4988.4929      20.077525      20.031222      20.350298      0              0              0              8184.4289      6622.965       3449.3435      4893.1701      19.340368     -260.44187     -1176.8418      20.077525      20.031222      20.350298      90             90             90           
     18500   252.01717     -160.40883     -128.77775     -160.40883      0              6209.3004      20.138132      19.927353      20.118184      0              0              0              8073.4204      5668.8891      6734.0042      6225.0079      88.181727      1638.6024     -149.06674      20.138132      19.927353      20.118184      90             90             90           
     19000   255.23257     -160.86941     -128.83476     -160.86941      0              4291.4308      20.216194      20.119299      20.161129      0              0              0              8200.25        6463.7761      1924.1349      4486.3813      1133.2939      2075.6914      1773.1904      20.216194      20.119299      20.161129      90             90             90           
     19500   254.628       -160.00971     -128.05094     -160.00971      0              5443.2129      20.009291      20.07635       20.264947      0              0              0              8140.7032      3830.8149      6035.1308      6463.693       1371.9136      2909.099       1223.2328      20.009291      20.07635       20.264947      90             90             90           
     20000   251.40933     -161.34301     -129.78822     -161.34301      0              5426.6716      19.856556      20.007067      20.419266      0              0              0              8111.9917      4114.0323      6998.1355      5167.8471      576.56185      1251.2426     -954.64981      19.856556      20.007067      20.419266      90             90             90           
     20500   248.74908     -160.67386     -129.45297     -160.67386      0              6940.2008      19.895303      20.045077      20.446024      0              0              0              8153.933       10782.57       2993.7216      7044.3106     -2547.8418     -745.93857      2174.1728      19.895303      20.045077      20.446024      90             90             90           
     21000   255.90138     -161.41435     -129.29576     -161.41435      0              6296.6574      20.089935      20.040436      20.306263      0              0              0              8175.526       9518.3732      4725.3151      4646.284       396.04868     -1186.945      -584.71103      20.089935      20.040436      20.306263      90             90             90           
     21500   249.30719     -161.86243     -130.57148     -161.86243      0              5446.6687      20.198069      19.932309      20.12714       0              0              0              8103.0687      2576.0639      4197.6465      9566.2955     -104.17971      38.212694      2830.3818      20.198069      19.932309      20.12714       90             90             90           
     22000   254.45998     -160.35302     -128.41534     -160.35302      0              6294.6044      20.172503      19.959231      20.199915      0              0              0              8133.0442      8129.7764      6290.6493      4463.3874      928.40742      312.14657      998.62348      20.172503      19.959231      20.199915      90             90             90           
     22500   254.5213      -160.2054      -128.26003     -160.2054       0              4774.0649      19.973752      20.085007      20.451922      0              0              0              8204.7583      1731.9342      5168.0641      7422.1963     -991.73098      972.74847     -64.747031      19.973752      20.085007      20.451922      90             90             90           
     23000   247.75463     -160.87073     -129.77465     -160.87073      0              5324.2438      19.773352      20.035644      20.436888      0              0              0              8096.5194      9643.1093      4651.8917      1677.7302     -644.80529     -735.30091     -1680.4739      19.773352      20.035644      20.436888      90             90             90           
     23500   252.80248     -159.77079     -128.04114     -159.77079      0              8386.6512      20.106332      20.054546      20.314805      0              0              0              8191.404       8385.015       6263.7625      10511.176     -1710.786      -497.33918      1382.3385      20.106332      20.054546      20.314805      90             90             90           
     24000   261.68069     -158.76869     -125.92473     -158.76869      0              5447.2577      20.283589      19.876141      20.102334      0              0              0              8104.4465      5703.9974      3532.29        7105.4857      673.46368     -1186.2718      1230.1625      20.283589      19.876141      20.102334      90             90             90           
     24500   253.09451     -159.15598     -127.38968     -159.15598      0              4117.4622      20.207498      19.97116       20.214435      0              0              0              8157.8828      3864.5048      5427.4712      3060.4107      348.38027     -2031.7295      191.32642      20.207498      19.97116       20.214435      90             90             90           
     25000   258.21859     -159.79679     -127.38736     -159.79679      0              6371.4334      19.961323      20.138639      20.410905      0              0              0              8205.059       6021.2758      5749.5389      7343.4855     -188.23431      2523.1013     -268.62349      19.961323      20.138639      20.410905      90             90             90           
     25500   255.60808     -158.77126     -126.68948     -158.77126      0              5602.6706      19.848217      20.087086      20.416732      0              0              0              8140.005       7694.8052      4621.876       4491.3307      714.70167     -557.75088     -50.142866      19.848217      20.087086      20.416732      90             90             90           
     26000   259.1824      -159.3382      -126.80781     -159.3382       0              4594.8656      20.031715      20.05831       20.372762      0              0              0              8185.8235      3003.6295      5209.5591      5571.4081      347.93947      2071.4473      2070.3679      20.031715      20.05831       20.372762      90             90             90           
     26500   246.08217     -159.7473      -128.86113     -159.7473       0              6064.5898      20.087212      20.032098      20.199163      0              0              0              8127.9208      2803.3936      7696.0249      7694.351      -312.20576     -4283.3728      1050.3718      20.087212      20.032098      20.199163      90             90             90           
     27000   268.89679     -160.17516     -126.42549     -160.17516      0              4356.8533      20.105426      20.040732      20.216471      0              0              0              8145.7711      4464.1181      4913.1762      3693.2655     -719.68859      479.91735      1054.9097      20.105426      20.040732      20.216471      90             90             90           
     27500   252.97424     -159.93025     -128.17905     -159.93025      0              5316.266       20.127504      20.121321      20.375856      0              0              0              8252.0577      6977.0855      3146.2498      5825.4626     -851.37957     -2369.5757      27.204071      20.127504      20.121321      20.375856      90             90             90           
     28000   244.28166     -159.09445     -128.43427     -159.09445      0              4938.3412      19.963018      19.95064       20.319141      0              0              0              8092.6054      4195.0802      2879.6952      7740.2483     -98.158628     -1613.9259     -392.37325      19.963018      19.95064       20.319141      90             90             90           
     28500   244.16252     -158.10719     -127.46196     -158.10719      0              5152.454       20.060265      19.905105      20.383757      0              0              0              8139.2683      3963.7111      4205.9529      7287.698      -865.6895      -323.92469      1105.2785      20.060265      19.905105      20.383757      90             90             90           
     29000   264.25203     -160.99964     -127.83295     -160.99964      0              3917.156       20.16231       19.964934      20.416381      0              0              0              8218.3936      2814.4366      3168.7706      5768.2608      381.32599     -1393.8603     -1480.0222      20.16231       19.964934      20.416381      90             90             90           
     29500   258.1619      -159.00411     -126.6018      -159.00411      0              4896.1093      20.03944       19.948192      20.285787      0              0              0              8109.2556      5543.1512      3112.9389      6032.2377     -613.58478      520.58199      1803.3464      20.03944       19.948192      20.285787      90             90             90           
     30000   266.79472     -158.55707     -125.07124     -158.55707      0              4907.1524      20.051719      20.115806      20.313971      0              0              0              8193.7723      5331.3641      4409.6267      4980.4664      1048.7546      2986.035       94.857233      20.051719      20.115806      20.313971      90             90             90           
     30500   256.18488     -158.26165     -126.10747     -158.26165      0              4474.2809      19.97054       20.152479      20.28022       0              0              0              8161.8941      2702.1912      7740.0973      2980.5542      901.62848     -959.13128      772.95284      19.97054       20.152479      20.28022       90             90             90           
     31000   255.20959     -158.05647     -126.02471     -158.05647      0              6683.8673      19.977546      20.048168      20.294826      0              0              0              8128.3456      8861.7713      5977.6613      5212.1691      1295.0998     -1000.4546      87.120881      19.977546      20.048168      20.294826      90             90             90           
     31500   248.31942     -158.31028     -127.14331     -158.31028      0              5612.1435      20.146513      19.953107      20.347253      0              0              0              8179.3011      6383.9         5011.0761      5441.4544      113.27325      458.0108      -1557.0739      20.146513      19.953107      20.347253      90             90             90           
     32000   253.06712     -159.85755     -128.09469     -159.85755      0              6258.7974      20.142502      19.81636       20.25994       0              0              0              8086.7772      9283.9928      5045.5155      4446.884       1693.7784     -2606.471       1387.9545      20.142502      19.81636       20.25994       90             90             90           
     32500   258.67446     -159.63216     -127.16551     -159.63216      0              6383.5329      20.064461      19.972967      20.316001      0              0              0              8141.5728      5575.9503      7322.7727      6251.8758      1213.9286      3669.158      -971.00907      20.064461      19.972967      20.316001      90             90             90           
     33000   259.0526      -160.05344     -127.53934     -160.05344      0              7705.067       19.902234      20.207232      20.310865      0              0              0              8168.4017      10093.099      4642.4609      8379.641      -778.96266      1074.3213     -583.07989      19.902234      20.207232      20.310865      90             90             90           
     33500   263.24741     -161.62293     -128.58232     -161.62293      0              4102.2005      19.904105      20.21335       20.306964      0              0              0              8170.0733      4431.6283      1974.3368      5900.6366     -1308.5588      2168.6007     -1216.9774      19.904105      20.21335       20.306964      90             90             90           
     34000   243.89803     -160.60509     -129.99305     -160.60509      0              6114.6857      20.115005      19.840196      20.248911      0              0              0              8081.0498      4628.9704      5647.698       8067.3887     -2506.7194     -654.2395       133.58959      20.115005      19.840196      20.248911      90             90             90           
     34500   239.94048     -161.03206     -130.91675     -161.03206      0              5203.7652      20.280309      19.811825      20.317776      0              0              0              8163.4777      4482.134       4363.7165      6765.445      -1030.7565      1740.9377      2173.517       20.280309      19.811825      20.317776      90             90             90           
     35000   248.85752     -162.40242     -131.16791     -162.40242      0              6119.4864      19.96647       19.998049      20.325668      0              0              0              8115.8448      9107.6096      4793.0706      4457.7791      260.66949      1078.8511      2914.8886      19.96647       19.998049      20.325668      90             90             90           
     35500   248.71223     -161.17256     -129.95629     -161.17256      0              6072.4644      19.86617       20.13788       20.345679      0              0              0              8139.5446      8354.8969      4375.2422      5487.2541     -841.41367      1124.3036      531.2697       19.86617       20.13788       20.345679      90             90             90           
     36000   248.7318      -159.69429     -128.47556     -159.69429      0              5139.2762      20.049281      20.115067      20.257178      0              0              0              8169.5705      2048.312       6966.8737      6402.6429      792.04686      45.326404      434.0847       20.049281      20.115067      20.257178      90             90             90           
     36500   263.61066     -160.9837      -127.89751     -160.9837       0              3064.9814      20.189182      19.954267      20.221118      0              0              0              8146.2859      2888.524       4308.373       1998.0474      422.09439      1408.5218      1073.6447      20.189182      19.954267      20.221118      90             90             90           
     37000   249.89165     -159.41219     -128.04789     -159.41219      0              4546.432       20.174961      19.935303      20.270299      0              0              0              8152.5918      3957.4433      3807.6866      5874.1661     -2436.4136      1332.7138     -797.62826      20.174961      19.935303      20.270299      90             90             90           
     37500   256.69721     -160.95663     -128.73815     -160.95663      0              8349.4001      19.930265      20.061139      20.235257      0              0              0              8090.5373      5111.8786      9590.9         10345.422      377.89597     -1087.3886      3654.5024      19.930265      20.061139      20.235257      90             90             90           
     38000   263.52815     -160.13404     -127.0582      -160.13404      0              2757.3404      19.897051      20.230576      20.372351      0              0              0              8200.4579      7097.0921      131.75885      1043.1702     -2889.3095      817.77436     -1438.7244      19.897051      20.230576      20.372351      90             90             90           
     38500   258.56651     -159.93129     -127.47819     -159.93129      0              3471.7476      19.969283      19.979587      20.341908      0              0              0              8115.9741      6132.3569      1176.213       3106.673       1033.6739      1523.9371     -1839.8596      19.969283      19.979587      20.341908      90             90             90           
     39000   248.556       -160.21313     -129.01647     -160.21313      0              6707.4009      20.243578      19.819383      20.305668      0              0              0              8146.9436      464.67757      11653.766      8003.7595      30.747949     -96.810982     -2180.0227      20.243578      19.819383      20.305668      90             90             90           
     39500   257.41985     -160.10356     -127.79438     -160.10356      0              1546.1563      20.212825      19.992277      20.262767      0              0              0              8188.1917      2356.0688      1640.0001      642.39989      303.09966      327.16685     -2009.7268      20.212825      19.992277      20.262767      90             90             90           
     40000   258.85223     -160.76525     -128.27629     -160.76525      0              4489.8674      19.897564      20.161657      20.224225      0              0              0              8113.309       5246.7242      4164.8302      4058.0479     -236.00982      380.08194      1174.845       19.897564      20.161657      20.224225      90             90             90           
     40500   250.15665     -160.61096     -129.2134      -160.61096      0              5404.5873      19.975858      20.150299      20.299678      0              0              0              8171.0163      10847.386      1560.9214      3805.4545      35.938465     -235.77904     -3754.2237      19.975858      20.150299      20.299678      90             90             90           
     41000   252           -160.75948     -129.13055     -160.75948      0              5409.5386      20.215553      19.847182      20.313291      0              0              0              8150.1344      5255.9317      7240.6476      3732.0364     -211.88996     -777.45631     -2379.4363      20.215553      19.847182      20.313291      90             90             90           
     41500   254.49289     -159.92759     -127.98578     -159.92759      0              2468.2435      20.206406      19.887377      20.35086       0              0              0              8178.042       1783.2675      2371.1067      3250.3562     -25.017465      536.02199     -930.2968       20.206406      19.887377      20.35086       90             90             90           
     42000   262.06942     -161.1539      -128.26115     -161.1539       0              6651.9145      19.938029      20.153389      20.298143      0              0              0              8156.1766      4890.5634      6586.6744      8478.5057      2318.1878     -410.62257     -451.04526      19.938029      20.153389      20.298143      90             90             90           
     42500   256.13538     -159.27015     -127.12218     -159.27015      0              5558.435       19.922539      20.175254      20.231449      0              0              0              8131.8748      4822.0454      5344.6343      6508.6253      380.8732       891.09054      2258.5355      19.922539      20.175254      20.231449      90             90             90           
     43000   255.39703     -159.17231     -127.11702     -159.17231      0              4371.6171      20.13472       20.066271      20.317569      0              0              0              8208.8821      6506.6097      3061.0858      3547.1557      1339.6068      1210.8896     -1735.7697      20.13472       20.066271      20.317569      90             90             90           
     43500   261.75325     -161.16121     -128.30814     -161.16121      0              6703.6759      20.139546      19.909997      20.195152      0              0              0              8097.8175      7875.1059      2299.0579      9936.8638      444.58566      1117.7107      873.85367      20.139546      19.909997      20.195152      90             90             90           
     44000   248.55336     -159.20565     -128.00932     -159.20565      0              4836.5394      20.114497      20.005139      20.249638      0              0              0              8148.3187      3826.3685      5065.8064      5617.4431      383.37042      837.77017      72.916545      20.114497      20.005139      20.249638      90             90             90           
     44500   248.64939     -159.44753     -128.23915     -159.44753      0              7141.8054      19.964066      20.071863      20.285082      0              0              0              8128.5569      6506.2084      5222.9757      9696.2322     -28.193862      3173.6264      451.75986      19.964066      20.071863      20.285082      90             90             90           
     45000   245.7628      -161.35407     -130.50798     -161.35407      0              4765.4942      20.058071      20.06074       20.308673      0              0              0              8171.7985      3552.2405      6322.7001      4421.5421     -1025.9135     -2949.1426      23.552435      20.058071      20.06074       20.308673      90             90             90           
     45500   252.25048     -161.46433     -129.80397     -161.46433      0              8714.6344      20.14234       19.935844      20.240305      0              0              0              8127.5865      7978.9796      7478.4946      10686.429     -1817.4627     -2762.1206      1085.4131      20.14234       19.935844      20.240305      90             90             90           
     46000   251.54983     -160.25658     -128.68416     -160.25658      0              4952.0859      20.103132      19.973983      20.227454      0              0              0              8122.1244      2336.9691      5643.1816      6876.107       335.68757      665.5521       1364.0696      20.103132      19.973983      20.227454      90             90             90           
     46500   255.74362     -160.71565     -128.61686     -160.71565      0              6242.4864      20.065156      20.11185       20.336242      0              0              0              8206.6376      6694.9437      4152.5994      7879.9162      2818.3276     -1727.3555      753.89578      20.065156      20.11185       20.336242      90             90             90           
     47000   259.03606     -160.83636     -128.32433     -160.83636      0              3653.0023      19.949655      20.120034      20.421585      0              0              0              8196.9742      3447.3531      5025.0524      2486.6015      267.73783     -603.79        -1771.3325      19.949655      20.120034      20.421585      90             90             90           
     47500   266.24522     -160.13321     -126.71635     -160.13321      0              9823.0119      19.786144      20.041542      20.446639      0              0              0              8108.0091      7674.3095      11734.544      10060.182      503.38331      1472.5492      3116.3557      19.786144      20.041542      20.446639      90             90             90           
     48000   260.64358     -159.89057     -127.17678     -159.89057      0              7042.5606      19.979942      19.998686      20.370676      0              0              0              8139.5634      8214.6431      2712.1503      10200.888      543.77053     -2717.3196     -2673.2136      19.979942      19.998686      20.370676      90             90             90           
     48500   239.93573     -157.98445     -127.86973     -157.98445      0              6233.6763      20.275948      19.988859      20.215617      0              0              0              8193.2493      4527.5491      8688.5348      5484.9449      1467.7113     -1367.0573     -1108.2793      20.275948      19.988859      20.215617      90             90             90           
     49000   263.51116     -158.83024     -125.75653     -158.83024      0              5957.1958      20.211357      19.961522      20.121274      0              0              0              8117.917       5403.367       7953.3546      4514.8657      508.02817     -1187.157      -1211.6767      20.211357      19.961522      20.121274      90             90             90           
     49500   266.84988     -157.15531     -123.66256     -157.15531      0              5027.7828      19.978484      19.997502      20.295941      0              0              0              8108.6297      5081.4826      4659.2007      5342.665       158.30182      3976.0776      3741.7494      19.978484      19.997502      20.295941      90             90             90           
     50000   263.97073     -159.55219     -126.42081     -159.55219      0              5503.5657      19.997898      20.135619      20.628949      0              0              0              8306.66        8672.025       4431.5428      3407.1295      321.06207     -1460.4153      2201.5384      19.997898      20.135619      20.628949      90             90             90           
     50500   252.15647     -158.90745     -127.25889     -158.90745      0              4985.9036      19.964364      19.893633      20.516156      0              0              0              8148.2729      6004.4409      4322.7796      4630.4904     -631.54195      73.5971       -1571.2538      19.964364      19.893633      20.516156      90             90             90           
     51000   257.22347     -159.13749     -126.85296     -159.13749      0              4279.3708      19.994971      19.861212      20.255007      0              0              0              8043.7569      3127.1577      4800.7703      4910.1843     -2312.2262     -434.81122     -2347.6688      19.994971      19.861212      20.255007      90             90             90           
     51500   262.8347      -161.24982     -128.26102     -161.24982      0              4347.772       20.142086      20.163073      20.24535       0              0              0              8222.1701      2201.802       7295.2303      3546.2838      1407.9085     -2860.107      -2437.983       20.142086      20.163073      20.24535       90             90             90           
     52000   247.74771     -160.71378     -129.61857     -160.71378      0              2421.269       20.098966      20.166895      20.258581      0              0              0              8211.4864      571.01629      3940.9058      2751.8848      1431.4589     -1248.5751     -4106.5187      20.098966      20.166895      20.258581      90             90             90           
     52500   256.15583     -159.25255     -127.10202     -159.25255      0              5568.9282      19.949963      19.924514      20.25153       0              0              0              8049.8476      5692.5622      8104.0462      2910.1762     -1124.7968      2626.243       913.22189      19.949963      19.924514      20.25153       90             90             90           
     53000   249.43401     -160.24711     -128.94025     -160.24711      0              5110.1135      20.10282       19.950495      20.438135      0              0              0              8196.9434      4565.3246      7063.078       3701.9378      714.89521     -3079.7032     -869.78922      20.10282       19.950495      20.438135      90             90             90           
     53500   262.35131     -161.05102     -128.12289     -161.05102      0              3820.1125      20.032931      19.977418      20.462886      0              0              0              8189.3744      3977.3978      2587.8655      4895.0741     -1063.9839      1517.5755      2446.4838      20.032931      19.977418      20.462886      90             90             90           
     54000   263.474       -159.85107     -126.78203     -159.85107      0              6951.1139      19.867667      19.930333      20.386923      0              0              0              8072.5936      8798.8952      6228.0138      5826.4328      286.38536     -152.22317      2507.9781      19.867667      19.930333      20.386923      90             90             90           
     54500   250.01376     -162.23722     -130.85759     -162.23722      0              1700.0449      20.092035      20.054409      20.373464      0              0              0              8209.1591      6100.4866     -916.3724      -83.979425      0.31351076    -391.49536      714.84535      20.092035      20.054409      20.373464      90             90             90           
     55000   265.41672     -161.88475     -128.57187     -161.88475      0              4076.3133      20.234562      20.006236      20.175451      0              0              0              8167.3744      2517.9276      3991.7154      5719.297      -583.91063      1314.8884      1792.9638      20.234562      20.006236      20.175451      90             90             90           
     55500   256.54257     -161.95704     -129.75797     -161.95704      0              3826.8687      20.127019      20.003501      20.145977      0              0              0              8110.9888      640.63158      3974.1175      6865.857       1772.4667     -1870.8172     -572.1732       20.127019      20.003501      20.145977      90             90             90           
     56000   263.36919     -159.76811     -126.71222     -159.76811      0              6909.9645      19.890029      20.061435      20.361959      0              0              0              8124.8803      9149.4399      4387.0736      7193.3799     -1091.2733      295.77601     -327.1404       19.890029      20.061435      20.361959      90             90             90           
     56500   255.99099     -159.60499     -127.47515     -159.60499      0              3008.2679      19.802948      20.04533       20.61273       0              0              0              8182.3595      1373.7386      6435.7635      1215.3017      316.80653     -327.52937      2041.9542      19.802948      20.04533       20.61273       90             90             90           
     57000   264.53092     -161.08896     -127.88726     -161.08896      0              5319.4838      19.93909       19.930614      20.48608       0              0              0              8141.1332      7490.1029      4257.1991      4211.1493      67.367321     -576.69779     -1340.9067      19.93909       19.930614      20.48608       90             90             90           
     57500   258.3604      -160.74093     -128.3137      -160.74093      0              5180.1213      20.210873      19.915553      20.224223      0              0              0              8140.4665      1191.4732      7680.1953      6668.6953      274.15831      1771.9853     -2995.6205      20.210873      19.915553      20.224223      90             90             90           
     58000   240.60238     -158.22441     -128.02602     -158.22441      0              5288.0621      20.229895      19.977597      20.108716      0              0              0              8126.8309      3991.8969      7297.7895      4574.5         199.93356     -1180.7856      1440.2498      20.229895      19.977597      20.108716      90             90             90           
     58500   258.90543     -160.72996     -128.23433     -160.72996      0              5995.8941      20.077191      20.110796      20.25787       0              0              0              8179.4856      6062.9361      7497.9993      4426.7468     -693.99255     -2672.4006     -1481.2234      20.077191      20.110796      20.25787       90             90             90           
     59000   263.63812     -160.2241      -127.13446     -160.2241       0              5506.84        19.922175      20.143176      20.417101      0              0              0              8193.2987      2999.875       8646.204       4874.441      -515.41246      2852.9799      265.36673      19.922175      20.143176      20.417101      90             90             90           
     59500   260.33439     -159.1897      -126.51471     -159.1897       0              2950.7138      19.920208      19.983371      20.413826      0              0              0              8126.1913      3042.0625      3599.6488      2210.43       -1374.9198     -1184.7509      2099.2564      19.920208      19.983371      20.413826      90             90             90           
     60000   252.56865     -160.95201     -129.25172     -160.95201      0              2280.1316      20.116004      19.945329      20.401127      0              0              0              8185.3468      1659.8642      1987.7579      3192.7728      1678.9622      1162.5929     -1548.9162      20.116004      19.945329      20.401127      90             90             90           
     60500   252.29838     -160.96693     -129.30056     -160.96693      0              6065.3846      20.149559      20.026313      20.243394      0              0              0              8168.6424      8515.9645      5086.7223      4593.467      -1295.7912     -916.08109      650.15707      20.149559      20.026313      20.243394      90             90             90           
     61000   249.03994     -159.09145     -127.83405     -159.09145      0              4409.0378      20.080661      20.080997      20.225701      0              0              0              8155.8054      5660.1691      3390.0096      4176.9348     -195.53108     -876.93189      1964.2179      20.080661      20.080997      20.225701      90             90             90           
     61500   267.01775     -161.06079     -127.54697     -161.06079      0              5358.8173      20.001093      19.946795      20.371625      0              0              0              8127.4167      5040.2521      9093.3435      1942.8563     -272.49839      2111.4413      2043.3416      20.001093      19.946795      20.371625      90             90             90           
     62000   254.80145     -159.16313     -127.18259     -159.16313      0              5425.0395      20.04015       19.920847      20.479962      0              0              0              8175.9439      209.1898       10243.158      5822.7701     -201.86185      1087.5133      1879.9338      20.04015       19.920847      20.479962      90             90             90           
     62500   255.91933     -160.06904     -127.9482      -160.06904      0              3705.6238      19.934451      20.071429      20.489698      0              0              0              8198.193       6666.4386      926.04163      3524.3911      3389.2682     -1342.4658     -597.15682      19.934451      20.071429      20.489698      90             90             90           
     63000   267.29459     -158.77951     -125.23094     -158.77951      0              4335.1977      19.777603      20.188974      20.306701      0              0              0              8108.2526      5189.5295      431.71632      7384.3474      1080.5787      2337.8962      402.38899      19.777603      20.188974      20.306701      90             90             90           
     63500   247.32422     -159.36684     -128.32478     -159.36684      0              4998.0763      20.071209      20.292422      20.272529      0              0              0              8256.8683      3249.3176      7585.4845      4159.4269     -1544.1479     -1582.2666     -1632.7763      20.071209      20.292422      20.272529      90             90             90           
     64000   242.40145     -157.11657     -126.69238     -157.11657      0              6347.1902      20.252661      19.873673      20.148707      0              0              0              8109.7488      6805.1234      5609.1561      6627.291      -618.72401     -584.55502     -793.53783      20.252661      19.873673      20.148707      90             90             90           
     64500   253.13647     -159.5956      -127.82404     -159.5956       0              6920.7531      20.272986      19.740106      20.309416      0              0              0              8127.6437      3997.2447      8442.6012      8322.4135      222.47709      1619.2698      360.78498      20.272986      19.740106      20.309416      90             90             90           
     65000   244.62476     -161.31576     -130.61251     -161.31576      0              5465.3627      20.109367      19.951953      20.452654      0              0              0              8206.0376      6817.3483      5611.0926      3967.6472      1415.0286      1521.0861     -458.64175      20.109367      19.951953      20.452654      90             90             90           
     65500   248.16863     -159.90391     -128.75586     -159.90391      0              5338.5453      19.891712      20.093298      20.3622        0              0              0              8138.5697      7829.1606      4213.1575      3973.3179     -1152.481      -46.726215     -427.85037      19.891712      20.093298      20.3622        90             90             90           
     66000   259.63419     -158.30482     -125.71772     -158.30482      0              5407.5728      19.938586      20.085865      20.273934      0              0              0              8119.3811      6099.5551      4074.0462      6049.1172      1613.1121      2111.0349     -945.6611       19.938586      20.085865      20.273934      90             90             90           
     66500   269.9329      -161.2588      -127.37909     -161.2588       0              5447.6069      20.158252      20.083591      20.23533       0              0              0              8192.2753      5119.2106      6098.4861      5125.124       734.58417      148.62125     -3151.4557      20.158252      20.083591      20.23533       90             90             90           
     67000   257.45113     -161.23802     -128.92492     -161.23802      0              4824.2231      20.124299      20.062873      20.220319      0              0              0              8163.9793      2354.6279      4674.6172      7443.4242      760.52453     -1147.9679      3311.8713      20.124299      20.062873      20.220319      90             90             90           
     67500   252.71599     -160.54263     -128.82384     -160.54263      0              8470.6853      20.03684       20.067004      20.318669      0              0              0              8169.717       6031.3169      9844.8646      9535.8742      264.06063     -1166.8911      2131.5201      20.03684       20.067004      20.318669      90             90             90           
     68000   249.69957     -160.13435     -128.79416     -160.13435      0              6256.8015      19.976888      20.032717      20.362072      0              0              0              8148.7249      7172.1151      6318.9445      5279.3448      474.26219     -656.3541       1162.0018      19.976888      20.032717      20.362072      90             90             90           
     68500   256.30211     -159.44923     -127.28035     -159.44923      0              5889.4003      20.065423      19.968051      20.313589      0              0              0              8138.9924      7156.796       4594.544       5916.8608     -301.10689     -156.83119      934.89416      20.065423      19.968051      20.313589      90             90             90           
     69000   247.0056      -160.07354     -129.07147     -160.07354      0              3400.332       20.273068      19.967455      20.269867      0              0              0              8205.2741      4120.559       2030.7682      4049.6687      1259.3831     -1364.7041      1764.8641      20.273068      19.967455      20.269867      90             90             90           
     69500   252.9589      -161.36879     -129.61951     -161.36879      0              4002.8646      20.157445      19.962795      20.214809      0              0              0              8134.4181     -213.09929      7749.3818      4472.3112     -2348.3624     -803.6889       1330.5389      20.157445      19.962795      20.214809      90             90             90           
     70000   260.29739     -161.57126     -128.90092     -161.57126      0              3011.5135      19.987985      20.102522      20.317026      0              0              0              8163.5621      4583.6507      1931.5721      2519.3177      1052.1708      298.35229     -802.6069       19.987985      20.102522      20.317026      90             90             90           
     70500   248.54572     -160.2185      -129.02313     -160.2185       0              2800.4282      19.937569      20.069011      20.30782       0              0              0              8125.7133     -1653.3425      5751.955       4302.6721     -855.2578      -306.96943     -60.750052      19.937569      20.069011      20.30782       90             90             90           
     71000   253.09225     -160.77772     -129.01171     -160.77772      0              3178.3506      20.128257      19.977717      20.339291      0              0              0              8178.7668      3565.0689      1703.7143      4266.2685      352.41196      1529.0058     -1817.855       20.128257      19.977717      20.339291      90             90             90           
     71500   257.10677     -160.47019     -128.20031     -160.47019      0              7035.1547      20.104628      19.926233      20.306592      0              0              0              8135.0137      2655.3198      11933.405      6516.7393     -250.78219      2100.7964      1123.5727      20.104628      19.926233      20.306592      90             90             90           
     72000   262.15719     -158.76068     -125.85691     -158.76068      0              3987.9959      19.997852      20.081957      20.321135      0              0              0              8160.8866      8300.2014      747.8977       2915.8885      508.25877      172.43521      632.8796       19.997852      20.081957      20.321135      90             90             90           
     72500   252.49024     -159.37512     -127.68467     -159.37512      0              4838.0253      20.040009      20.169932      20.378188      0              0              0              8236.9783      4114.5678      3974.7724      6424.7356     -191.76298      856.53708      365.05731      20.040009      20.169932      20.378188      90             90             90           
     73000   243.19486     -159.55617     -129.03239     -159.55617      0              6413.99        20.062317      19.884665      20.222642      0              0              0              8067.4683      8667.3129      5646.051       4928.6062      912.8619       1358.477      -268.96427      20.062317      19.884665      20.222642      90             90             90           
     73500   252.04134     -159.7617      -128.12759     -159.7617       0              6247.5985      20.260441      19.91463       20.280708      0              0              0              8182.8434      4824.0095      5917.7112      8001.0749      1438.1748     -3238.7047     -324.33025      20.260441      19.91463       20.280708      90             90             90           
     74000   259.22633     -161.3482      -128.81229     -161.3482       0              5379.5947      20.092683      20.050729      20.361575      0              0              0              8203.1277      7709.7572      2793.252       5635.775      -768.20491     -467.39128      866.75778      20.092683      20.050729      20.361575      90             90             90           
     74500   255.37438     -160.50449     -128.45204     -160.50449      0              6270.8934      19.828992      20.133297      20.331185      0              0              0              8116.6766      6418.4871      4293.8214      8100.3718      158.15672      1343.6013     -3498.3086      19.828992      20.133297      20.331185      90             90             90           
     75000   260.75251     -159.79492     -127.06745     -159.79492      0              3771.9508      19.97901       20.078681      20.348007      0              0              0              8162.6471      3583.8407      5852.0268      1879.9847      1859.8526      3656.4072     -2488.048       19.97901       20.078681      20.348007      90             90             90           
     75500   242.36363     -159.37337     -128.95392     -159.37337      0              6938.8774      20.199917      19.941574      20.307826      0              0              0              8180.3608      7990.0006      5226.2412      7600.3905     -1419.1929      61.320629     -1398.7218      20.199917      19.941574      20.307826      90             90             90           
     76000   257.25309     -160.12359     -127.83534     -160.12359      0              1610.2571      20.26717       19.89938       20.317791      0              0              0              8194.2489     -1316.4766      2673.0206      3474.2272      962.21156      2330.2097     -660.84581      20.26717       19.89938       20.317791      90             90             90           
     76500   244.826       -162.50619     -131.77768     -162.50619      0              9073.4539      20.017631      19.878854      20.228415      0              0              0              8049.444       6950.6421      10958.93       9310.7897     -2048.8792      392.74908      199.00207      20.017631      19.878854      20.228415      90             90             90           
     77000   243.71985     -161.94071     -131.35104     -161.94071      0              4044.7206      20.010421      20.022491      20.308208      0              0              0              8136.6558      3011.9476      5323.0105      3799.2037     -1360.4107      249.11339     -3304.4826      20.010421      20.022491      20.308208      90             90             90           
     77500   244.52824     -159.20983     -128.5187      -159.20983      0              1602.5558      20.050456      20.126734      20.352254      0              0              0              8213.1558      1046.9046      2374.462       1386.3009      1157.6357     -26.283804      897.41256      20.050456      20.126734      20.352254      90             90             90           
     78000   261.84294     -158.39721     -125.53288     -158.39721      0              6220.7611      19.988272      20.075513      20.292302      0              0              0              8142.7897      6421.7412      6611.8291      5628.713       1723.8511     -0.7205857      158.42305      19.988272      20.075513      20.292302      90             90             90           
     78500   252.54666     -161.90419     -130.20665     -161.90419      0              1960.3419      20.01405       20.001563      20.367452      0              0              0              8153.3408      2409.2295      518.48561      2953.3105      1023.4356     -541.28573     -166.44344      20.01405       20.001563      20.367452      90             90             90           
     79000   247.35408     -160.65449     -129.60868     -160.65449      0              3487.7249      20.072217      19.963234      20.349431      0              0              0              8154.1467      7807.6708     -1474.4423      4129.9462     -1355.0939      1244.8308     -1132.1717      20.072217      19.963234      20.349431      90             90             90           
     79500   258.76053     -160.07688     -127.59943     -160.07688      0              5146.8776      20.200799      20.011117      20.249102      0              0              0              8185.5081      6431.677       5869.8274      3139.1283     -337.78333     -1015.4888      129.19164      20.200799      20.011117      20.249102      90             90             90           
     80000   256.78924     -159.33876     -127.10874     -159.33876      0              5666.6653      20.122536      19.973567      20.162118      0              0              0              8103.5347      1760.5818      8235.311       7004.103       1364.3443      491.94251      786.17322      20.122536      19.973567      20.162118      90             90             90           
     80500   254.06047     -160.0206      -128.13307     -160.0206       0              4171.9093      20.011508      20.090066      20.343089      0              0              0              8178.583       7101.9957      1672.7129      3741.0194     -460.60189     -1627.8143     -3133.9257      20.011508      20.090066      20.343089      90             90             90           
     81000   257.50822     -160.69591     -128.37564     -160.69591      0              5604.567       19.966246      20.114602      20.544866      0              0              0              8251.0872      6473.0788      6870.2535      3470.3686     -1401.4185     -367.53224      3606.8876      19.966246      20.114602      20.544866      90             90             90           
     81500   253.72142     -160.33958     -128.4946      -160.33958      0              7669.9909      19.874812      19.949362      20.314515      0              0              0              8054.4983      7430.0831      6720.6912      8859.1983      113.4455      -1998.6726      53.279003      19.874812      19.949362      20.314515      90             90             90           
     82000   257.27494     -161.80412     -129.51313     -161.80412      0              3087.3675      20.120625      20.103303      20.215541      0              0              0              8177.0048      3429.2955      2107.6182      3725.1887      40.957243      758.54284      1680.0722      20.120625      20.103303      20.215541      90             90             90           
     82500   259.40998     -158.52558     -125.96662     -158.52558      0              5563.1943      20.225923      20.055751      20.074925      0              0              0              8143.3145      1059.9925      8598.0457      7031.5447     -927.72871     -177.40145     -193.12316      20.225923      20.055751      20.074925      90             90             90           
     83000   252.59611     -159.22802     -127.52428     -159.22802      0              3919.5211      20.20734       19.948143      20.216897      0              0              0              8149.4092      4394.4147      5016.9881      2347.1606     -848.26619      1975.8105      4674.2239      20.20734       19.948143      20.216897      90             90             90           
     83500   245.73585     -158.1122      -127.2695      -158.1122       0              4502.2129      20.041505      19.936942      20.447951      0              0              0              8170.3125      2971.0661      7600.7058      2934.867       1290.5979     -1380.451       736.85187      20.041505      19.936942      20.447951      90             90             90           
     84000   270.9336      -159.79572     -125.79041     -159.79572      0              4203.2752      19.907369      19.930171      20.507103      0              0              0              8136.3419      8666.5042      2531.6587      1411.6628     -2550.2829     -13.085459      517.23792      19.907369      19.930171      20.507103      90             90             90           
     84500   252.55138     -159.08358     -127.38545     -159.08358      0              5563.7971      19.956035      20.028171      20.347332      0              0              0              8132.4802      4050.2421      7091.9754      5549.1738     -530.39862      225.81968      1778.206       19.956035      20.028171      20.347332      90             90             90           
     85000   254.09311     -160.30294     -128.41131     -160.30294      0              6172.8808      20.099175      20.154798      20.184501      0              0              0              8176.6367      4045.6145      8033.3645      6439.6634     -117.00077     -559.54045     -1589.0142      20.099175      20.154798      20.184501      90             90             90           
     85500   259.65143     -159.30317     -126.7139      -159.30317      0              6352.2247      20.11735       20.093059      20.103667      0              0              0              8126.2858      6932.107       6207.7044      5916.8625     -1107.6174     -2534.259       142.08576      20.11735       20.093059      20.103667      90             90             90           
     86000   254.7854      -159.88104     -127.90251     -159.88104      0              5586.0135      20.103516      19.955025      20.258733      0              0              0              8127.1185      5038.6509      6249.7513      5469.6383      826.14434      3944.3425      2513.2108      20.103516      19.955025      20.258733      90             90             90           
     86500   251.21497     -160.87693     -129.34654     -160.87693      0              6651.3257      20.084607      19.870043      20.627201      0              0              0              8231.9444      10489.752      4669.5671      4794.6577     -1431.0285      1818.8176     -2166.3817      20.084607      19.870043      20.627201      90             90             90           
     87000   251.76339     -161.10671     -129.50749     -161.10671      0              5185.8508      19.91102       19.796953      20.635349      0              0              0              8133.9907      1602.325       9250.3441      4704.8832      3138.1433     -858.41528     -917.78397      19.91102       19.796953      20.635349      90             90             90           
     87500   249.80098     -160.03464     -128.68172     -160.03464      0              3870.8218      19.934477      20.045896      20.324497      0              0              0              8121.7593      5983.6819      2735.5493      2893.2342     -1128.2975      1148.0312     -2578.8254      19.934477      20.045896      20.324497      90             90             90           
     88000   258.1957      -160.15946     -127.75291     -160.15946      0              5701.7834      20.113476      20.304669      19.983949      0              0              0              8161.3942      5843.4079      2169.5748      9092.3674      663.34526     -2052.3427     -191.55087      20.113476      20.304669      19.983949      90             90             90           
     88500   250.99177     -160.14913     -128.64675     -160.14913      0              7652.9841      20.173789      20.151795      19.949622      0              0              0              8110.2805      5637.5461      9148.1723      8173.2339     -811.2621      -836.92566     -1331.2254      20.173789      20.151795      19.949622      90             90             90           
     89000   242.9841      -160.97782     -130.48049     -160.97782      0              2772.8153      20.06433       19.925609      20.284928      0              0              0              8109.7924      4589.774      -784.10255      4512.7743     -60.443144     -462.5581       2291.7643      20.06433       19.925609      20.284928      90             90             90           
     89500   239.2767      -160.92054     -130.88854     -160.92054      0              5555.6712      19.986142      19.885512      20.566195      0              0              0              8173.7186      2739.3898      9606.9605      4320.6633      1238.2674     -1940.7759     -2741.6496      19.986142      19.885512      20.566195      90             90             90           
     90000   247.29947     -161.47055     -130.4316      -161.47055      0              4258.365       19.993322      19.918609      20.478185      0              0              0              8155.2153      6024.8645      2139.3631      4610.8674      2048.4842     -938.60376      690.88921      19.993322      19.918609      20.478185      90             90             90           
     90500   258.65869     -160.39788     -127.93321     -160.39788      0              3438.3721      20.098417      19.99539       20.251431      0              0              0              8138.5579      4082.6708      3319.6236      2912.8218      730.69556      772.63749      667.3853       20.098417      19.99539       20.251431      90             90             90           
     91000   249.31663     -159.53957     -128.24745     -159.53957      0              4154.6985      20.195569      20.061352      20.173309      0              0              0              8173.2245      2534.722       2937.9187      6991.4546     -610.47856     -836.80304      674.83598      20.195569      20.061352      20.173309      90             90             90           
     91500   236.35489     -161.3856      -131.72032     -161.3856       0              5177.2268      20.13528       20.102825      20.311401      0              0              0              8221.5682      4412.7334      5593.4095      5525.5375      934.51142     -1116.791       2192.1683      20.13528       20.102825      20.311401      90             90             90           
     92000   256.32116     -161.26749     -129.09621     -161.26749      0              6272.2132      19.801226      19.968933      20.379255      0              0              0              8058.1482      6300.7929      9625.4557      2890.3909     -450.97223     -2814.9877      2182.9845      19.801226      19.968933      20.379255      90             90             90           
     92500   252.10835     -160.79535     -129.15283     -160.79535      0              3674.7395      19.895176      20.080026      20.494605      0              0              0              8187.5054      5624.2677      2019.4044      3380.5465      1046.157       1809.8159      2521.8773      19.895176      20.080026      20.494605      90             90             90           
     93000   255.46772     -160.22756     -128.1634      -160.22756      0              6015.9086      20.144013      19.999469      20.374195      0              0              0              8208.143       5996.2745      5490.3902      6561.061      -270.3024      -1211.2007      1494.4807      20.144013      19.999469      20.374195      90             90             90           
     93500   254.70665     -161.08515     -129.11651     -161.08515      0              5587.4799      20.188853      19.929587      20.235073      0              0              0              8141.6929      3683.9261      7717.1723      5361.3413     -846.03383     -1157.0042      1127.859       20.188853      19.929587      20.235073      90             90             90           
     94000   242.32202     -160.01163     -129.5974      -160.01163      0              3222.8252      20.068283      20.085701      20.343423      0              0              0              8200.1396      2951.1303      2523.6873      4193.6579     -322.97035      1155.0063      2212.6263      20.068283      20.085701      20.343423      90             90             90           
     94500   259.4986      -161.75886     -129.18877     -161.75886      0              6241.1992      19.868608      20.031859      20.387632      0              0              0              8114.3826      8613.2009      3285.9183      6824.4783      187.77136      3610.7689     -1438.8254      19.868608      20.031859      20.387632      90             90             90           
     95000   241.68533     -161.10264     -130.76832     -161.10264      0              7837.9879      20.041807      19.85855       20.448833      0              0              0              8138.6608      8770.4571      9349.4088      5394.0978      637.57172     -628.78309      73.953609      20.041807      19.85855       20.448833      90             90             90           
[...]
    377000   255.75114     -161.79065     -129.69091     -161.79065      0              3052.9229      19.961443      20.054893      20.530686      0              0              0              8218.9389      2638.598       2372.8832      4147.2876     -1580.2323     -1126.6563      663.18729      19.961443      20.054893      20.530686      90             90             90           
    377500   253.98212     -161.27329     -129.39559     -161.27329      0              3355.6209      19.965454      20.097619      20.41516       0              0              0              8191.7478      3405.5865      4051.732       2609.5443      395.71246     -3432.3124     -2363.8492      19.965454      20.097619      20.41516       90             90             90           
    378000   251.65901     -159.43309     -127.84696     -159.43309      0              12168.58       20.012242      19.924118      20.074358      0              0              0              8004.1738      9234.8577      13369.389      13901.493     -205.05729     -1283.361       553.06223      20.012242      19.924118      20.074358      90             90             90           
    378500   245.08793     -160.65784     -129.89646     -160.65784      0              4032.2028      20.323914      20.078954      20.227609      0              0              0              8254.5419      2665.7431      4405.3713      5025.4941      1141.1835      522.85053     -3842.4288      20.323914      20.078954      20.227609      90             90             90           
    379000   257.98948     -160.49403     -128.11336     -160.49403      0              4150.0842      20.152658      20.050126      20.32749       0              0              0              8213.5932      5381.1607      3709.8401      3359.2517     -1825.6907     -1107.8862      1562.5632      20.152658      20.050126      20.32749       90             90             90           
    379500   252.63202     -160.27581     -128.56756     -160.27581      0              9724.6342      19.871193      19.881606      20.383533      0              0              0              8052.947       10706.391      9640.6722      8826.8394     -294.47161      1330.6049     -886.32017      19.871193      19.881606      20.383533      90             90             90           
    380000   247.17299     -160.72343     -129.70035     -160.72343      0              5575.1699      19.996224      19.995129      20.509226      0              0              0              8200.1442      5312.3761      5966.5466      5446.587      -686.75589     -1853.5934     -402.84342      19.996224      19.995129      20.509226      90             90             90           
    380500   248.72893     -161.10697     -129.88861     -161.10697      0              2452.6599      20.107571      20.030886      20.406312      0              0              0              8219.1004      2942.681       1659.9695      2755.3293      939.73696      590.57529      1672.7961      20.107571      20.030886      20.406312      90             90             90           
    381000   255.95148     -160.88428     -128.7594      -160.88428      0              2269.2953      20.029256      19.970878      20.135009      0              0              0              8054.0403      610.78044      3359.4523      2837.6531      138.48498      791.48926     -217.84033      20.029256      19.970878      20.135009      90             90             90           
    381500   269.32313     -159.63452     -125.83134     -159.63452      0              3471.3464      20.12745       20.207435      20.218221      0              0              0              8223.2385      1522.2413      2665.9405      6225.8575      261.41638     -903.44939      241.98456      20.12745       20.207435      20.218221      90             90             90           
    382000   251.13499     -159.5088      -127.98845     -159.5088       0              1895.7662      20.077041      20.091314      20.347312      0              0              0              8207.5792      1800.61        3695.7112      190.97757      355.00822      1363.973      -364.6748       20.077041      20.091314      20.347312      90             90             90           
    382500   270.94324     -159.91536     -125.90884     -159.91536      0              5259.2756      19.959057      19.888625      20.398974      0              0              0              8097.5398      4187.0846      6116.5522      5474.1901      356.4304       930.34707     -335.14676      19.959057      19.888625      20.398974      90             90             90           
    383000   256.57115     -158.97535     -126.7727      -158.97535      0              7336.1733      20.095455      20.004692      20.433501      0              0              0              8214.3364      5316.2594      8325.2552      8367.0052      662.3227      -326.47387      1721.0514      20.095455      20.004692      20.433501      90             90             90           
    383500   270.28544     -159.42556     -125.5016      -159.42556      0              2139.8832      20.149106      20.120606      20.371291      0              0              0              8258.7701      1982.9413      1427.1998      3009.5087      2916.5243     -2766.2366     -3848.4814      20.149106      20.120606      20.371291      90             90             90           
    384000   257.7127      -160.59279     -128.24685     -160.59279      0              9943.2956      20.026825      20.027998      20.204158      0              0              0              8103.8314      8477.9355      11526.21       9825.7417     -1363.3778     -471.94602      2568.1975      20.026825      20.027998      20.204158      90             90             90           
    384500   249.2028      -160.12112     -128.84327     -160.12112      0              6611.73        20.029758      20.05869       20.287833      0              0              0              8151.0568      4827.9699      8244.1759      6763.0443      1413.0081      166.12216      490.50493      20.029758      20.05869       20.287833      90             90             90           
    385000   258.74811     -162.27667     -129.80078     -162.27667      0              4147.1461      20.034465      20.10885       20.321523      0              0              0              8186.9329      3960.8477      4578.6494      3901.9412     -982.13246      3351.6673     -15.461114      20.034465      20.10885       20.321523      90             90             90           
    385500   248.19554     -160.95397     -129.80255     -160.95397      0              7506.1443      20.031707      19.996911      20.340431      0              0              0              8147.812       5542.8923      10645.278      6330.2624     -384.60892     -2650.9157      1028.5693      20.031707      19.996911      20.340431      90             90             90           
    386000   257.69559     -161.14383     -128.80004     -161.14383      0              6614.155       20.056342      19.94094       20.38273       0              0              0              8151.9165      7116.1338      7727.3839      4998.9475     -2372.2181     -2428.1817      1341.72        20.056342      19.94094       20.38273       90             90             90           
    386500   252.49886     -158.64905     -126.95752     -158.64905      0              4127.647       20.096232      20.069857      20.350161      0              0              0              8207.8002      6179.601       5540.4751      662.86495      1920.447       16.062025     -724.61345      20.096232      20.069857      20.350161      90             90             90           
    387000   263.21865     -161.09211     -128.05512     -161.09211      0              6890.5638      19.947916      20.093936      20.167622      0              0              0              8083.8313      4899.3694      8429.7786      7342.5433      535.86998     -1076.3286     -378.00084      19.947916      20.093936      20.167622      90             90             90           
    387500   256.13507     -160.34254     -128.19462     -160.34254      0              3193.9965      20.07715       20.174138      20.270433      0              0              0              8210.32        5117.7745      623.61831      3840.5968      1174.6738      899.72336     -1030.9351      20.07715       20.174138      20.270433      90             90             90           
    388000   250.45544     -161.66971     -130.23465     -161.66971      0              4719.6492      20.143148      19.944391      20.285565      0              0              0              8149.58        2851.2929      6151.5909      5156.0637     -682.08544     -1517.186       536.41936      20.143148      19.944391      20.285565      90             90             90           
    388500   250.10204     -162.31881     -130.9281      -162.31881      0              6311.5177      20.084519      19.892155      20.360427      0              0              0              8134.4866      3765.3874      9449.397       5719.7688      932.52468     -1161.5229      1067.7497      20.084519      19.892155      20.360427      90             90             90           
    389000   243.32112     -160.51919     -129.97957     -160.51919      0              4081.3881      19.899592      20.010878      20.366349      0              0              0              8110.0495      4870.0891      2859.0091      4515.0659      837.39698      713.34107      362.49523      19.899592      20.010878      20.366349      90             90             90           
    389500   248.31485     -161.25537     -130.08898     -161.25537      0              5713.3198      19.964181      20.104133      20.34455       0              0              0              8165.5407      8391.3871      3043.2031      5705.3692      182.62927     -2481.0751     -756.59085      19.964181      20.104133      20.34455       90             90             90           
    390000   247.33998     -161.70432     -130.66028     -161.70432      0              3970.1876      20.164151      20.008992      20.217032      0              0              0              8156.8513      2906.7969      3087.6343      5916.1316      212.18097      477.63904     -2065.7184      20.164151      20.008992      20.217032      90             90             90           
    390500   254.13464     -159.70314     -127.80629     -159.70314      0              7909.6007      20.148388      19.928452      20.158675      0              0              0              8094.236       9391.2497      8182.8109      6154.7413      1540.486      -3280.9122      954.80711      20.148388      19.928452      20.158675      90             90             90           
    391000   261.28684     -159.87203     -127.0775      -159.87203      0              5216.832       20.079348      20.224769      20.457291      0              0              0              8307.7091      3317.71        8406.0668      3926.7191     -1278.0712     -14.175163      446.72655      20.079348      20.224769      20.457291      90             90             90           
    391500   271.81401     -158.90549     -124.78968     -158.90549      0              5825.6134      19.860972      20.086232      20.453083      0              0              0              8159.3914      11119.245      3150.9043      3206.6909      46.833653     -330.61912     -1726.2327      19.860972      20.086232      20.453083      90             90             90           
    392000   246.20999     -161.55552     -130.65331     -161.55552      0              5295.1029      20.024305      19.97336       20.373265      0              0              0              8148.3414      5383.8024      5228.8725      5272.6337     -222.86791      1267.6551     -80.294773      20.024305      19.97336       20.373265      90             90             90           
    392500   245.42967     -161.17697     -130.3727      -161.17697      0              4120.8345      20.185009      19.993239      20.1624        0              0              0              8136.8131      3407.2742      3119.604       5835.6253      1747.3627      1099.4677      746.48498      20.185009      19.993239      20.1624        90             90             90           
    393000   248.84062     -158.7636      -127.53121     -158.7636       0              4479.7497      20.175115      20.129278      20.088365      0              0              0              8158.0958      5187.9711      4402.233       3849.045      -1357.0537     -2601.0634      2506.3801      20.175115      20.129278      20.088365      90             90             90           
    393500   263.89739     -158.60151     -125.47933     -158.60151      0              5951.3033      20.073603      20.231308      20.260689      0              0              0              8228.1747      6806.7169      5235.3889      5811.804       765.96034      1197.2885      1301.7963      20.073603      20.231308      20.260689      90             90             90           
    394000   251.39944     -159.87514     -128.32159     -159.87514      0              6406.551       19.867663      20.038009      20.395558      0              0              0              8119.6435      8309.3182      5787.9924      5122.3423     -1118.2659     -2121.4284      486.60947      19.867663      20.038009      20.395558      90             90             90           
    394500   242.22386     -159.78201     -129.38011     -159.78201      0              6085.0163      19.914662      20.014895      20.504732      0              0              0              8172.9788      7302.4388      5759.3958      5193.2144     -1146.9017     -1124.6109      404.69843      19.914662      20.014895      20.504732      90             90             90           
    395000   262.75494     -160.8692      -127.8904      -160.8692       0              4748.7876      20.0574        20.0224        20.341709      0              0              0              8169.1752      5783.7759      3365.1537      5097.4334     -2005.7864      107.45143      4368.2853      20.0574        20.0224        20.341709      90             90             90           
    395500   253.32606     -162.09488     -130.29953     -162.09488      0              3056.8848      20.231361      20.030634      20.072307      0              0              0              8134.2421      3903.8774     -330.46145      5597.2386     -590.30622     -3131.5407     -1602.2923      20.231361      20.030634      20.072307      90             90             90           
    396000   247.62112     -160.45932     -129.38        -160.45932      0              5768.1129      20.277785      20.158585      20.107401      0              0              0              8219.3315      8550.3903      2335.6585      6418.29       -840.54921      1290.8615      1241.9488      20.277785      20.158585      20.107401      90             90             90           
    396500   252.51903     -161.93347     -130.23941     -161.93347      0              3332.4349      19.867695      20.030089      20.282241      0              0              0              8071.3523      5044.9856      1630.4587      3321.8603      142.07773      2110.0071     -777.68294      19.867695      20.030089      20.282241      90             90             90           
    397000   250.89651     -160.04899     -128.55857     -160.04899      0              5367.9962      19.79747       20.007171      20.582989      0              0              0              8152.7444      3921.7195      7326.2202      4856.0489      749.16901     -701.90567      1329.9825      19.79747       20.007171      20.582989      90             90             90           
    397500   243.50549     -158.68324     -128.12048     -158.68324      0              4041.0454      20.028127      20.046543      20.663731      0              0              0              8296.3785      4122.8278      4852.7887      3147.5196      135.17232     -498.64723     -919.1708       20.028127      20.046543      20.663731      90             90             90           
    398000   259.90251     -160.51195     -127.89117     -160.51195      0              6031.6879      20.117097      19.957098      20.271116      0              0              0              8138.4245      3738.0006      10100.378      4256.6851      43.19505      -1849.0082      709.11233      20.117097      19.957098      20.271116      90             90             90           
    398500   251.16299     -158.63015     -127.10628     -158.63015      0              5954.8627      20.119726      20.095091      20.039183      0              0              0              8101.9967      6195.2401      4869.4047      6799.9433     -1324.1812      2260.6047      1391.178       20.119726      20.095091      20.039183      90             90             90           
    399000   247.82775     -162.91444     -131.80919     -162.91444      0              6900.13        20.063757      20.162406      20.136735      0              0              0              8145.986       8269.5798      4545.9922      7884.8182      1551.7679     -698.86774      2065.6143      20.063757      20.162406      20.136735      90             90             90           
    399500   247.69878     -160.36887     -129.2798      -160.36887      0              3053.5979      20.102759      20.069619      20.396178      0              0              0              8228.934       2512.508       4101.0922      2547.1934     -1371.4173      141.4202       1070.373       20.102759      20.069619      20.396178      90             90             90           
    400000   246.55749     -160.40358     -129.45776     -160.40358      0              7948.0288      20.056303      19.813403      20.378916      0              0              0              8098.247       9660.1657      5050.5033      9133.4174     -1911.5941      222.04471      36.433109      20.056303      19.813403      20.378916      90             90             90           
Loop time of 1762.92 on 1 procs for 400000 steps with 972 atoms

Performance: 9.802 ns/day, 2.448 hours/ns, 226.897 timesteps/s
85.5% CPU use with 1 MPI tasks x no OpenMP threads

MPI task timing breakdown:
Section |  min time  |  avg time  |  max time  |%varavg| %total
---------------------------------------------------------------
Pair    | 1077.2     | 1077.2     | 1077.2     |   0.0 | 61.11
Bond    | 0.026663   | 0.026663   | 0.026663   |   0.0 |  0.00
Neigh   | 233.34     | 233.34     | 233.34     |   0.0 | 13.24
Comm    | 10.512     | 10.512     | 10.512     |   0.0 |  0.60
Output  | 419.84     | 419.84     | 419.84     |   0.0 | 23.81
Modify  | 20.731     | 20.731     | 20.731     |   0.0 |  1.18
Other   |            | 1.228      |            |       |  0.07

Nlocal:            972 ave         972 max         972 min
Histogram: 1 0 0 0 0 0 0 0 0 0
Nghost:           4646 ave        4646 max        4646 min
Histogram: 1 0 0 0 0 0 0 0 0 0
Neighs:              0 ave           0 max           0 min
Histogram: 1 0 0 0 0 0 0 0 0 0
FullNghs:       249882 ave      249882 max      249882 min
Histogram: 1 0 0 0 0 0 0 0 0 0

Total # of neighbors = 249882
Ave neighs/atom = 257.08025
Ave special neighs/atom = 0
Neighbor list builds = 40000
Dangerous builds not checked

unfix		3
unfix		2

write_data	data.final.${pid}
write_data	data.final.0
System init for write_data ...
Generated 0 of 1 mixed pair_coeff terms from geometric mixing rule

write_restart   restart.lmp.${pid}
write_restart   restart.lmp.0
System init for write_restart ...
Generated 0 of 1 mixed pair_coeff terms from geometric mixing rule
Total wall time: 0:29:44
