LAMMPS data file via write_data, version 29 Sep 2021, timestep = 400000

864 atoms
2 atom types

0.049430338665660045 18.158142661335596 xlo xhi
0.08198987854964024 23.547187121448836 ylo yhi
0.04851927526707911 22.164676724731507 zlo zhi

Masses

1 1.008
2 15.999

Atoms # full

706 0 1 -1.1794 2.8401660499326695 2.1211612575755026 3.0217749399964147 0 0 0
708 0 2 0.5897 2.1789457447284772 2.7853989816042195 2.715626351498518 0 0 0
1 0 1 -1.1794 0.6012386504832896 3.2971016580764996 2.0230572291391935 0 0 0
3 0 2 0.5897 0.4835220828939858 4.223366419083176 2.373270347531504 0 0 0
707 0 2 0.5897 2.785706858913456 2.0843680113889906 3.979372860529781 0 0 0
29 0 2 0.5897 4.216717782739627 2.838207544811486 2.5082081221804677 0 0 0
20 0 2 0.5897 0.9781232374910875 3.8007506341351998 0.36005321125335615 0 0 0
188 0 2 0.5897 2.925741752368264 0.5346690659478901 2.0758327107415684 0 0 0
30 0 2 0.5897 5.126304505319641 4.026570261257708 2.7403178423132393 0 0 0
28 0 1 -1.1794 5.007147849288241 3.2235770321225403 2.2195164380223007 0 0 0
493 0 1 -1.1794 7.088749973900046 1.4791678822485639 2.7249913275455984 0 0 0
494 0 2 0.5897 6.231207020474694 1.825696227962251 2.597341908708756 0 0 0
495 0 2 0.5897 7.693175850090186 2.1807779297127547 2.4420136578203335 0 0 0
668 0 2 0.5897 5.41000547553724 3.1740807783598632 0.4940008630734001 0 0 0
750 0 2 0.5897 10.084645940928937 3.073804406098622 1.0599197844866914 0 0 0
748 0 1 -1.1794 9.553376545771226 2.9844668988372964 1.8576898736771552 0 0 0
106 0 1 -1.1794 11.749679100775923 1.5650978839454701 3.0457120928534103 0 0 0
108 0 2 0.5897 10.889147125716425 1.9507511078582953 2.7460390483795525 0 0 0
749 0 2 0.5897 9.763099047009783 3.7061093611723703 2.449317636693285 0 0 0
215 0 2 0.5897 13.038833200932078 2.2182340699081395 2.2727161910227274 0 0 0
107 0 2 0.5897 11.86099272659441 1.7339196567294446 4.0087882237654675 0 0 0
2 0 2 0.5897 17.909122010757002 2.8475661901953058 2.220931101319685 0 0 0
216 0 2 0.5897 13.805009217879112 3.7229576976767533 2.4155068485553346 0 0 0
214 0 1 -1.1794 13.738770730016684 2.8026390000806143 1.9245954494156505 0 0 0
406 0 1 -1.1794 16.07568189692183 1.6836467444313785 2.674726869808708 0 0 0
407 0 2 0.5897 16.33340631116824 0.7817484877728282 2.2710163757678656 0 0 0
408 0 2 0.5897 15.250054716070267 1.9175685913142204 2.1718209345306536 0 0 0
660 0 2 0.5897 16.595412777868717 1.5995042899205951 4.370759559725815 0 0 0
123 0 2 0.5897 2.9990734258764102 8.604899942921957 3.092655509641055 0 0 0
253 0 1 -1.1794 2.710000869649288 7.116413659666588 2.1666093117204066 0 0 0
254 0 2 0.5897 2.967121351303254 7.426719273428664 1.3217104189402469 0 0 0
255 0 2 0.5897 1.8622050929051754 6.667415716698889 2.258680289791938 0 0 0
595 0 1 -1.1794 0.45110297507418934 5.770147029854378 3.025129898145045 0 0 0
597 0 2 0.5897 0.314120658878715 5.934837745388314 3.978873077416383 0 0 0
138 0 2 0.5897 4.363842041116587 6.277784701100598 2.835479388459771 0 0 0
136 0 1 -1.1794 4.974486498502709 5.77718201112423 3.3689478402257365 0 0 0
137 0 2 0.5897 4.852004657889198 5.9478661629482135 4.305765508590648 0 0 0
65 0 2 0.5897 7.1415836844220415 8.313549593757406 3.0387610801214757 0 0 0
415 0 1 -1.1794 7.230197753702536 6.774408230819211 2.3163834942891306 0 0 0
416 0 2 0.5897 6.457637644394779 6.267751202111195 2.6334316667350746 0 0 0
417 0 2 0.5897 8.058537573724507 6.321144803123129 2.553227713185528 0 0 0
162 0 2 0.5897 7.228341255752301 6.854835759889549 0.5207688743609513 0 0 0
66 0 2 0.5897 7.4031322446819425 9.297054229300054 4.224594312611501 0 0 0
64 0 1 -1.1794 7.316640899562941 9.2883252107488 3.2515072687922224 0 0 0
190 0 1 -1.1794 11.687167373986023 6.683148835648342 1.9743479043749323 0 0 0
191 0 2 0.5897 11.576385423507862 6.608715397752652 1.0070236244973807 0 0 0
192 0 2 0.5897 11.66980092539422 7.692177981701786 2.129906220935928 0 0 0
298 0 1 -1.1794 9.46390305760529 5.3246221530882485 3.1235598958967903 0 0 0
299 0 2 0.5897 10.24975744863572 5.880352094104449 2.808216154667228 0 0 0
300 0 2 0.5897 9.26420576237867 5.53511183074733 4.10043505233401 0 0 0
110 0 2 0.5897 13.267179428736895 5.952497529449785 2.5047462279608665 0 0 0
92 0 2 0.5897 11.762022124252884 9.23726277898936 3.9742954097200864 0 0 0
91 0 1 -1.1794 11.687972497524271 9.30313302135672 2.982309797184378 0 0 0
596 0 2 0.5897 17.7310716419491 6.114264998236173 2.5885542157889057 0 0 0
109 0 1 -1.1794 13.991059664754843 5.449007732559705 2.792216000902656 0 0 0
111 0 2 0.5897 14.791283970103958 5.911428485416569 2.452949087577603 0 0 0
838 0 1 -1.1794 16.29298082267905 6.8241956731955185 1.991476646435822 0 0 0
839 0 2 0.5897 16.30312608793342 7.725988518828898 2.3430858641231835 0 0 0
840 0 2 0.5897 16.419477918651147 6.840156589897966 1.0059542606948302 0 0 0
841 0 1 -1.1794 16.51521392730202 9.451620730702716 3.2098437473776986 0 0 0
121 0 1 -1.1794 3.063444921215336 9.571949636257514 3.3383816615251614 0 0 0
122 0 2 0.5897 3.0819059121873593 9.679412673198724 4.305465128964456 0 0 0
43 0 1 -1.1794 0.719445404660043 10.706536285498393 2.3291454779871206 0 0 0
44 0 2 0.5897 1.393415756691976 10.167636796804285 2.736430806086477 0 0 0
373 0 1 -1.1794 0.4703235887485004 13.390981696614862 3.1344493543440004 0 0 0
45 0 2 0.5897 0.932697856245101 11.598307130152683 2.7041942116180495 0 0 0
374 0 2 0.5897 0.42477868915547684 13.51122692019095 4.152885375371534 0 0 0
219 0 2 0.5897 4.491957015996299 10.16099274325373 2.6235850105948058 0 0 0
396 0 2 0.5897 0.7771776207299443 10.985712845617256 0.5634423251805405 0 0 0
173 0 2 0.5897 4.11503892293697 13.570865665959218 2.678332036697053 0 0 0
557 0 2 0.5897 1.890096233149628 14.0558054553088 2.279562546548347 0 0 0
174 0 2 0.5897 5.228865905115664 12.423663759313591 2.6007987956936316 0 0 0
172 0 1 -1.1794 5.001284021239234 13.261895127370964 3.063294016776721 0 0 0
217 0 1 -1.1794 5.176111202535674 10.553371983185073 2.0594099525306953 0 0 0
218 0 2 0.5897 5.937013977253756 10.101096067748172 2.4208605973239083 0 0 0
773 0 2 0.5897 8.513148276857105 10.282257931988536 2.5795292038114317 0 0 0
363 0 2 0.5897 5.121263514490771 11.088550746712025 0.3525767084232643 0 0 0
480 0 2 0.5897 6.677522700257347 14.136595457277078 2.7903694929440435 0 0 0
154 0 1 -1.1794 9.823333634839296 13.418234754736115 3.1545847552869177 0 0 0
774 0 2 0.5897 9.164799266658104 10.792735464317316 1.3043450167824469 0 0 0
772 0 1 -1.1794 9.27638518124139 10.7865520766629 2.290630417046046 0 0 0
156 0 2 0.5897 9.730120554902223 12.512199052207981 2.863241534026421 0 0 0
93 0 2 0.5897 10.834842101159163 9.730253581044227 2.811489227915993 0 0 0
155 0 2 0.5897 10.597597671983241 13.858752634416852 2.7587738442824943 0 0 0
860 0 2 0.5897 13.276301410959459 10.037716958919793 2.725202224570156 0 0 0
560 0 2 0.5897 12.721261469982815 14.040609951196995 2.1825146646849243 0 0 0
375 0 2 0.5897 17.7414577523883 13.731559907546394 2.8208600026849275 0 0 0
842 0 2 0.5897 16.47973232257889 9.55243050995852 4.185962025343296 0 0 0
843 0 2 0.5897 17.17257713600263 10.112829605988505 2.9246270862250405 0 0 0
152 0 2 0.5897 14.096729150253854 10.723832733596774 0.5939007016288981 0 0 0
55 0 1 -1.1794 14.117355842110648 13.263889634263071 2.9366092399050623 0 0 0
859 0 1 -1.1794 14.078228550470309 10.507251869551208 2.469639692006764 0 0 0
57 0 2 0.5897 14.203426785936848 12.334896883416365 2.862485730983987 0 0 0
861 0 2 0.5897 14.87681922223312 10.105882175799103 2.894002551495503 0 0 0
56 0 2 0.5897 14.22894674799653 13.446182670834808 3.889166530738012 0 0 0
179 0 2 0.5897 15.60006473632065 14.145289207216821 2.4875660857614634 0 0 0
556 0 1 -1.1794 2.7018283400802057 14.528092183847027 2.208200890859626 0 0 0
292 0 1 -1.1794 3.4527751704433918 17.2048393472852 2.8782123514275497 0 0 0
293 0 2 0.5897 3.316214587386055 16.29481132148343 2.6814825975867387 0 0 0
344 0 2 0.5897 1.9461248144669727 17.845841109467308 2.3794356637475325 0 0 0
558 0 2 0.5897 2.8629828091074283 14.70085451095735 1.258934142283377 0 0 0
294 0 2 0.5897 3.6634586130447078 17.227641154969355 3.9005303115885552 0 0 0
345 0 2 0.5897 1.0313703014959668 18.488412756343827 1.2768724305565722 0 0 0
343 0 1 -1.1794 1.0819907575397512 18.347719237608878 2.2171567661943605 0 0 0
227 0 2 0.5897 4.8407181930316145 18.0533596351694 2.370498319293722 0 0 0
479 0 2 0.5897 8.193662013478598 14.282143051323523 2.988013285073835 0 0 0
478 0 1 -1.1794 7.436457633349076 14.706608310956902 2.696592608593331 0 0 0
448 0 1 -1.1794 7.795290388427913 17.50629027924564 3.1325979354436844 0 0 0
449 0 2 0.5897 7.606621930984771 16.506156522094372 3.011652772527375 0 0 0
450 0 2 0.5897 6.976063117333842 17.882349182052224 2.740750587439004 0 0 0
317 0 2 0.5897 7.7326437557585175 15.317426771955182 0.6135463661145489 0 0 0
226 0 1 -1.1794 5.521429107807268 18.741747532557312 2.1820293032166864 0 0 0
321 0 2 0.5897 9.274626657715887 18.065265670842052 2.5071374132573365 0 0 0
559 0 1 -1.1794 11.95204830877022 14.547486662610584 1.987677744184239 0 0 0
561 0 2 0.5897 11.840949221484452 14.700615773441191 1.0520357450411424 0 0 0
320 0 2 0.5897 10.877939956477846 18.001619882774577 2.281402930118043 0 0 0
832 0 1 -1.1794 12.737750106260382 17.154194226843828 2.9026231775605984 0 0 0
834 0 2 0.5897 12.699251095998852 16.234644391020282 2.570337658967383 0 0 0
833 0 2 0.5897 13.351289794077141 17.677143742643302 2.3851689969152794 0 0 0
319 0 1 -1.1794 10.062650358844557 18.517951050877222 2.0378010655472973 0 0 0
389 0 2 0.5897 9.962850624768626 18.836377840091828 0.22269196514177877 0 0 0
178 0 1 -1.1794 16.343434132067834 14.7670399836597 2.2029640126193457 0 0 0
180 0 2 0.5897 16.238527553473226 15.657717086716648 2.6054834872291286 0 0 0
745 0 1 -1.1794 16.553133732586907 17.28267196235334 3.1170663904437266 0 0 0
747 0 2 0.5897 16.026614036762552 17.92944971899636 2.6340476428244335 0 0 0
746 0 2 0.5897 17.434939303545605 17.484656401070403 2.8756522241634856 0 0 0
304 0 1 -1.1794 14.62775076990565 18.816081813422947 1.5080650894384038 0 0 0
614 0 2 0.5897 16.566926437163694 14.849312115905615 0.48431089039614905 0 0 0
187 0 1 -1.1794 3.026583247992597 23.07095353516103 1.937901623432312 0 0 0
189 0 2 0.5897 3.185553078316929 23.08132978348533 0.9460425112782 0 0 0
694 0 1 -1.1794 1.0494310623236403 21.17451678442665 2.8648045960392197 0 0 0
695 0 2 0.5897 1.168850080521983 20.195139582244785 2.5537492435034053 0 0 0
696 0 2 0.5897 1.70825806408482 21.702735340773394 2.4281442020307225 0 0 0
266 0 2 0.5897 4.262685649269764 22.150478570996107 2.5774874131230456 0 0 0
819 0 2 0.5897 7.481511771795117 23.041671493991153 2.222057782229241 0 -1 0
602 0 2 0.5897 5.886101838518335 19.05456050210087 0.19701519970593792 0 0 0
228 0 2 0.5897 5.136860429110603 19.576832020745577 2.4782638334344362 0 0 0
265 0 1 -1.1794 4.79424377722981 21.473445091141315 3.003864208758335 0 0 0
267 0 2 0.5897 5.722057055300065 21.709652436473597 2.733492275524518 0 0 0
817 0 1 -1.1794 7.375671749905746 22.103110031714337 2.15631848235839 0 0 0
818 0 2 0.5897 8.249962645275467 21.812907167809335 2.4878705641290924 0 0 0
498 0 2 0.5897 7.3266663803237995 22.123471491082405 0.2937294073191856 0 0 0
63 0 2 0.5897 12.120324466385945 23.50017512700824 2.35414414745265 0 -1 0
61 0 1 -1.1794 12.061193020906229 22.710044492302075 1.7466324410487062 0 0 0
62 0 2 0.5897 12.871029428468812 22.203468931823082 1.9397683809122757 0 0 0
397 0 1 -1.1794 9.92673399108797 21.156496851714827 2.430005914506829 0 0 0
398 0 2 0.5897 10.02019285361103 20.196139816408888 2.2744485785028212 0 0 0
399 0 2 0.5897 10.715117709860232 21.62747165320787 2.1672451310447998 0 0 0
425 0 2 0.5897 11.960068510614114 23.027430393547327 0.19246182961938715 0 0 0
591 0 2 0.5897 9.852882462943994 21.256739381733773 4.366196076470859 0 0 0
305 0 2 0.5897 14.89714347297596 18.995252559523763 0.5791828015339344 0 0 0
306 0 2 0.5897 14.361641861469467 19.674540396121508 1.7903887206930185 0 0 0
118 0 1 -1.1794 14.26157225360996 21.56868303691401 2.83136966429662 0 0 0
120 0 2 0.5897 15.243639932030423 21.690407046157908 2.624311384619784 0 0 0
727 0 1 -1.1794 16.763217456748905 22.451998965136916 2.077444356576194 0 0 0
728 0 2 0.5897 16.84299093929731 22.62949546665925 1.1845424056557858 0 0 0
729 0 2 0.5897 17.554206628496388 21.94206246314171 2.31402693372676 0 0 0
119 0 2 0.5897 14.209372599867715 21.347835918647327 3.78488985086377 0 0 0
487 0 1 -1.1794 2.5279370284972957 1.8575263248309224 5.841909857190395 0 0 0
488 0 2 0.5897 1.7748612655776632 2.4267958393973514 6.087001779309907 0 0 0
489 0 2 0.5897 2.518590019425506 1.1011448116995681 6.455149902422652 0 0 0
784 0 1 -1.1794 0.16954743739800326 3.435236384411331 6.44770356094344 0 0 0
785 0 2 0.5897 0.11910888237841324 3.3602735033943794 7.427329437554313 0 0 0
83 0 2 0.5897 4.041452337222706 2.5550706046912466 6.184746480283933 0 0 0
846 0 2 0.5897 6.86788967025183 1.1397777385596446 4.603180012809546 0 0 0
82 0 1 -1.1794 4.938041465526116 2.911745809071944 6.466736229183149 0 0 0
84 0 2 0.5897 5.634121439995042 2.3795542486594097 6.002087831644816 0 0 0
844 0 1 -1.1794 7.00029880424035 1.1892152646647607 5.569378628018192 0 0 0
845 0 2 0.5897 7.169035089473061 0.27858661153019415 5.914235451665004 0 0 0
275 0 2 0.5897 5.1696791398374256 2.849593092034834 8.1632158595109 0 0 0
419 0 2 0.5897 8.538929511736315 2.307766888622555 6.198856745350288 0 0 0
177 0 2 0.5897 9.092850509618163 3.0391622563792247 8.6657193651355 0 0 0
420 0 2 0.5897 8.945144901859463 3.8508679454466295 6.29008034115316 0 0 0
418 0 1 -1.1794 9.211480117701514 2.9529124001653972 6.556352278239224 0 0 0
802 0 1 -1.1794 11.989543288577982 1.9657889056484432 5.7178477109067805 0 0 0
803 0 2 0.5897 11.183166168458408 2.3788884325585 6.011274669635849 0 0 0
804 0 2 0.5897 12.734895442348977 2.4274567918484746 6.2138828149005745 0 0 0
171 0 2 0.5897 11.941283200144982 0.35196979129108985 6.239864723038086 0 0 0
786 0 2 0.5897 17.59156202906457 2.8369387099545147 6.110895528445722 0 0 0
436 0 1 -1.1794 14.729849200197622 3.106512829057593 6.696246806577556 0 0 0
437 0 2 0.5897 14.626925793223453 3.0411494335733162 7.64163653189253 0 0 0
438 0 2 0.5897 15.510168670290732 2.5744608188111084 6.381537732820097 0 0 0
658 0 1 -1.1794 16.614427683553266 1.6263058602208178 5.359568039165831 0 0 0
659 0 2 0.5897 16.76517559251242 0.6780910629196717 5.696281255569228 0 0 0
732 0 2 0.5897 14.409679269404698 4.5985362776363905 5.929141058262498 0 0 0
183 0 2 0.5897 0.219849869327289 5.1336603110193835 5.852317322188216 0 0 0
10 0 1 -1.1794 2.5905214643064602 7.315077501982324 6.928477474822243 0 0 0
11 0 2 0.5897 1.8012179725191633 6.918403949721407 6.457694780211665 0 0 0
12 0 2 0.5897 2.639223036620406 8.21617887025069 6.518712439924092 0 0 0
650 0 2 0.5897 2.5189941561829485 7.019385440839849 8.451993533891176 0 0 0
181 0 1 -1.1794 0.301089716489546 6.118666677193991 5.938848453653696 0 0 0
687 0 2 0.5897 3.973121285991672 6.370375241654249 6.225693316465996 0 0 0
686 0 2 0.5897 4.775323894092423 5.053711169849272 6.395447752951233 0 0 0
685 0 1 -1.1794 4.834190881482243 5.957902759874117 6.05682331084193 0 0 0
145 0 1 -1.1794 7.139165438981696 6.997534225509664 7.143447389050721 0 0 0
146 0 2 0.5897 6.292368225363832 6.833855060092025 6.761239612753079 0 0 0
147 0 2 0.5897 7.0278832725949245 7.114473742446055 8.1120666295818 0 0 0
714 0 2 0.5897 7.478984414504562 8.708742171012172 6.503225498772747 0 0 0
165 0 2 0.5897 8.517629878689648 6.072312630800692 6.435195657999233 0 0 0
163 0 1 -1.1794 9.293427032837105 5.673691170728511 5.937399611083543 0 0 0
164 0 2 0.5897 10.12608525363565 5.923238011012528 6.369646081998094 0 0 0
230 0 2 0.5897 12.12786921942976 8.188814707654686 6.016590143597133 0 0 0
391 0 1 -1.1794 12.000101627462568 6.539704614353346 6.53968982227852 0 0 0
392 0 2 0.5897 12.055246023726788 6.453975445224919 7.5457180841634885 0 0 0
393 0 2 0.5897 12.763811451487108 6.103972933043522 6.1857750218721375 0 0 0
229 0 1 -1.1794 11.935116249948434 9.04206301955867 5.581637625974155 0 0 0
731 0 2 0.5897 14.138607614393985 5.502593075797688 4.627852786194701 0 0 0
182 0 2 0.5897 17.4898977294538 6.431277171060054 6.138025650885652 0 0 0
730 0 1 -1.1794 14.341805918233325 5.53887434707537 5.583559817883943 0 0 0
525 0 2 0.5897 15.879361792905197 9.103788922675717 6.414496055264969 0 0 0
541 0 1 -1.1794 15.925143195244933 7.393660676040346 6.766456281219375 0 0 0
542 0 2 0.5897 15.336981046407264 6.696412539614077 6.468489266863413 0 0 0
543 0 2 0.5897 16.18949541406402 7.026617951305425 7.643199895366651 0 0 0
793 0 1 -1.1794 2.9960151400766097 10.078947883243604 6.0133171086990584 0 0 0
795 0 2 0.5897 3.6255303004695336 10.687881029070365 6.4437192023395395 0 0 0
794 0 2 0.5897 2.0917858283034194 10.524787426809935 6.174713731429774 0 0 0
550 0 1 -1.1794 0.5228260674993888 10.990054364710996 6.733979642749897 0 0 0
551 0 2 0.5897 0.7079707441278438 10.80863769878472 7.707044636473979 0 0 0
552 0 2 0.5897 0.5013440858963205 11.915643184275805 6.487507188103535 0 0 0
655 0 1 -1.1794 0.7922213695479287 13.758918626502588 5.994996720633254 0 0 0
712 0 1 -1.1794 7.462563451196066 9.525991392828551 5.976169931719215 0 0 0
200 0 2 0.5897 5.284024252186338 13.537430836644916 4.662943445669215 0 0 0
713 0 2 0.5897 8.186529637726153 10.085296552566376 6.310051200454277 0 0 0
577 0 1 -1.1794 5.4440930931816345 11.229597884574327 6.93035201169732 0 0 0
578 0 2 0.5897 6.05581373858383 10.684674129828673 6.420919083009784 0 0 0
579 0 2 0.5897 5.385871327101235 12.100201318443412 6.49301409962736 0 0 0
582 0 2 0.5897 5.146299540353068 10.886129790035074 8.494255854254316 0 0 0
199 0 1 -1.1794 5.395943711309297 13.770929503012594 5.5591252142244665 0 0 0
231 0 2 0.5897 12.29134119075085 9.879945358803866 5.942154808180468 0 0 0
806 0 2 0.5897 9.71685515879436 13.405235500235122 4.9144192638590996 0 0 0
741 0 2 0.5897 10.01935328755885 10.80380675517432 7.637790488612762 0 0 0
805 0 1 -1.1794 9.732491901006972 13.436508373374371 5.877991043661303 0 0 0
807 0 2 0.5897 9.73938959829773 12.51144231049095 6.143816380293858 0 0 0
739 0 1 -1.1794 9.790431017982055 10.786649650411661 6.694575366309988 0 0 0
740 0 2 0.5897 10.316507396488381 10.151431806497422 6.183561508134864 0 0 0
634 0 1 -1.1794 13.611256072751603 11.115856368597749 6.63571642079965 0 0 0
636 0 2 0.5897 13.531935285793715 11.932623165878432 6.209547661253453 0 0 0
523 0 1 -1.1794 16.098883481359515 9.865161191299187 5.8502131573290255 0 0 0
724 0 1 -1.1794 14.298484869072425 13.888367127644022 5.612818529381399 0 0 0
524 0 2 0.5897 16.99424852599077 10.218565328283612 6.120643547807482 0 0 0
635 0 2 0.5897 14.420754817164903 10.784822986299003 6.226767684813046 0 0 0
857 0 2 0.5897 14.117646963679581 11.043512807721582 8.400660903495899 0 0 0
656 0 2 0.5897 1.6465313958476213 14.233971819931666 5.922247977407492 0 0 0
18 0 2 0.5897 4.135033292024592 14.335430260216706 6.1839795257109476 0 0 0
657 0 2 0.5897 0.10037823547341806 14.297300882127692 6.4514012961902765 1 0 0
17 0 2 0.5897 3.2533244897278584 14.736159426737915 7.320873486198529 0 0 0
16 0 1 -1.1794 3.2492456717589078 14.775100141055015 6.376812780305054 0 0 0
238 0 1 -1.1794 3.408747256645876 17.344560692110015 5.40276484667925 0 0 0
239 0 2 0.5897 3.3795225865151175 16.517748129342777 5.8012462818824355 0 0 0
341 0 2 0.5897 1.9238628910135998 18.202034556629393 6.46604000443569 0 0 0
240 0 2 0.5897 4.174130097597007 17.784905471358336 5.742369978381725 0 0 0
340 0 1 -1.1794 1.111510899674802 18.677458629949726 6.558762441765055 0 0 0
342 0 2 0.5897 0.9498954426381919 18.691375187761935 7.538338168564678 0 0 0
308 0 2 0.5897 8.081507201356507 17.675031108439462 5.165715789901982 0 0 0
201 0 2 0.5897 6.224369147694648 14.314909399792638 5.770879035646849 0 0 0
519 0 2 0.5897 8.332550227602649 14.638264526603209 6.2449351538423 0 0 0
378 0 2 0.5897 7.411009585224018 14.83105022799024 8.458279889309983 0 0 0
307 0 1 -1.1794 8.059981571192461 17.64176195163281 6.121631169067919 0 0 0
517 0 1 -1.1794 7.530846549882292 15.112515130461976 6.506898494370201 0 0 0
518 0 2 0.5897 7.785957573495325 16.03657334628182 6.435527110567162 0 0 0
309 0 2 0.5897 8.79642087956664 18.130307453971554 6.469035728682394 0 0 0
102 0 2 0.5897 5.258433959107458 18.66136461477658 8.519113691773097 0 0 0
642 0 2 0.5897 11.15861988651398 14.338296707859048 6.444802356532666 0 0 0
726 0 2 0.5897 13.47815761600795 14.424791772115583 5.980504182796564 0 0 0
645 0 2 0.5897 12.349376908704773 17.506546564500965 4.715171686670615 0 0 0
641 0 2 0.5897 11.863028527116665 15.0849649699685 7.62732503182592 0 0 0
640 0 1 -1.1794 11.941058252532647 14.886453975593339 6.667196945384564 0 0 0
643 0 1 -1.1794 12.173136242298401 17.37501082221631 5.674185576447547 0 0 0
644 0 2 0.5897 11.974513765803092 16.460045709419667 5.772466538484366 0 0 0
303 0 2 0.5897 11.096945633842012 18.471821008404767 6.73530109175167 0 0 0
348 0 2 0.5897 13.58796571670909 18.52311363584444 6.238233416071108 0 0 0
734 0 2 0.5897 10.31704468102452 18.75522707001658 8.61114477360745 0 0 0
725 0 2 0.5897 14.953636899630071 14.235510011565605 6.196950288888825 0 0 0
564 0 2 0.5897 16.529601093028 17.461961844276907 4.68557530607237 0 0 0
563 0 2 0.5897 17.433629641601073 17.990364170241612 5.806600270881503 0 0 0
205 0 1 -1.1794 16.437971792922013 14.947337582117871 7.161115195372412 0 0 0
206 0 2 0.5897 16.212030411049803 15.847429720797482 6.860702661397155 0 0 0
207 0 2 0.5897 16.66088693053424 15.029643235137977 8.115992052450128 0 0 0
562 0 1 -1.1794 16.592363151422582 17.530975893118516 5.657529106373415 0 0 0
347 0 2 0.5897 15.073943247379107 18.555734864080996 6.35114083652043 0 0 0
371 0 2 0.5897 14.424400588096356 18.486499666012165 8.43149660433692 0 0 0
413 0 2 0.5897 0.816226830196093 21.366377458006006 4.826249338379893 0 0 0
700 0 1 -1.1794 2.823966472264727 22.80416135035493 6.983247513288476 0 0 0
701 0 2 0.5897 3.0588913253721497 22.600121619012718 7.893493630674759 0 0 0
702 0 2 0.5897 2.2424703128134724 22.086011254125566 6.667687431062126 0 0 0
414 0 2 0.5897 0.8830169817134059 20.390418396311084 6.03298053991302 0 0 0
412 0 1 -1.1794 0.7486629461848372 21.2918678990047 5.755466313221069 0 0 0
248 0 2 0.5897 4.268818174730239 22.11785383958312 6.0434368908513605 0 0 0
249 0 2 0.5897 4.909963016627807 21.629798072053134 4.692230295269796 0 0 0
386 0 2 0.5897 6.213924493573166 18.857171354323235 6.497177759322681 0 0 0
385 0 1 -1.1794 5.253010351311638 18.874223918374774 6.742911270977898 0 0 0
247 0 1 -1.1794 4.973435326589315 21.493245208632217 5.668908568255379 0 0 0
31 0 1 -1.1794 7.563421942493789 22.026823118085716 6.281003936756116 0 0 0
32 0 2 0.5897 8.3862069477047 21.651132455622623 5.962881583282407 0 0 0
33 0 2 0.5897 6.794342131452972 21.62808784337343 5.866342358600007 0 0 0
387 0 2 0.5897 5.002852340538262 19.783481554034175 6.507791953349252 0 0 0
86 0 2 0.5897 7.449273548579035 22.367085067599824 8.173937929630277 0 0 0
301 0 1 -1.1794 10.409058520503041 19.107400441723883 6.951771887783374 0 0 0
169 0 1 -1.1794 11.905898607782717 22.86956969297418 6.394673291698028 0 0 0
170 0 2 0.5897 12.76179555655245 22.55071248421011 6.0952307866163125 0 0 0
302 0 2 0.5897 10.482799500877004 19.788279824404277 6.290397544131437 0 0 0
589 0 1 -1.1794 9.896110963213829 21.392953074804666 5.330052883967545 0 0 0
590 0 2 0.5897 10.627102042377198 21.969551290796097 5.57944980489446 0 0 0
330 0 2 0.5897 11.915193601303136 22.72869641378982 8.15199482092795 0 0 0
346 0 1 -1.1794 14.302290727300154 19.06273103663461 6.6108815844943845 0 0 0
534 0 2 0.5897 14.337103857015144 20.80393732308452 6.2023881471782705 0 0 0
532 0 1 -1.1794 14.199185954569392 21.635027724548067 5.725401236677556 0 0 0
352 0 1 -1.1794 16.674042950033837 22.420465215570587 6.444405908406978 0 0 0
353 0 2 0.5897 17.553206200066406 21.95435960605463 6.243323047336576 0 0 0
354 0 2 0.5897 16.726885532543747 22.556230105013462 7.42569131201656 0 0 0
533 0 2 0.5897 14.973170128132354 22.140477854884644 5.967525899652609 0 0 0
34 0 1 -1.1794 0.6139105685137461 2.9294997630985202 9.203760392128727 0 0 0
36 0 2 0.5897 1.4620456537585045 2.439240056151065 9.31633126922969 0 0 0
167 0 2 0.5897 2.3996701764234096 1.9210052135079791 11.677089070053537 0 0 0
673 0 1 -1.1794 2.9939313818264957 1.693340432961107 9.98284249611239 0 0 0
674 0 2 0.5897 3.750269206814875 2.1379364235595952 9.653642716427225 0 0 0
675 0 2 0.5897 3.0205640428759044 0.7672861737070252 9.77624122719172 0 0 0
35 0 2 0.5897 0.8010162728938409 3.8083460174408352 9.558962318894064 0 0 0
166 0 1 -1.1794 2.4773694987296184 1.817521791167983 12.592486464347397 0 0 0
168 0 2 0.5897 1.737620734598124 2.3782046853845196 12.901699125725404 0 0 0
274 0 1 -1.1794 5.373535612783589 2.9456520537548854 9.106495275505836 0 0 0
276 0 2 0.5897 6.015136346349882 2.312251376891115 9.407634477085718 0 0 0
355 0 1 -1.1794 7.044913563598588 1.32418412021817 10.206328675252037 0 0 0
356 0 2 0.5897 7.064983210234812 0.3447310759842314 10.009651710851799 0 0 0
357 0 2 0.5897 6.972192368149692 1.4940440274889522 11.193247842886985 0 0 0
176 0 2 0.5897 8.443918771810518 2.41453913041342 9.93825896969819 0 0 0
678 0 2 0.5897 5.125606682575746 4.5335408251540015 9.663312274979281 0 0 0
592 0 1 -1.1794 7.202874456818748 2.1573095568586167 12.945335977991386 0 0 0
762 0 2 0.5897 4.80583765954577 4.5756842413038195 13.191665337956808 0 0 0
593 0 2 0.5897 7.492933210151108 1.2967991381038149 13.281389926663142 0 0 0
594 0 2 0.5897 7.86948894398575 2.7815886694072547 13.215748421106165 0 0 0
175 0 1 -1.1794 9.156251697825683 3.0098051168659614 9.624113193134823 0 0 0
514 0 1 -1.1794 12.078329663525816 1.5969018701788902 10.474897154946861 0 0 0
515 0 2 0.5897 11.90358049262228 1.6792783526122077 11.455090121738062 0 0 0
516 0 2 0.5897 11.359415582978857 2.1447779689317907 10.028955065700305 0 0 0
705 0 2 0.5897 9.406062009853365 4.7637527443391905 10.389245907606693 0 0 0
757 0 1 -1.1794 11.626609313376028 2.019603505147785 13.059071791793091 0 0 0
849 0 2 0.5897 13.648167662422582 2.2179217955501636 9.692692006297396 0 0 0
652 0 1 -1.1794 16.609427626485704 1.763540541757858 10.715450012953383 0 0 0
653 0 2 0.5897 16.52161656751087 1.4545922030682075 11.655262525817948 0 0 0
654 0 2 0.5897 17.45282637293537 2.2025076693064203 10.649728429329542 0 0 0
847 0 1 -1.1794 14.367783222787745 2.8676295793335007 9.447309455819969 0 0 0
848 0 2 0.5897 15.146791710645328 2.5725844272496614 9.984251854683833 0 0 0
131 0 2 0.5897 16.68031450352946 0.3195449107560202 9.523447289404102 0 0 0
649 0 1 -1.1794 2.571659782335835 7.031054908334537 9.46375264146954 0 0 0
112 0 1 -1.1794 0.6097761041232962 5.455941006279171 10.634626985096343 0 0 0
113 0 2 0.5897 0.6486987371015993 5.58287452351542 11.65092367781791 0 0 0
114 0 2 0.5897 1.2414370506705663 6.181956839954524 10.25101676760728 0 0 0
257 0 2 0.5897 2.7717484651369704 8.472858037493932 9.96307552212403 0 0 0
651 0 2 0.5897 3.249113804281644 6.394225842129215 9.690421553394591 0 0 0
256 0 1 -1.1794 2.9825290923621166 9.403704069753855 10.34484854746015 0 0 0
526 0 1 -1.1794 7.517190967466451 7.0703073990432594 10.027090093045432 0 0 0
527 0 2 0.5897 7.515004236620061 8.014032077089194 10.253266669134257 0 0 0
528 0 2 0.5897 8.266764312142966 6.680074434448755 10.482420986777427 0 0 0
676 0 1 -1.1794 4.950373655818395 5.397296954483396 9.993481510494439 0 0 0
677 0 2 0.5897 5.784927502580084 5.935937982179046 9.887425472061294 0 0 0
761 0 2 0.5897 4.634741262149893 5.3817672087193404 11.79247524950145 0 0 0
760 0 1 -1.1794 4.788511010720247 5.441150636979558 12.776512540703939 0 0 0
477 0 2 0.5897 6.931161190777536 8.819400084264313 13.082091285795277 0 0 0
313 0 1 -1.1794 11.827451267650515 6.822596076188025 9.460975710253685 0 0 0
704 0 2 0.5897 9.832845307436722 5.736436666235658 11.622639948210297 0 0 0
703 0 1 -1.1794 9.670838112895419 5.667897879098568 10.656056711573928 0 0 0
314 0 2 0.5897 10.970941279125304 6.414391807807412 9.796018529799763 0 0 0
444 0 2 0.5897 12.243336384483024 8.58407653113769 9.860706299525967 0 0 0
315 0 2 0.5897 12.586330572686572 6.315147210151282 9.802958007832173 0 0 0
545 0 2 0.5897 14.635907617907868 4.9588550864759275 9.847982066914236 0 0 0
816 0 2 0.5897 14.104473195734524 5.4909744503999285 12.210753551214077 0 0 0
814 0 1 -1.1794 13.985794404607798 5.314880624735096 13.096637770471023 0 0 0
622 0 1 -1.1794 16.75455283543267 6.854071977816947 9.535022333178171 0 0 0
544 0 1 -1.1794 14.499018333582752 5.837160465734724 10.277070039001426 0 0 0
546 0 2 0.5897 15.388917715028033 6.266338044947451 10.108380094703897 0 0 0
623 0 2 0.5897 17.41201171764756 6.258870323315171 9.979916384952112 0 0 0
624 0 2 0.5897 16.90253366292653 7.73201169634091 9.91591169454823 0 0 0
195 0 2 0.5897 16.69146169275494 9.278781697807503 12.141106804085391 0 0 0
194 0 2 0.5897 16.965717346169747 8.16976052186611 13.187903662045585 0 0 0
193 0 1 -1.1794 16.738684438498325 9.09567213593626 13.118315144734044 0 0 0
797 0 2 0.5897 3.100518405647576 9.745156900161689 12.03855862967651 0 0 0
796 0 1 -1.1794 3.137046994296609 9.92001131326075 13.027997790089808 0 0 0
13 0 1 -1.1794 1.0055061657031032 10.994483850867507 9.64369279648704 0 0 0
258 0 2 0.5897 3.8057321936927764 9.7139113037734 9.933984831728731 0 0 0
14 0 2 0.5897 1.03276078736064 11.871970313946129 10.05187668212249 0 0 0
15 0 2 0.5897 1.7554349914225327 10.428089900975607 10.027798511605564 0 0 0
766 0 1 -1.1794 1.1339517400205115 13.886507967582752 10.448655758989984 0 0 0
767 0 2 0.5897 1.1777326588546568 14.079292672404938 11.409139997128603 0 0 0
637 0 1 -1.1794 1.153923028731953 13.664385408434374 13.178308809521962 0 0 0
798 0 2 0.5897 2.2619846723753803 10.126094876360611 13.267916000321826 0 0 0
475 0 1 -1.1794 7.146430373625843 9.750449011724935 12.912316152189995 0 0 0
580 0 1 -1.1794 5.205606259819515 10.736657361150117 9.46347527968995 0 0 0