LAMMPS (29 Sep 2021 - Update 2)
  using 1 OpenMP thread(s) per MPI task
plugin load libdeepmd_lmp.so
Loading plugin: deepmd pair style v2.0 by Han Wang
Loading plugin: compute deeptensor/atom v2.0 by Han Wang
Loading plugin: fix dplr v2.0 by Han Wang
echo both

include		in.partitions
variable        pid world 0
include		in.temp
variable        temperature equal 265
variable        tempDamp equal 0.100
include		in.pressure
variable        pressure equal 0.986923
variable        pressureDamp equal 1.0 # This is 1 ps
include		in.seed
variable        seed world 745823

units           metal
atom_style	full
include		in.box
read_data       water.data
Reading data file ...
  orthogonal box = (0.0000000 0.0000000 0.0000000) to (18.207573 23.629177 22.213196)
  1 by 1 by 1 MPI processor grid
  reading atoms ...
  864 atoms
  reading velocities ...
  864 velocities
Finding 1-2 1-3 1-4 neighbors ...
  special bond factors lj:    0        0        0       
  special bond factors coul:  0        0        0       
     0 = max # of 1-2 neighbors
     0 = max # of 1-3 neighbors
     0 = max # of 1-4 neighbors
     1 = max # of special neighbors
  special bonds CPU = 0.000 seconds
  read_data CPU = 0.022 seconds
include 	in.setup
variable	out_freq equal 500
variable	out_freq2 equal 500

timestep        0.0005

neigh_modify    delay 7 every 1

include         in.deepmd
# This is deepMD model

# create groups ###
#group ox type 2
#group hy type 1

mass 2 15.999
mass 1 1.008

pair_style      deepmd ../graph.pb
pair_coeff      * *

bond_style      none
angle_style     none
dihedral_style  none
improper_style  none
neigh_modify exclude none


neighbor        2.0 bin
neigh_modify    every 10 delay 0 check no

thermo          ${out_freq}
thermo          500
thermo_style 	custom step temp pe etotal epair emol press lx ly lz xy xz yz vol pxx pyy pzz pxy pxz pyz cella cellb cellc cellalpha cellbeta cellgamma


restart 	${out_freq} restart.lmp.${pid} restart2.lmp.${pid}
restart 	500 restart.lmp.${pid} restart2.lmp.${pid}
restart 	500 restart.lmp.0 restart2.lmp.${pid}
restart 	500 restart.lmp.0 restart2.lmp.0


include         in.dump
dump            myDump all atom ${out_freq2} dump.water.${pid}
dump            myDump all atom 500 dump.water.${pid}
dump            myDump all atom 500 dump.water.0
dump            myDump2 all dcd ${out_freq2} dump.dcd
dump            myDump2 all dcd 500 dump.dcd
dump_modify     myDump append yes
dump_modify     myDump2 append yes


timer           timeout 23:50:00 every 1000
New timer settings: style=normal  mode=nosync  timeout=23:50:00

fix             2 all nph aniso ${pressure} ${pressure} ${pressureDamp}
fix             2 all nph aniso 0.986923 ${pressure} ${pressureDamp}
fix             2 all nph aniso 0.986923 0.986923 ${pressureDamp}
fix             2 all nph aniso 0.986923 0.986923 1
fix             3 all temp/csvr ${temperature} ${temperature} ${tempDamp} ${seed}
fix             3 all temp/csvr 265 ${temperature} ${tempDamp} ${seed}
fix             3 all temp/csvr 265 265 ${tempDamp} ${seed}
fix             3 all temp/csvr 265 265 0.1 ${seed}
fix             3 all temp/csvr 265 265 0.1 745823
velocity 	all create ${temperature} ${seed} dist gaussian
velocity 	all create 265 ${seed} dist gaussian
velocity 	all create 265 745823 dist gaussian

run             400000

CITE-CITE-CITE-CITE-CITE-CITE-CITE-CITE-CITE-CITE-CITE-CITE-CITE

Your simulation uses code contributions which should be cited:

- USER-DEEPMD package:

@article{Wang_ComputPhysCommun_2018_v228_p178,
  author = {Wang, Han and Zhang, Linfeng and Han, Jiequn and E, Weinan},
  doi = {10.1016/j.cpc.2018.03.016},
  url = {https://doi.org/10.1016/j.cpc.2018.03.016},
  year = 2018,
  month = {jul},
  publisher = {Elsevier {BV}},
  volume = 228,
  journal = {Comput. Phys. Commun.},
  title = {{DeePMD-kit: A deep learning package for many-body potential energy representation and molecular dynamics}},
  pages = {178--184}
}

CITE-CITE-CITE-CITE-CITE-CITE-CITE-CITE-CITE-CITE-CITE-CITE-CITE

Neighbor list info ...
  update every 10 steps, delay 0 steps, check no
  max neighbors/atom: 2000, page size: 100000
  master list distance cutoff = 8
  ghost atom cutoff = 8
  binsize = 4, bins = 5 6 6
  1 neighbor lists, perpetual/occasional/extra = 1 0 0
  (1) pair deepmd, perpetual
      attributes: full, newton on
      pair build: full/bin
      stencil: full/bin/3d
      bin: standard
Per MPI rank memory allocation (min/avg/max) = 7.189 | 7.189 | 7.189 Mbytes
Step Temp PotEng TotEng E_pair E_mol Press Lx Ly Lz Xy Xz Yz Volume Pxx Pyy Pzz Pxy Pxz Pyz Cella Cellb Cellc CellAlpha CellBeta CellGamma 
       0          265   -169.12462   -139.56347   -169.12462            0   -24312.534    18.207573    23.629177    22.213196            0            0            0    9556.7825   -24666.647   -23758.163   -24512.792   -3.9685887    313.25719   -224.06733    18.207573    23.629177    22.213196           90           90           90 
     500     249.1955   -149.11755   -121.31942   -149.11755            0   -3408.5102    18.003503    23.319612    21.928611            0            0            0    9206.3921   -6594.1184   -1778.1757   -1853.2366   -1054.8171   -233.39389   -458.28425    18.003503    23.319612    21.928611           90           90           90 
    1000    246.84095   -143.86309   -116.32761   -143.86309            0    122.24324    17.803869    23.098848     21.83492            0            0            0    8979.5859    760.78995   -1470.4733    1076.4131    -814.1587    191.50702    745.85722    17.803869    23.098848     21.83492           90           90           90 
    1500    262.59818   -146.68535   -117.39213   -146.68535            0   -145.30709    18.056462    23.428909    22.225183            0            0            0    9402.2125    1876.0576    317.15842   -2629.1373   -799.43644    683.02226   -665.60997    18.056462    23.428909    22.225183           90           90           90 
    2000    264.20736   -144.01032   -114.53759   -144.01032            0    535.15015    18.087253    23.419923    22.148455            0            0            0    9382.1315    287.96618   -165.66386    1483.1481   -1556.8514   -1163.9454    62.984447    18.087253    23.419923    22.148455           90           90           90 
    2500    274.66776   -145.00434   -114.36473   -145.00434            0   -1315.0535    18.065677    23.396705     22.00176            0            0            0    9299.6448   -3913.7503    830.28507   -861.69533      620.448   -286.97201    911.00848    18.065677    23.396705     22.00176           90           90           90 
    3000    267.03225    -143.1617   -113.37385    -143.1617            0    799.48904    17.904695    23.381437      22.0562            0            0            0    9233.5522    1139.1284    387.28342    872.05529   -1198.8475    3159.0673   -1091.8291    17.904695    23.381437      22.0562           90           90           90 
    3500    254.22492   -143.59319   -115.23402   -143.59319            0     234.5507    17.939902    23.491714    22.244313            0            0            0    9374.6219   -647.43513     920.1796    430.90763    711.02188   -396.43102    1129.9315    17.939902    23.491714    22.244313           90           90           90 
    4000    265.87015   -145.97022   -116.31201   -145.97022            0   -5101.7623    18.149851    23.573647    22.352148            0            0            0    9563.5495   -4718.7941   -1830.3498   -8756.1432    2103.2129   -3138.9007   -2156.1509    18.149851    23.573647    22.352148           90           90           90 
    4500    254.03668   -144.12732   -115.78914   -144.12732            0    3904.7463    18.005725    23.220188    21.864064            0            0            0    9141.2844    2459.9387    5538.8241    3715.4762   -1695.5049    -1192.492    1456.8561    18.005725    23.220188    21.864064           90           90           90 
    5000    267.77532    -145.0152   -115.14447    -145.0152            0    1209.6565    18.071165    23.312402    22.052675            0            0            0    9290.4005    539.43391    543.50038    2546.0353   -57.667238   -1840.7844   -356.59503    18.071165    23.312402    22.052675           90           90           90 
    5500    261.96113   -145.88028   -116.65813   -145.88028            0   -2074.8826    18.169988    23.449811    22.306186            0            0            0    9504.2818   -1107.6321   -2472.7421   -2644.2736   -667.07541   -333.73748    491.46103    18.169988    23.449811    22.306186           90           90           90 
    6000    273.78668   -146.40078   -115.85946   -146.40078            0   -232.96566    18.013526    23.329821     22.11757            0            0            0    9294.9606    -1203.673    2481.2009   -1976.4249   -1280.5678   -150.79253   -1468.2142    18.013526    23.329821     22.11757           90           90           90 
    6500    262.41582   -145.52275   -116.24987   -145.52275            0   -3090.1679    18.025249    23.446424    22.068644            0            0            0    9326.8188   -1415.1204   -3901.0629   -3954.3205   -1644.7765   -266.87951   -1265.0135    18.025249    23.446424    22.068644           90           90           90 
    7000    270.68773   -143.95652    -113.7609   -143.95652            0   -912.90729    18.017225    23.549755    22.108612            0            0            0    9380.7117   -1555.2242   -3431.8586    2248.3609   -27.252652   -1759.9353   -902.31338    18.017225    23.549755    22.108612           90           90           90 
    7500    271.03125   -144.32436   -114.09042   -144.32436            0   -113.91403    18.143474    23.551352    22.255327            0            0            0    9509.7755    1556.3493   -2681.7828    783.69142    1051.7887    -519.8763   -348.96921    18.143474    23.551352    22.255327           90           90           90 
    8000    261.45855    -144.3997   -115.23361    -144.3997            0     746.1099    18.060079    23.232715    22.162711            0            0            0    9299.1336   -244.51092    1046.6431    1436.1976    1311.0924    1762.9432   -353.00202    18.060079    23.232715    22.162711           90           90           90 
    8500    267.28215   -145.27734   -115.46161   -145.27734            0   -546.67771    18.053614    23.240737    22.090728            0            0            0    9268.8119    -2504.036   -333.41403    1197.4169    481.07386   -1451.1057   -668.36399    18.053614    23.240737    22.090728           90           90           90 
    9000    272.55811   -143.60466   -113.20039   -143.60466            0    1415.2137     18.12757    23.501595    22.171806            0            0            0    9445.7839   -2397.3359     703.9065    5939.0704    664.84301    363.03361    663.17127     18.12757    23.501595    22.171806           90           90           90 
    9500    278.22812   -145.01757    -113.9808   -145.01757            0    1458.6155    18.087311    23.558246    22.194428            0            0            0    9457.1638    486.93215    1067.1647    2821.7497   -2550.7443    143.28853   -371.81979    18.087311    23.558246    22.194428           90           90           90 
   10000    273.08953   -143.75134    -113.2878   -143.75134            0    -2281.897    17.922966    23.383107    22.085618            0            0            0    9255.9641    57.586227   -6232.3124   -670.96468    335.24722   -309.41795    583.55793    17.922966    23.383107    22.085618           90           90           90 
   10500    282.30636   -142.95028   -111.45858   -142.95028            0    1704.7752    18.055305    23.520941    22.234321            0            0            0    9442.4219    3280.0259    2005.7078   -171.40802    906.22261   -986.33044    1221.5619    18.055305    23.520941    22.234321           90           90           90 
   11000    267.95779   -143.08531   -113.19422   -143.08531            0   -3512.2534    18.218532    23.542048    22.332698            0            0            0    9578.5286   -2954.5729   -3794.1963    -3787.991   -1192.0989   -338.56177     1429.209    18.218532    23.542048    22.332698           90           90           90 
   11500    281.34957   -146.36727    -114.9823   -146.36727            0    1528.6034    18.074284    23.179058    21.993254            0            0            0    9213.9608    1263.6279     1279.783    2042.3993    2231.6048   -312.30765    60.398211    18.074284    23.179058    21.993254           90           90           90 
   12000    266.77114   -143.44136   -113.68264   -143.44136            0   -2490.6608    18.149734    23.435933    22.218798            0            0            0     9450.898   -367.75622   -3655.2158   -3449.0104   -2482.6746   -1364.0302   -320.92065    18.149734    23.435933    22.218798           90           90           90 
   12500    278.82585    -144.2018   -113.09835    -144.2018            0    -2016.544    18.002516    23.445808    22.240429            0            0            0    9387.3189   -2427.2122   -1279.5968    -2342.823   -281.28397     1776.963    256.82487    18.002516    23.445808    22.240429           90           90           90 
   13000    271.09831   -142.94002   -112.69859   -142.94002            0    285.80836    17.989487    23.425218    22.227476            0            0            0    9366.8286    101.70443   -743.83642    1499.5571   -3033.9666    -687.1503   -1359.8545    17.989487    23.425218    22.227476           90           90           90 
   13500    262.58115   -145.15613   -115.86481   -145.15613            0   -2172.3451    18.177034    23.436468    22.157704            0            0            0    9439.3035   -4327.0195    2872.9739   -5062.9895   -1201.3805    51.844177    1319.9054    18.177034    23.436468    22.157704           90           90           90 
   14000    264.31062   -144.79591   -115.31166   -144.79591            0    26.455253     18.16613    23.446962    22.073976            0            0            0    9402.2014    7.2145835    2846.9206   -2774.7695   -1548.7543   -1445.1076    2808.5678     18.16613    23.446962    22.073976           90           90           90 
   14500    254.75253   -144.75668   -116.33865   -144.75668            0    554.93952    18.046662    23.439576    22.134722            0            0            0    9363.1224   -501.24824    1966.8274    199.23944   -919.10674    428.29084    184.55126    18.046662    23.439576    22.134722           90           90           90 
   15000    270.05537   -145.05227   -114.92718   -145.05227            0   -171.33996    17.993082    23.500711     22.35015            0            0            0    9450.7657    2310.1575    1014.0349   -3838.2123   -484.17382     863.9937    -708.1986    17.993082    23.500711     22.35015           90           90           90 
   15500    267.15638   -144.41111   -114.60942   -144.41111            0    2010.4539     17.97235    23.457434    22.261311            0            0            0    9385.0396    785.63833    1709.3197    3536.4035   -466.73825   -810.44552   -485.96347     17.97235    23.457434    22.261311           90           90           90 
   16000    258.92093   -143.91438   -115.03136   -143.91438            0   -295.39512    18.094504    23.365276    22.004961            0            0            0    9303.3257    73.012769   -689.81963   -269.37851    179.22237    -1644.055   -1353.0428    18.094504    23.365276    22.004961           90           90           90 
   16500    264.44881   -143.95168   -114.45202   -143.95168            0   -2896.9399    18.338585    23.435881    22.042801            0            0            0    9473.5747   -3680.1147   -5114.8134    104.10836    -2125.767    1569.0315    -701.6605    18.338585    23.435881    22.042801           90           90           90 
   17000     267.7817   -144.77947   -114.90802   -144.77947            0    2405.5938    18.172038    23.237033    22.069987            0            0            0    9319.3663    4164.1669    1709.2899    1343.3247   -508.96088   -1832.4632   -359.31943    18.172038    23.237033    22.069987           90           90           90 
   17500    261.33103   -143.64018   -114.48831   -143.64018            0   -1408.8948    18.073757    23.464278    22.427947            0            0            0    9511.4152    773.95955    -3490.164   -1510.4799    167.92749    2913.8508     53.83455    18.073757    23.464278    22.427947           90           90           90 
   18000    259.89145   -145.32807   -116.33679   -145.32807            0    476.07796     17.81972    23.540703    22.285222            0            0            0    9348.3994   -1381.2142    1301.9238    1507.5243   -169.61885    1141.7664    1286.7256     17.81972    23.540703    22.285222           90           90           90 
   18500    270.43872   -145.68702   -115.51918   -145.68702            0    1702.0521    17.930967     23.66663    22.045155            0            0            0    9355.2046    5563.8553   -3652.4771     3194.778   -564.46999   -154.83637   -2007.0663    17.930967     23.66663    22.045155           90           90           90 
   19000    268.84869   -145.60205   -115.61158   -145.60205            0   -3480.8652    18.200664     23.55494    21.999732            0            0            0    9431.6276   -6597.0289   -4131.1413    285.57458    2295.4006   -663.34131     900.6141    18.200664     23.55494    21.999732           90           90           90 
   19500     260.7513   -143.72562   -114.63842   -143.72562            0   -171.29354    18.231949    23.280128    22.169469            0            0            0    9409.6561   -2472.7433    1590.3572    368.50553   -1063.4178    -257.2284   -685.08217    18.231949    23.280128    22.169469           90           90           90 
   20000    256.67107   -144.60438   -115.97234   -144.60438            0    2662.3217    18.074941    23.146268    22.266605            0            0            0    9315.6223    2300.9727    2494.4283    3191.5642    1835.5842    1370.6449    1392.6741    18.074941    23.146268    22.266605           90           90           90 
   20500    257.82909   -145.08921   -116.32798   -145.08921            0    1097.7975    18.024987    23.416906    22.260856            0            0            0     9396.072     2635.823    658.42718  -0.85768113    3078.4029   -528.34983   -271.37924    18.024987    23.416906    22.260856           90           90           90 
   21000    266.35385   -146.20649   -116.49431   -146.20649            0   -1532.0599    18.106024     23.67612    22.102405            0            0            0    9474.8677   -1140.1768   -763.66534   -2692.3377    471.46707   -27.942364    985.86006    18.106024     23.67612    22.102405           90           90           90 
   21500    250.02033   -145.11924    -117.2291   -145.11924            0    1202.2139    17.984753    23.534127    21.925535            0            0            0    9280.1024   -1489.5772    2144.2132    2952.0057    40.948768    229.38704   -1497.7772    17.984753    23.534127    21.925535           90           90           90 
   22000    267.57732   -145.78963   -115.94097   -145.78963            0   -2687.4027    18.094036     23.54526    22.241962            0            0            0    9475.7162   -4887.1252   -1243.1625   -1931.9205   -2500.8832    226.45917    1339.2414    18.094036     23.54526    22.241962           90           90           90 
   22500    265.87039   -145.40436   -115.74612   -145.40436            0    2301.9602    18.063027    23.349269    22.331342            0            0            0    9418.4323    5489.1644    345.83219    1070.8839    343.84551    1152.6482   -275.13809    18.063027    23.349269    22.331342           90           90           90 
   23000    261.93653   -145.69047   -116.47106   -145.69047            0   -1854.2202    18.073142    23.291606    22.176581            0            0            0    9335.2875   -1497.0214    -910.3197   -3155.3196    1441.0578    42.032022   -12.653449    18.073142    23.291606    22.176581           90           90           90 
   23500    271.33114      -144.82    -114.5526      -144.82            0   -3052.7848    18.144678    23.461091    22.153909            0            0            0     9430.785   -3625.9548   -3070.9287   -2461.4709   -528.97439    -190.9155   -590.93167    18.144678    23.461091    22.153909           90           90           90 
   24000    284.98095   -144.72801   -112.93796   -144.72801            0    2591.2622    18.068192    23.459929    22.068204            0            0            0    9354.2368    2737.0443    2562.0637    2474.6788    1349.4126   -221.21511   -433.05033    18.068192    23.459929    22.068204           90           90           90 
   24500    272.43557   -145.13485   -114.74426   -145.13485            0   -1891.9161     18.14707    23.551829    22.221719            0            0            0    9497.4888   -637.37351   -3479.4899   -1558.8848    975.49122   -909.32376    2107.3087     18.14707    23.551829    22.221719           90           90           90 
   25000    276.11507   -143.78414   -112.98309   -143.78414            0   -325.43442      18.0782    23.347905    22.205789            0            0            0    9372.7992   -1133.3134   -1246.0584    1403.0685      1574.93   -573.87836   -1579.4783      18.0782    23.347905    22.205789           90           90           90 
   25500     276.1056   -143.92105   -113.12105   -143.92105            0    1572.5807    18.055173    23.312539    22.173343            0            0            0     9333.024    2452.2692   -899.20048    3164.6733    1600.1485    812.41139    208.73971    18.055173    23.312539    22.173343           90           90           90 
   26000     277.9136   -144.02127   -113.01959   -144.02127            0   -3015.1258    18.185375    23.750492    22.202814            0            0            0    9589.6531    812.56025   -6226.6399   -3631.2978    323.76773   -652.00318   -1322.6135    18.185375    23.750492    22.202814           90           90           90 
   26500    269.09255   -144.40557   -114.38789   -144.40557            0    1848.2181    18.016365    23.747349    21.882327            0            0            0    9362.1546    720.54715    1199.0304    3625.0768   -580.90358     820.9261    2456.1018    18.016365    23.747349    21.882327           90           90           90 
   27000    274.55634   -143.70189   -113.07471   -143.70189            0   -3313.1609    17.998671    23.533182    22.060881            0            0            0    9344.2396   -5880.9637   -1069.9017   -2988.6173    843.47166    22.788241    -735.8581    17.998671    23.533182    22.060881           90           90           90 
   27500     274.6588   -144.64497   -114.00637   -144.64497            0   -2187.2048    18.075181    23.227842    22.456169            0            0            0     9428.165   -2451.8712   -653.23197   -3456.5112   -1457.8563    1234.1671     1126.554    18.075181    23.227842    22.456169           90           90           90 
   28000    262.61229   -144.60415   -115.30936   -144.60415            0     -1417.18    18.152366    23.138769    22.285771            0            0            0    9360.5457   -4702.9792    796.59883   -345.15955   -2523.1974    1321.6519    1215.4657    18.152366    23.138769    22.285771           90           90           90 
   28500    261.99444   -143.46635   -114.24048   -143.46635            0    185.01239    18.280688    23.478755    21.985785            0            0            0    9436.4701    955.73586   -1592.3364    1191.6377   -2755.9977    788.80884    -65.54634    18.280688    23.478755    21.985785           90           90           90 
   29000    257.99856   -143.53141   -114.75129   -143.53141            0    -1829.817    18.161139     23.62911     21.90147            0            0            0     9398.612   -2777.9973    92.977767   -2804.4313   -1085.8474    131.88351    -871.3764    18.161139     23.62911     21.90147           90           90           90 
   29500    266.82088   -142.83731   -113.07304   -142.83731            0   -941.57056    17.940704    23.557442    22.190028            0            0            0    9378.3287    -1313.014   -2070.1865     558.4888   -301.57135    763.87089    1078.2804    17.940704    23.557442    22.190028           90           90           90 
   30000    278.19983   -142.27252   -111.23891   -142.27252            0   -778.44789    17.985875    23.526781    22.478287            0            0            0    9511.6813    1642.1251   -2682.0475   -1295.4213    1175.2948   -41.499478   -504.81319    17.985875    23.526781    22.478287           90           90           90 
   30500    268.31441   -143.14461   -113.21374   -143.14461            0   -723.32268    18.081317    23.357532     22.21225            0            0            0    9381.0093    2179.2977    565.72105   -4914.9868    867.02896    1433.9155    729.03434    18.081317    23.357532     22.21225           90           90           90 
   31000    265.48623   -142.75816   -113.14277   -142.75816            0    1906.4141    18.223135    23.309179     22.01966            0            0            0    9353.2098     2739.101    2060.2379    919.90335   -2007.0822    1168.1093     436.5564    18.223135    23.309179     22.01966           90           90           90 
   31500    264.54332   -143.21614   -113.70593   -143.21614            0   -2166.6229    18.252565    23.438106    22.117442            0            0            0    9461.9642   -1980.5165   -1072.9047   -3446.4476   -761.54534     1640.892    1064.8226    18.252565    23.438106    22.117442           90           90           90 
   32000    274.20767   -145.11893   -114.53065   -145.11893            0   -1521.3428    18.008728    23.478622    22.154884            0            0            0    9367.5307   -1298.6657   -820.71411   -2444.6485   -2745.3589   -129.69171    1652.8351    18.008728    23.478622    22.154884           90           90           90 
   32500    260.78268   -143.31383   -114.22313   -143.31383            0    1426.7082    17.965416    23.667063    22.330836            0            0            0    9494.8175    2120.4356    -629.0494    2788.7383    1668.1456   -2019.0949    350.14966    17.965416    23.667063    22.330836           90           90           90 
   33000    266.69939   -143.77296   -114.02224   -143.77296            0    3009.5399    17.940492    23.448276    22.078659            0            0            0    9287.9088    1905.5495    6645.0449    478.02543   -2203.3531    621.47038    1698.6414    17.940492    23.448276    22.078659           90           90           90 
   33500    262.12822   -143.56492   -114.32412   -143.56492            0   -1734.0475    18.248301    23.488912    22.039896            0            0            0     9447.021    410.09682    -3254.339   -2357.9003    2393.9077   -196.32498   -389.28759    18.248301    23.488912    22.039896           90           90           90 
   34000    271.45409   -146.71139   -116.43028   -146.71139            0   -602.74829     18.31921    23.473433    22.098411            0            0            0    9502.6426   -2117.7543   -22.479184    331.98857   -1158.0654   -283.95503    -491.3268     18.31921    23.473433    22.098411           90           90           90 
   34500    251.15163   -145.15222   -117.13588   -145.15222            0    1156.9086    18.031861    23.316672    22.099238            0            0            0    9291.4694   -1038.8426     4562.107   -52.538553    435.74439    252.05918    1752.7901    18.031861    23.316672    22.099238           90           90           90 
   35000    257.92596    -146.0901   -117.31807    -146.0901            0    42.908419    17.937398    23.442559    22.313241            0            0            0    9382.6846   -464.56283   -814.95876    1408.2468   -894.26715   -849.74986    227.08094    17.937398    23.442559    22.313241           90           90           90 
   35500    263.37382   -145.57682   -116.19707   -145.57682            0   -1095.9049    18.016584    23.642006    22.225036            0            0            0     9466.714   -1470.9433   -3962.9123    2146.1408   -1462.1265    1597.9934   -462.12951    18.016584    23.642006    22.225036           90           90           90 
   36000    263.01525   -145.14509   -115.80534   -145.14509            0    1787.4571    18.117782    23.583479    22.000919            0            0            0    9400.5597     3956.319    137.21316     1268.839   -316.10561   -206.27195   -1094.5024    18.117782    23.583479    22.000919           90           90           90 
   36500    266.72862   -144.41499   -114.66101   -144.41499            0    230.21357    18.221154    23.418762    22.056954            0            0            0    9412.0748   -4145.1255   -1807.4331    6643.1993    891.02286    1576.5682   -205.84987    18.221154    23.418762    22.056954           90           90           90 
   37000    262.97946   -144.21315    -114.8774   -144.21315            0   -1125.5714    18.155404    23.255838    22.266873            0            0            0    9401.5002   -671.03617    225.37028   -2931.0483   -1010.2329   -348.12352   -1592.8798    18.155404    23.255838    22.266873           90           90           90 
   37500      260.119   -144.15989   -115.14322   -144.15989            0    2579.5538    18.069496    23.371263    22.357196            0            0            0    9441.5986    3973.4571    4245.1945   -479.99019   -2390.6892    1041.5818   -126.57036    18.069496    23.371263    22.357196           90           90           90 
   38000    263.53347    -143.2851   -113.88755    -143.2851            0    223.15085    17.993451    23.605051    22.132505            0            0            0    9400.4785    893.84133     1134.472   -1358.8608   -192.07112    52.516559    986.28564    17.993451    23.605051    22.132505           90           90           90 
   38500    264.82707    -143.9084   -114.36655    -143.9084            0   -1948.1355    18.012674    23.714622    21.966322            0            0            0    9383.2167   -2773.5053   -1786.6827   -1284.2186   -588.09803    322.83766     -133.685    18.012674    23.714622    21.966322           90           90           90 
   39000    260.56975   -144.07422   -115.00727   -144.07422            0   -414.15446     18.12344     23.49056    22.128013            0            0            0    9420.5535    1518.9067   -1954.9105   -806.45959    1813.1032   -1835.9521    1091.6787     18.12344     23.49056    22.128013           90           90           90 
   39500    271.55766   -144.40631   -114.11364   -144.40631            0    1704.8269    18.152381    23.139767    22.322133            0            0            0    9376.2304    1472.3093    1951.1765    1690.9948    253.91354    1436.3845    101.70778    18.152381    23.139767    22.322133           90           90           90 
   40000    258.59477   -143.94095   -115.09432   -143.94095            0   -2070.9851    18.191665    23.274984    22.362735            0            0            0    9468.6215    262.99105   -2393.6049   -4082.3414    1219.8912   -1849.9218   -571.74288    18.191665    23.274984    22.362735           90           90           90 
   40500    257.55283   -144.53858   -115.80818   -144.53858            0    363.09567     18.06336    23.535066      22.0139            0            0            0    9358.6011    628.64626    985.53546   -524.89469   -1652.8926    234.69619    74.272284     18.06336    23.535066      22.0139           90           90           90 
   41000    258.20686    -143.3616   -114.55823    -143.3616            0    888.76519      18.0112    23.787509    21.955873            0            0            0     9406.809    8.5357867   -256.73177    2914.4916    598.54706   -294.11851    2409.1482      18.0112    23.787509    21.955873           90           90           90 
   41500    260.65693   -143.59126   -114.51458   -143.59126            0    391.27243    18.020818    23.657699    22.249791            0            0            0    9485.7778    705.66084   -1450.4957    1918.6521    735.11607   -86.419474   -484.69723    18.020818    23.657699    22.249791           90           90           90 
   42000    260.85244   -143.81233   -114.71384   -143.81233            0   -513.78484    18.045658    23.242377    22.358677            0            0            0    9377.7652    1744.4012    -2322.513   -963.24279   -573.72183    2117.6808    951.60805    18.045658    23.242377    22.358677           90           90           90 
   42500     274.4894   -144.81393   -114.19423   -144.81393            0    2181.1642    18.210283    23.183011     22.27373            0            0            0     9403.283    2676.5748    1265.4269    2601.4908   -588.45346   -708.36923   -444.80173    18.210283    23.183011     22.27373           90           90           90 
   43000    270.08765   -143.59911   -113.47042   -143.59911            0   -1469.5446    18.266767    23.457325    22.042898            0            0            0    9445.1501   -1876.8279   -724.51973   -1807.2862   -543.38805   -417.06721    20.836676    18.266767    23.457325    22.042898           90           90           90 
   43500    271.39155   -145.45065   -115.17651   -145.45065            0    1426.7422     18.10294    23.689003    22.038738            0            0            0     9451.106   -1418.0268    1170.4746    4527.7787    89.825214    1914.0227    192.79858     18.10294    23.689003    22.038738           90           90           90 
   44000    269.80465   -145.13644   -115.03932   -145.13644            0   -443.85412    17.965191     23.57401    22.249972            0            0            0    9423.1208    -1099.746   -794.94077    563.12444     498.9925   -1735.4777    386.34609    17.965191     23.57401    22.249972           90           90           90 
   44500    267.32663   -144.01139    -114.1907   -144.01139            0   -173.88694     17.98913    23.330422    22.320266            0            0            0    9367.6817   -2578.3394    1502.6822    553.99636   -3422.4756    745.97208    318.97944     17.98913    23.330422    22.320266           90           90           90 
   45000    255.63202    -145.1118   -116.59567    -145.1118            0    414.81768    18.159999    23.406744    22.181763            0            0            0    9428.7233    61.541057   -616.63627    1799.5482     1840.457    23.340351     100.6915    18.159999    23.406744    22.181763           90           90           90 
   45500    255.43674   -144.94153   -116.44718   -144.94153            0    1266.9561    18.197568    23.445509    22.019524            0            0            0    9394.6567    664.69873    867.25597    2268.9135   -8.1753597   -724.05818    181.10536    18.197568    23.445509    22.019524           90           90           90 
   46000     269.3107   -145.64243   -115.60042   -145.64243            0   -879.61871    18.157742    23.502855    22.196907            0            0            0    9472.7246    -3536.759   -2824.3696    3722.2725    591.60766   -787.17227   -883.49962    18.157742    23.502855    22.196907           90           90           90 
   46500    266.44683   -144.30887   -114.58632   -144.30887            0   -1626.0474     17.94884    23.379019    22.288494            0            0            0    9352.8375   -915.09297   -1529.9819   -2433.0673   -850.61297   -182.31874    265.08113     17.94884    23.379019    22.288494           90           90           90 
   47000     262.9953   -143.82418   -114.48666   -143.82418            0   -2398.5206    18.004203    23.498271    22.323327            0            0            0    9444.2775   -850.73902   -662.72144   -5682.1012    661.22558    1177.8175   -74.490603    18.004203    23.498271    22.323327           90           90           90 
   47500    269.38272   -144.19727   -114.14723   -144.19727            0   -594.48756    18.208321    23.607281    22.132193            0            0            0    9513.4998   -2354.0767   -3781.3853    4351.9993    1718.6329    493.01492   -182.87327    18.208321    23.607281    22.132193           90           90           90 
   48000    275.25463   -144.39796   -113.69289   -144.39796            0    614.82332     18.13766    23.381491    21.978633            0            0            0    9320.8202   -397.88699    1724.5712    517.78576   -1713.0803    1961.3628   -1362.8464     18.13766    23.381491    21.978633           90           90           90 
   48500    259.62877   -143.19303   -114.23105   -143.19303            0   -975.45832    18.144206    23.433738    22.283495            0            0            0    9474.6428   -1867.1742     21.38884   -1080.5896    1214.9035    512.39882    323.34965    18.144206    23.433738    22.283495           90           90           90 
   49000    279.07544   -143.82923   -112.69794   -143.82923            0   -1263.7473    18.017746     23.43957    22.304469            0            0            0    9419.8066   -1936.9821    1916.8771    -3771.137    717.91592   -470.55284     124.6712    18.017746     23.43957    22.304469           90           90           90 
   49500    272.57747   -140.58246   -110.17604   -140.58246            0   -2186.9306    17.985909    23.566106    22.138268            0            0            0    9383.4787   -5454.6251   -597.13538   -509.03126    1183.2188    191.98116    1026.8997    17.985909    23.566106    22.138268           90           90           90 
   50000    266.61952   -142.30987   -112.56806   -142.30987            0   -850.85709     18.15893    23.632682    22.063404            0            0            0    9468.3823   -2154.4457   -1803.5691    1405.4435   -826.77571     -584.686    1533.3856     18.15893    23.632682    22.063404           90           90           90 
   50500     275.3934   -145.04955     -114.329   -145.04955            0   -291.36624    18.223242    23.346344    22.045972            0            0            0    9379.3723   -1074.3782   -1508.4556    1708.7351    347.22639   -742.97935   -800.61149    18.223242    23.346344    22.045972           90           90           90 
   51000    265.19591   -143.10666   -113.52365   -143.10666            0    1034.6328    18.266074    23.288023    22.311006            0            0            0    9490.6727    1677.1525   -185.21109     1611.957    104.19949   -1129.9136    2916.8928    18.266074    23.288023    22.311006           90           90           90 
   51500    261.87224   -144.29715   -115.08491   -144.29715            0    1590.4027    17.973253    23.341247    22.384287            0            0            0     9390.614    1912.3486    3696.6818   -837.82226   -872.12889    441.10563   -1074.2686    17.973253    23.341247    22.384287           90           90           90 
   52000    252.08241   -144.60108   -116.48091   -144.60108            0   -392.93975    17.832646    23.590817    22.170255            0            0            0    9326.7313   -913.24221   -1918.2716    1652.6945    1553.5792    474.62875    688.97001    17.832646    23.590817    22.170255           90           90           90 
   52500    259.42484   -141.90026   -112.96103   -141.90026            0   -2323.2465    18.144591    23.904212    22.147312            0            0            0    9606.0014   -2967.9757    -4121.067     119.3032    2703.1041    683.86895   -399.89749    18.144591    23.904212    22.147312           90           90           90 
   53000    271.38363   -145.27533   -115.00207   -145.27533            0    2315.6762    18.132331    23.476577    22.025009            0            0            0    9375.7177   -1421.2429    3421.6976    4946.5738   -1656.9884    775.17344   -1410.9375    18.132331    23.476577    22.025009           90           90           90 
   53500    263.91905   -144.79589   -115.35532   -144.79589            0    644.02467    18.172143    23.302059    22.247681            0            0            0    9420.7435   -214.37634    1339.2687    807.18166    75.314216    388.17038    89.533643    18.172143    23.302059    22.247681           90           90           90 
   54000    259.01561   -141.98805   -113.09446   -141.98805            0   -933.92621     18.14068    23.305285    22.340146            0            0            0    9444.8268   -3526.3108   -3825.8843    4550.4165   -450.69038    232.95159    536.52094     18.14068    23.305285    22.340146           90           90           90 
   54500    257.97235   -145.18382   -116.40661   -145.18382            0    2546.6858      18.0486    23.402564    22.221066            0            0            0    9385.8122    3347.2558     4104.817    187.98474   -218.18388   -270.35129   -1345.5315      18.0486    23.402564    22.221066           90           90           90 
   55000    264.35948   -144.92675   -115.43705   -144.92675            0   -1327.8974     18.01441    23.647985    22.126573            0            0            0    9426.0194   -2657.0045   -1157.1885   -169.49924   -976.52475   -83.875861    376.29429     18.01441    23.647985    22.126573           90           90           90 
   55500    259.86851   -145.05094   -116.06222   -145.05094            0   -1243.4798    18.039436    23.747397    22.172613            0            0            0    9498.5178   -2644.0151   -1300.5833     214.1591    -833.3154   -270.08025   -1465.1937    18.039436    23.747397    22.172613           90           90           90 
   56000     272.1394   -143.79252   -113.43496   -143.79252            0    2629.6036    18.049172     23.35451    22.203093            0            0            0    9359.2602    859.40127    6408.5379    620.87176   -1984.2808    744.48925   -705.71977    18.049172     23.35451    22.203093           90           90           90 
   56500    263.79747   -142.11556   -112.68856   -142.11556            0   -539.24555    18.204089    23.215247    22.309833            0            0            0    9428.4125   -125.13915   -2202.1421    709.54462   -329.16572    946.42331    499.59115    18.204089    23.215247    22.309833           90           90           90 
   57000     272.5828   -144.73268   -114.32566   -144.73268            0   -1772.4259    18.205384    23.389369    22.174975            0            0            0    9442.3805   -2385.2545   -1597.2058   -1334.8175   -1489.2686    1679.9653    506.09256    18.205384    23.389369    22.174975           90           90           90 
   57500     261.3866   -143.68956   -114.53149   -143.68956            0    2566.1467    18.062826    23.662028    22.039032            0            0            0    9419.5505    4547.2753     1424.192    1726.9727    766.91557   -2247.8628    469.05937    18.062826    23.662028    22.039032           90           90           90 
   58000    258.38769   -142.96651   -114.14298   -142.96651            0   -981.28062     18.00174    23.775391    22.173814            0            0            0    9490.3572   -2007.9228   -1469.8818    533.96276   -1199.9932    124.61737    281.17987     18.00174    23.775391    22.173814           90           90           90 
   58500    260.44065   -143.71198   -114.65943   -143.71198            0   -521.58691    17.916933    23.423575    22.246673            0            0            0    9336.4527   -1464.7505      -429.77    329.75978    1461.2917   -363.84404    473.81934    17.916933    23.423575    22.246673           90           90           90 
   59000    274.59087   -144.36141   -113.73038   -144.36141            0   -389.44454    18.140931    23.341028    22.265286            0            0            0    9427.7449    30.168545    972.62128   -2171.1234   -470.61625   -578.61403    1843.9018    18.140931    23.341028    22.265286           90           90           90 
   59500    266.18041   -143.32441   -113.63158   -143.32441            0   -2913.6491    18.339193    23.339775    22.234275            0            0            0    9516.9956   -3343.3417   -1723.1438   -3674.4617   -419.52145   -872.55268    2637.7141    18.339193    23.339775    22.234275           90           90           90 
   60000    264.32424    -144.2673   -114.78153    -144.2673            0   -206.20859    18.158001    23.278211    22.065231            0            0            0    9326.6593   -849.14638    -555.5215    786.04211   -826.82354   -918.24945    362.90268    18.158001    23.278211    22.065231           90           90           90 
   60500    258.62621    -144.1336   -115.28345    -144.1336            0    469.23221    18.034229    23.595319    22.170997            0            0            0    9434.2773    2813.5421     2003.032   -3408.8774     1316.774       -248.1    1171.9136    18.034229    23.595319    22.170997           90           90           90 
   61000    258.20772   -143.47429   -114.67083   -143.47429            0    1109.8207     17.92817     23.71921    22.244763            0            0            0    9459.4081    1397.0863    1940.1965   -7.8206131     38.54968   -1277.6566    882.17766     17.92817     23.71921    22.244763           90           90           90 
   61500    279.02915    -145.2291   -114.10298    -145.2291            0    713.33606    18.054488    23.551205    22.168561            0            0            0    9426.1822    2602.1605    610.91573    -1073.068   -661.59646    1853.5318    1205.3587    18.054488    23.551205    22.168561           90           90           90 
   62000    275.99955   -144.26097   -113.47281   -144.26097            0    741.55086    18.238396    23.194798    22.005492            0            0            0    9309.1135    1178.8594   -1169.5684    2215.3616   -2423.6951   -1505.9381    1765.3469    18.238396    23.194798    22.005492           90           90           90 
   62500    266.71042   -144.08481   -114.33286   -144.08481            0   -2698.7337     18.44346    23.239328    22.287179            0            0            0    9552.5887   -4857.5761   -535.66425   -2702.9606   -1335.9997    476.28899    386.67563     18.44346    23.239328    22.287179           90           90           90 
   63000    277.13342   -142.96129   -112.04664   -142.96129            0   -591.08465     18.13659    23.353512    22.278633            0            0            0    9436.1831    808.03272   -3466.9007      885.614   -1268.6399    -570.9339    1232.0346     18.13659    23.353512    22.278633           90           90           90 
   63500    264.53277   -144.49566   -114.98664   -144.49566            0    3741.9328    17.859328    23.572731    22.176866            0            0            0    9336.3083    4792.1102    3064.0635    3369.6247   -66.463227    -1076.518   -546.24505    17.859328    23.572731    22.176866           90           90           90 
   64000    265.50849   -142.88508   -113.26721   -142.88508            0     256.0418    17.956572    23.754874    22.218603            0            0            0    9477.4812    504.72867    397.92015   -134.52343    174.05403    163.39864    2779.3455    17.956572    23.754874    22.218603           90           90           90 
   64500    275.64827   -145.17329   -114.42432   -145.17329            0    1321.0806    18.072349    23.555714    22.141392            0            0            0    9425.7477   -2382.1463     2128.854    4216.5341   -1131.9568    380.50068   -531.74611    18.072349    23.555714    22.141392           90           90           90 
   65000    254.05316   -144.99076   -116.65075   -144.99076            0   -123.39645    18.246572    23.347323    22.247996            0            0            0    9477.8379    2170.3497    190.03582   -2730.5749    1089.5276   -1269.2348   -1148.6365    18.246572    23.347323    22.247996           90           90           90 
   65500    265.27733   -144.82641   -115.23433   -144.82641            0     14.41999    18.138079    23.189094    22.147661            0            0            0    9315.4308   -159.15292    566.40362   -363.99073    1216.3031    1012.5976   -480.05559    18.138079    23.189094    22.147661           90           90           90 
   66000    278.71108   -143.89381   -112.80317   -143.89381            0    1409.8725    18.090717    23.461655    22.145048            0            0            0    9399.2031    1659.0443   -168.49145    2739.0646    2126.0988    682.30674   -292.13002    18.090717    23.461655    22.145048           90           90           90 
   66500    275.65586   -144.32959   -113.57977   -144.32959            0   -1286.5462     18.05076    23.711824    22.235874            0            0            0      9517.32   -622.59612   -2555.7352    -681.3072    1104.4181   -221.80134   -1824.9631     18.05076    23.711824    22.235874           90           90           90 
   67000     257.5982   -143.47028   -114.73482   -143.47028            0   -1481.2092    18.006121    23.615371    22.241587            0            0            0    9457.5952   -1393.3421   -2132.8392   -917.44615    944.87385   -619.21393    1371.1181    18.006121    23.615371    22.241587           90           90           90 
   67500    262.43847   -144.62547   -115.35006   -144.62547            0    -4.405988     18.05372    23.322709     22.16546            0            0            0    9333.0256    2987.9584   -142.86632   -2858.3101   -62.145496   -6.4738831     1647.408     18.05372    23.322709     22.16546           90           90           90 
   68000    260.46676   -144.32502   -115.26956   -144.32502            0    2864.0701    18.243634    23.318215    22.283943            0            0            0    9479.7895    3154.1647   -392.64412    5830.6897    2889.7564    368.87311    85.942854    18.243634    23.318215    22.283943           90           90           90 
   68500    270.13064   -144.28917   -114.15569   -144.28917            0    -1061.641    18.223211    23.410145    22.222407            0            0            0    9480.2567   -1779.6664   -2083.1401    677.88357    -2488.346    -708.5604    1964.3231    18.223211    23.410145    22.222407           90           90           90 
   69000    257.60911    -144.9585   -116.22181    -144.9585            0   -680.79113    18.105485    23.555275    22.126896            0            0            0    9436.6716   -963.73283   -950.04981   -128.59076    57.921186    1173.4583   -1114.5603    18.105485    23.555275    22.126896           90           90           90 
   69500    262.02641   -145.49368   -116.26424   -145.49368            0    1746.7828    18.004436    23.623831    22.161852            0            0            0    9426.1841    4210.5206     2097.985   -1068.1571    1317.7593    131.52841    527.99467    18.004436    23.623831    22.161852           90           90           90 
   70000    257.76479    -143.9672   -115.21315    -143.9672            0   -353.09749    17.941746    23.493007    22.265893            0            0            0    9385.1977     2346.085   -2575.7318   -829.64565    2165.3738   -1210.0476    211.88618    17.941746    23.493007    22.265893           90           90           90 
   70500    254.57956   -143.96348   -115.56474   -143.96348            0    202.66323    18.216497    23.328264    22.343171            0            0            0    9494.9371    2144.6368   -1211.6469   -325.00025   -185.71624   -106.57456   -862.70237    18.216497    23.328264    22.343171           90           90           90 
   71000    260.58464   -143.80564   -114.73703   -143.80564            0   -285.12111    18.502505    23.163988    22.131461            0            0            0    9485.3625   -2258.6423       352.54     1050.739    853.77446    760.16792   -81.577506    18.502505    23.163988    22.131461           90           90           90 
   71500    266.82376   -144.57062   -114.80602   -144.57062            0    2173.7302    18.287082    23.210826     21.95018            0            0            0    9316.9355    1189.9886    3265.5549    2065.6472   -394.30657    486.17372   -302.93867    18.287082    23.210826     21.95018           90           90           90 
   72000    276.71283   -142.31536   -111.44762   -142.31536            0    1581.1293     18.03309    23.648967    22.245459            0            0            0    9486.8864   -425.36194     3676.481    1492.2689   -177.90045    74.400157   -779.37703     18.03309    23.648967    22.245459           90           90           90 
   72500    275.84671   -144.29404   -113.52293   -144.29404            0   -55.979333    17.900052    23.748116    22.364171            0            0            0    9506.8415    2939.6115    1092.8247   -4200.3741    225.97042    157.21015   -1410.6677    17.900052    23.748116    22.364171           90           90           90 
   73000     262.7257   -143.97006   -114.66261   -143.97006            0    537.91736    17.976417    23.560552    22.148965            0            0            0    9380.8465    1450.1001    674.38075   -510.72875   -939.57791    268.42484    1149.4894    17.976417    23.560552    22.148965           90           90           90 
   73500     266.3541   -144.00834   -114.29614   -144.00834            0    1726.9446    18.199219    23.487155    22.042755            0            0            0    9422.1288    2004.9203    951.70808    2224.2053    1872.8492   -1185.0328    461.72432    18.199219    23.487155    22.042755           90           90           90 
   74000    250.94563   -142.69145   -114.69809   -142.69145            0    1486.6634    18.205788    23.379014    22.186431            0            0            0    9443.2851    2654.2923    967.26929    838.42864   -1285.9014   -389.80423   -2204.4844    18.205788    23.379014    22.186431           90           90           90 
   74500    275.21959   -144.98618   -114.28503   -144.98618            0    834.78627    18.105846    23.356403     22.37781            0            0            0    9463.2951    2113.0098    774.41853   -383.06948    88.428507    366.20555   -255.40377    18.105846    23.356403     22.37781           90           90           90 
   75000     270.6807    -144.0285   -113.83366    -144.0285            0   -1696.1822    18.069711     23.54706    22.333366            0            0            0    9502.5921   -2673.5768   -1753.9635   -661.00625    1114.3515   -909.88866    332.01898    18.069711     23.54706    22.333366           90           90           90 
   75500    265.70542   -145.07629   -115.43645   -145.07629            0    823.73927     17.99002    23.609234     21.95327            0            0            0    9324.2254   -1415.9277    1585.6571    2301.4884    861.24565   -362.93629    2123.6808     17.99002    23.609234     21.95327           90           90           90 
   76000    274.28105   -145.27055   -114.67409   -145.27055            0   -1588.9248    18.148328    23.673864    22.078956            0            0            0    9486.0256   -1805.4642   -2792.0257   -169.28432    777.96596   -982.69243   -485.45854    18.148328    23.673864    22.078956           90           90           90 
   76500     246.5672   -145.73081   -118.22587   -145.73081            0     1502.422    18.138644    23.361747    22.278839            0            0            0    9440.6672    19.429061    5090.4588   -602.62185    234.69336    2492.7146   -339.17068    18.138644    23.361747    22.278839           90           90           90 
   77000    252.31833   -145.41642   -117.26993   -145.41642            0   -1676.4782    18.137555    23.199128    22.296399            0            0            0    9381.7778   -771.57782    936.87189   -5194.7286   -1505.3645    -150.2638    520.40488    18.137555    23.199128    22.296399           90           90           90 
   77500    260.92078    -143.8884    -114.7823    -143.8884            0    721.98296    18.142897    23.393793     22.09248            0            0            0    9376.7372    1468.5163    952.77621   -255.34364    -748.2933    1303.4571   -1141.1306    18.142897    23.393793     22.09248           90           90           90 
   78000    267.18779    -142.4937    -112.6885    -142.4937            0    2517.1502    18.111249    23.679181     22.05813            0            0            0    9459.8396    1499.7042    454.07517    5597.6713   -387.96604    -906.7588   -2085.2027    18.111249    23.679181     22.05813           90           90           90 
   78500    255.61657   -144.34232   -115.82791   -144.34232            0   -389.51358    17.965696     23.65784    22.231952            0            0            0    9449.2366    -1804.381   -162.46275    798.30302        508.5   -929.25975   -781.24305    17.965696     23.65784    22.231952           90           90           90 
   79000      258.229   -144.51676   -115.71093   -144.51676            0     1768.927     17.89035    23.373467    22.443193            0            0            0    9384.8345     7316.371    3020.1479    -5029.738    47.336665    1750.8728    1725.7334     17.89035    23.373467    22.443193           90           90           90 
   79500    265.61935   -142.46613   -112.83589   -142.46613            0   -1949.1371    18.076168    23.167856    22.430437            0            0            0    9393.5541   -3793.1213   -1007.8668   -1046.4234    558.01062   -1881.2549     79.10092    18.076168    23.167856    22.430437           90           90           90 
   80000    274.00326   -143.97606   -113.41059   -143.97606            0   -954.83011    18.405621     23.29122    22.012389            0            0            0     9436.477    -1989.418   -1022.5819    147.50955    431.44684    1176.8367    1580.4111    18.405621     23.29122    22.012389           90           90           90 
   80500    276.34663   -144.63734   -113.81046   -144.63734            0   -669.98504    18.432192    23.519989     21.82173            0            0            0    9460.2648   -2502.1707   -2663.9168    3156.1324   -145.15327   -1257.8484   -325.64145    18.432192    23.519989     21.82173           90           90           90 
   81000     261.0754   -143.82815    -114.7048   -143.82815            0   -984.05371    18.041094    23.562373    22.088625            0            0            0    9389.6751   -2395.7448    131.87683   -688.29314    -1228.705   -124.54684    464.61626    18.041094    23.562373    22.088625           90           90           90 
   81500    262.84075   -144.10389    -114.7836   -144.10389            0   -297.27225    17.779539    23.520239    22.400533            0            0            0    9367.4327    3783.8824   -1164.2425   -3511.4566    -8.549892   -128.85308   -283.40301    17.779539    23.520239    22.400533           90           90           90 
   82000    260.96849   -144.87751   -115.76608   -144.87751            0    2272.6834    17.987943    23.559371    22.441676            0            0            0    9510.4373    2849.3024    5452.6298    -1483.882    1022.7252    309.42018    -274.4364    17.987943    23.559371    22.441676           90           90           90 
   82500    270.78664   -142.87187   -112.66522   -142.87187            0    1689.6395    18.132559    23.446002    22.123687            0            0            0    9405.5757   -461.87073    956.91014    4573.8792    723.57651   -858.45628    93.193319    18.132559    23.446002    22.123687           90           90           90 
   83000    278.92793   -144.45769   -113.34286   -144.45769            0    786.42627    18.243295     23.40779    22.101006            0            0            0     9437.908    1814.6701    2970.2235   -2425.6148   -1026.4197   -597.39244    398.83842    18.243295     23.40779    22.101006           90           90           90 
   83500    273.16458   -144.68217   -114.21025   -144.68217            0   -1445.4264    18.131419    23.330638    22.267382            0            0            0    9419.4938   -2840.2097   -293.58338   -1202.4861    62.569614   -105.25157    896.13109    18.131419    23.330638    22.267382           90           90           90 
   84000    288.43373   -144.59209   -112.41687   -144.59209            0   -92.359577     18.04785    23.485106    22.375903            0            0            0    9484.1538    881.52241    -157.4886   -1001.1125   -935.53379   -952.31506   -277.84944     18.04785    23.485106    22.375903           90           90           90 
   84500    273.06177    -143.9397   -113.47925    -143.9397            0   -599.01306    18.006275    23.593522    22.172339            0            0            0     9419.507   -892.73358   -3818.8776     2914.572   -657.08658    1358.3142    1091.8405    18.006275    23.593522    22.172339           90           90           90 
   85000    268.87715   -144.48701   -114.49336   -144.48701            0   -775.53123    18.121672    23.607123    22.016834            0            0            0    9418.8133    1636.3958   -4444.3882    481.39875   -132.34053   -1431.0981   -1068.4473    18.121672    23.607123    22.016834           90           90           90 
   85500    268.97912   -143.39551   -113.39048   -143.39551            0    1046.1004    18.218072    23.456922    22.146449            0            0            0    9464.0617    3729.6533   -2979.9441    2388.5918   -1301.4617     248.8408    728.72931    18.218072    23.456922    22.146449           90           90           90 
   86000    263.71212   -143.66876   -114.25128   -143.66876            0   -1722.2371    18.147863    23.229069    22.349363            0            0            0    9421.5517   -1448.0363    220.44339   -3939.1184   -787.07291   -737.63934   -590.38524    18.147863    23.229069    22.349363           90           90           90 
   86500    268.07215   -145.57029   -115.66644   -145.57029            0    289.91966    18.087837     23.37646    22.397642            0            0            0    9470.3858   -57.832548     1263.913    -336.3215   -705.42206    895.67322    291.26014    18.087837     23.37646    22.397642           90           90           90 
   87000    254.37739   -144.53471   -116.15853   -144.53471            0    1013.6676     18.00867    23.687602     22.08465            0            0            0    9420.9185    4190.0609    175.03185   -1324.0901    -27.78564   -577.76207    44.667663     18.00867    23.687602     22.08465           90           90           90 
   87500    256.24955   -143.61406   -115.02904   -143.61406            0   -90.438499    17.975964     23.82647    21.927642            0            0            0    9391.6913    1432.1181   -5471.1612    3767.7277    1246.0846    155.19525    960.83733    17.975964     23.82647    21.927642           90           90           90 
   88000    261.47111   -143.60485   -114.43735   -143.60485            0    324.21707    18.111154    23.645822     22.23841            0            0            0    9523.6684    2129.8683   -3869.8018    2712.5847    2119.0681   -725.73369    316.62102    18.111154    23.645822     22.23841           90           90           90 
   88500      253.085    -143.5341   -115.30209    -143.5341            0   -673.15477    18.176232      23.1216    22.414714            0            0            0    9420.0877   -1045.4046    581.00273   -1555.0624    -2532.046   -49.809728   -530.76088    18.176232      23.1216    22.414714           90           90           90 
   89000    252.68877    -145.5616   -117.37379    -145.5616            0    1459.4591    18.197948    23.003774    22.248036            0            0            0    9313.5061    2123.5541     4652.807   -2397.9838   -530.78176    1669.7694   -529.63659    18.197948    23.003774    22.248036           90           90           90 
   89500    262.62302   -146.64189    -117.3459   -146.64189            0    1571.8407      18.2362     23.46022    22.176586            0            0            0    9487.7041    3059.3604    693.14134    963.02029   -1370.0297    296.60764    1567.3552      18.2362     23.46022    22.176586           90           90           90 
   90000    255.64372   -145.89648   -117.37904   -145.89648            0   -2403.7661    18.053148      23.7079    22.100854            0            0            0    9459.2149   -4235.2399   -2203.7175   -772.34103    543.95197    -2091.326   -1536.9349    18.053148      23.7079    22.100854           90           90           90 
   90500    255.40582   -143.75005   -115.25915   -143.75005            0   -267.03154    17.911042    23.554003    22.171475            0            0            0    9353.6296    885.30533   -346.19447   -1340.2055   -864.33302    1772.8635    2647.3409    17.911042    23.554003    22.171475           90           90           90 
   91000    256.16877    -143.2901   -114.71409    -143.2901            0   -690.43772    18.079063    23.502611    22.358314            0            0            0    9500.1636   -1718.5494     706.6248   -1059.3886    595.34027   -72.380541   -2469.1806    18.079063    23.502611    22.358314           90           90           90 
   91500    250.90518   -145.74151   -117.75266   -145.74151            0   -1311.8179     18.16013      23.3055    22.232472            0            0            0    9409.4694   -3108.0682    1891.6933   -2719.0787    498.05125     946.5533   -194.90838     18.16013      23.3055    22.232472           90           90           90 
   92000    253.76425   -144.04604   -115.73825   -144.04604            0    846.35105    18.264678    23.328715    22.107081            0            0            0    9419.6385    1430.5043    1152.1185   -43.569652    599.61577   -313.53233   -582.16088    18.264678    23.328715    22.107081           90           90           90 
   92500    259.43575    -144.4887   -115.54825    -144.4887            0     568.3892    18.299551    23.452289    22.125162            0            0            0    9495.3753   -1725.9991    2191.7611    1239.4056   -327.83079     2003.149    282.33116    18.299551    23.452289    22.125162           90           90           90 
   93000    261.35399   -144.55811   -115.40368   -144.55811            0   -1267.5753    18.003472    23.402369    22.192182            0            0            0     9350.097     684.7718   -105.49119   -4382.0066    226.43778    958.59452    70.778207    18.003472    23.402369    22.192182           90           90           90 
   93500    263.19036   -144.89348    -115.5342   -144.89348            0   -111.40602    17.917945    23.623416    22.342279            0            0            0    9457.1084    1057.8133     589.7048   -1981.7362    1271.8188     1055.414    38.082913    17.917945    23.623416    22.342279           90           90           90 
   94000    262.93108   -145.07605   -115.74569   -145.07605            0   -2914.0276    18.017865    23.647689    22.206838            0            0            0    9461.9089   -3088.8813    -566.8987   -5086.3028   -376.09602   -1184.6079    318.73119    18.017865    23.647689    22.206838           90           90           90 
   94500    254.62823   -144.24522   -115.84105   -144.24522            0    2391.6403    18.158358     23.34862     22.02008            0            0            0    9335.9109    2358.4022    1606.9628    3209.5558   -2821.8566   -1099.5984    1172.3767    18.158358     23.34862     22.02008           90           90           90 
   95000    250.59525   -145.46415   -117.50988   -145.46415            0    2047.1289    18.308946    23.281739     22.26032            0            0            0    9488.7756     305.2405    4414.1507    1421.9957   -1029.1423    267.24131    1542.8585    18.308946    23.281739     22.26032           90           90           90 
   95500    253.12246   -143.47782   -115.24163   -143.47782            0   -364.82941    18.123009    23.308511    22.249708            0            0            0    9398.7296   -2863.5945    1747.6596    21.446673    188.30555    1023.9059   -3369.8447    18.123009    23.308511    22.249708           90           90           90 
   96000    272.12888   -144.20053   -113.84415   -144.20053            0   -1064.0029    17.948507    23.579528    22.164825            0            0            0    9380.5378   -431.71873   -1616.4224   -1143.8675    -226.4505     413.1794   -1376.5205    17.948507    23.579528    22.164825           90           90           90 
   96500    261.25037   -142.98276   -113.83989   -142.98276            0      619.423    17.940244     23.79929    22.150375            0            0            0    9457.4363    1944.4425    806.32705   -892.50059    729.26581   -394.94725   -651.62425    17.940244     23.79929    22.150375           90           90           90 
   97000    261.83997   -144.11343   -114.90479   -144.11343            0    2181.5944    18.086132    23.606731    22.182708            0            0            0    9471.0057     -437.206    4904.4302     2077.559    1128.4598    1056.2242    1347.2096    18.086132    23.606731    22.182708           90           90           90 
   97500    257.70194   -143.17687   -114.42983   -143.17687            0   -732.93315    18.325797    23.116441      22.2202            0            0            0    9413.0815   -1863.2348    174.68585   -510.25048    442.46933    1636.1171   -755.82548    18.325797    23.116441      22.2202           90           90           90 
   98000    253.30882   -144.28896   -116.03198   -144.28896            0   -546.76231    18.369978    22.964583    22.253776            0            0            0    9387.9532   -3688.6903    2990.9008   -942.49748   -136.58008   -780.59685   -755.99641    18.369978    22.964583    22.253776           90           90           90 
   98500    262.94734   -144.04281   -114.71064   -144.04281            0   -191.66986    18.126474     23.36529    22.197104            0            0            0    9401.1465    1073.6965    1576.4517   -3225.1578    769.06013   -2754.2746   -1939.7454    18.126474     23.36529    22.197104           90           90           90 
   99000    262.71485   -144.84131   -115.53508   -144.84131            0    426.87003     17.84705    23.871309    22.149576            0            0            0    9436.4382   -521.98081   -2133.1079    3935.6988   -383.77986    260.97671    532.99892     17.84705    23.871309    22.149576           90           90           90 
   99500    272.94293   -142.91853   -112.47134   -142.91853            0    -1355.568    17.871637    23.793829    22.165012            0            0            0    9425.3321    1179.6078   -453.71789   -4792.5939   -1189.8883   -1805.8612   -1766.2463    17.871637    23.793829    22.165012           90           90           90 
  100000    270.33304   -144.34971   -114.19365   -144.34971            0    742.47911    17.992743    23.463902    22.101775            0            0            0    9330.9263    -241.6516   -1015.0059    3484.0949   -2050.5712   -1126.3396   -377.64428    17.992743    23.463902    22.101775           90           90           90 
  100500     260.2466   -143.30488   -114.27398   -143.30488            0    75.454446    18.195677    23.393954    22.216163            0            0            0    9456.7283    3800.9299   -2596.8417   -977.72492    1857.8234    1969.6707    -1277.734    18.195677    23.393954    22.216163           90           90           90 
  101000    265.19593   -144.76952   -115.18651   -144.76952            0   -617.55644    18.201227     23.35865    22.234722            0            0            0    9453.2276    1770.9782   -3218.1252   -405.52231   -765.82368    796.46198    1582.6479    18.201227     23.35865    22.234722           90           90           90 
  101500     265.3046   -144.78855   -115.19342   -144.78855            0   -400.19909    18.016109     23.39289    22.146259            0            0            0    9333.5153   -2894.9632    503.51904    1190.8469    -380.2322    584.89033    1327.2196    18.016109     23.39289    22.146259           90           90           90 
  102000    272.06873   -145.35776   -115.00808   -145.35776            0    345.70272    17.998071    23.627535    22.237337            0            0            0    9456.4283    814.70409    740.39849   -517.99443   -1508.1078   -2060.1855     946.1381    17.998071    23.627535    22.237337           90           90           90 
  102500    256.40366   -143.95224   -115.35002   -143.95224            0   -689.10541    18.000397    23.623605    22.155706            0            0            0    9421.3655   -4241.3214   -1734.0865    3908.0917   -571.28625    253.06054    1075.6249    18.000397    23.623605    22.155706           90           90           90 
  103000    272.29938   -145.03982   -114.66441   -145.03982            0   -587.97831    18.116141    23.497145    22.135041            0            0            0    9422.3912    1599.8147   -1053.2193   -2310.5303   -75.115093   -113.09068    294.97672    18.116141    23.497145    22.135041           90           90           90 
  103500    261.51943   -144.53019    -115.3573   -144.53019            0    732.24128    18.217526    23.277392    22.157957            0            0            0    9396.2259   -1222.3957    1369.8711    2049.2484     762.1703    526.06961    485.80963    18.217526    23.277392    22.157957           90           90           90 
  104000     253.2536   -142.77853   -114.52771   -142.77853            0   -427.01894     18.15166    23.163963    22.200108            0            0            0    9334.3545   -964.44355    -2208.436    1891.8227    86.877917   -573.45212    279.76117     18.15166    23.163963    22.200108           90           90           90 
  104500    255.12149   -143.96045   -115.50127   -143.96045            0    103.58937    18.113586     23.57636    22.405529            0            0            0    9568.3356    452.37659    531.23094   -672.83941    35.311089    99.669307   -42.003086    18.113586     23.57636    22.405529           90           90           90 
  105000    264.71598   -143.06148   -113.53201   -143.06148            0    3191.7575     17.85078      23.6439     22.10677            0            0            0     9330.429    4698.8906    5399.4155   -523.03366    -261.5778      750.816   -177.89573     17.85078      23.6439     22.10677           90           90           90 
  105500    269.33498   -143.31714   -113.27241   -143.31714            0    666.61304    17.959184    23.650988    22.017177            0            0            0    9351.8502    -662.2895    1271.0052    1391.1234   -1979.1745   -1.3520751   -910.66335    17.959184    23.650988    22.017177           90           90           90 
  106000     261.6107   -143.68536    -114.5023   -143.68536            0   -415.82938    18.269796    23.555944    22.178338            0            0            0    9544.7207    926.50706   -237.17015    -1936.825     418.8693   -915.64257    859.95973    18.269796    23.555944    22.178338           90           90           90 
  106500    259.49242   -144.14704   -115.20027   -144.14704            0     9.680806    18.201363    23.181778    22.173332            0            0            0    9355.8152   -771.07676    1343.2327   -543.11357   -2421.1352    570.43602    -1986.026    18.201363    23.181778    22.173332           90           90           90 
  107000    261.58424   -144.34952    -115.1694   -144.34952            0    2192.7356    18.162666    23.282707    22.260109            0            0            0    9413.2669    4203.3195    5397.1444   -3022.2571   -217.74292   -1150.8788    1124.5667    18.162666    23.282707    22.260109           90           90           90 
  107500    258.49904   -143.37573   -114.53977   -143.37573            0   -2809.8548    18.061981    23.529385    22.253581            0            0            0    9457.4893   -915.78684   -3644.3199   -3869.4578    193.04266    425.98968   -171.78862    18.061981    23.529385    22.253581           90           90           90 
  108000    272.73575   -144.52414   -114.10005   -144.52414            0   -1242.5913    17.990317    23.610061    22.130435            0            0            0    9399.9575   -1714.4242   -3132.8575    1119.5078   -852.12135   -3668.6999    596.83078    17.990317    23.610061    22.130435           90           90           90 
  108500     267.2189   -142.82439   -113.01572   -142.82439            0    123.16142    18.102462    23.638433     22.18034            0            0            0    9491.2743    1313.8175   -1913.1357    968.80247    1925.4497     945.2652   -12.192275    18.102462    23.638433     22.18034           90           90           90 
  109000    254.78234   -143.64499   -115.22364   -143.64499            0   -3275.9812    18.113004    23.403841     22.13287            0            0            0    9382.4303   -1601.3943    -4306.916   -3919.6334   -580.10541   -1294.3981   -1416.9148    18.113004    23.403841     22.13287           90           90           90 
  109500    266.19862   -143.70792   -114.01306   -143.70792            0    1432.9569    18.166163    23.324802    22.286782            0            0            0    9443.4035    3295.5392    1862.4944   -859.16284   -27.745299   -1746.9068    1382.0358    18.166163    23.324802    22.286782           90           90           90 
  110000    264.48783   -144.07938   -114.57537   -144.07938            0    456.28909     18.17118    23.443758    22.295669            0            0            0    9497.9714   -145.95562    95.978552    1418.8443   -771.35235    176.53624   -748.37581     18.17118    23.443758    22.295669           90           90           90 
  110500    252.17533   -144.39935   -116.26881   -144.39935            0   -725.27114    18.018538    23.626017    21.952914            0            0            0    9345.4939   -1709.2429    707.29559   -1173.8661    871.61426   -515.75708     1533.387    18.018538    23.626017    21.952914           90           90           90 
  111000    267.97284   -144.47357    -114.5808   -144.47357            0    1207.3215    18.008821    23.838094    21.884687            0            0            0    9395.0078    1449.1303   -1479.6747    3652.5091    210.44735    862.35158    2191.8292    18.008821    23.838094    21.884687           90           90           90 
  111500    265.59133   -143.93193   -114.30481   -143.93193            0   -1102.0906    18.138267    23.635868    22.372727            0            0            0    9591.4942   -344.19979    -1537.305   -1424.7669    549.50092   -675.88311    1180.5199    18.138267    23.635868    22.372727           90           90           90 
[...]
  373500    264.17403   -145.23716   -115.76814   -145.23716            0    1156.1726     18.03105    23.564877    22.060278            0            0            0    9373.4005     1734.445     1533.268    200.80494     1110.825   -969.11082   -763.84811     18.03105    23.564877    22.060278           90           90           90 
  374000    268.88004    -144.0065   -114.01253    -144.0065            0   -616.06983    17.771886    23.695301    22.429122            0            0            0    9445.1318   -710.45226    626.85378    -1764.611   -1361.0471    1042.4988    1651.5559    17.771886    23.695301    22.429122           90           90           90 
  374500    274.13343   -143.03611   -112.45612   -143.03611            0   -735.98334    17.923036    23.709615    22.407182            0            0            0    9521.8939   -842.32633    2076.8526   -3442.4763   -1848.5798    880.64442     547.3052    17.923036    23.709615    22.407182           90           90           90 
  375000    264.12548   -142.07893   -112.61533   -142.07893            0    1602.3644    18.176815    23.466529    22.075031            0            0            0    9416.0329    1895.0763   -490.88121    3402.8979    372.46685    363.64725   -702.45165    18.176815    23.466529    22.075031           90           90           90 
  375500    262.84594   -144.10059   -114.77973   -144.10059            0    77.965733    18.331166    23.299291    22.058207            0            0            0    9421.1306   -428.40342   -1153.8075    1816.1082   -310.92496    510.77935     61.23541    18.331166    23.299291    22.058207           90           90           90 
  376000    267.98286    -143.9218   -114.02791    -143.9218            0    247.20562     18.25753    23.391966    22.316818            0            0            0     9531.056   -1797.6745   -442.65968     2981.951    246.06441   -430.59896    730.86558     18.25753    23.391966    22.316818           90           90           90 
  376500    285.27171   -144.32644   -112.50395   -144.32644            0   -409.80357    17.973704    23.451165    22.333348            0            0            0    9413.6024     1626.508   -1732.8776   -1123.0411   -1462.7408     2019.215   -6.8678096    17.973704    23.451165    22.333348           90           90           90 
  377000    257.62171   -144.98454   -116.24645   -144.98454            0    2141.9843    17.952861    23.647503    22.268829            0            0            0    9454.0161    1713.0171    2077.0019    2635.9339    1907.9031   -297.89535    199.38504    17.952861    23.647503    22.268829           90           90           90 
  377500     258.2605   -143.77736   -114.96801   -143.77736            0    -2370.036     18.04734    23.554159    22.096292            0            0            0    9392.9106   -4063.6186   -1506.3903   -1540.0992   -1592.8998   -992.03422    432.32805     18.04734    23.554159    22.096292           90           90           90 
  378000    253.19429   -143.14213   -114.89793   -143.14213            0   -1991.1258    18.251865    23.434189     22.12319            0            0            0     9462.479   -641.50583    555.83728   -5887.7089   -1266.1686   -542.71514    511.88081    18.251865    23.434189     22.12319           90           90           90 
  378500    265.73449   -145.50252   -115.85944   -145.50252            0   -872.24994    18.225703    23.344839    22.266901            0            0            0     9474.034   -2192.6121     528.9631   -953.10083   -1532.0312   -1354.9936   -185.38445    18.225703    23.344839    22.266901           90           90           90 
  379000     268.1669   -144.15487   -114.24045   -144.15487            0   -315.26109     18.05526    23.404087    22.247186            0            0            0    9400.9236    2256.4815   -798.12143   -2404.1434   -675.15555    1204.0581   -1275.7764     18.05526    23.404087    22.247186           90           90           90 
  379500    253.16529   -144.05739   -115.81642   -144.05739            0   -1651.4576    17.967891    23.679259    22.193755            0            0            0    9442.6961   -1725.3071   -4809.1696    1580.1039    845.71077   -68.717187     388.8712    17.967891    23.679259    22.193755           90           90           90 
  380000    255.76757    -143.9548   -115.42354    -143.9548            0   -59.749203    18.057705    23.779653    22.113152            0            0            0    9495.5189   -1313.4799    1770.5217   -636.28937    2086.8995   -1063.9191   -1211.9905    18.057705    23.779653    22.113152           90           90           90 
  380500    260.34588   -145.76133   -116.71936   -145.76133            0    22.687976    18.173517    23.415865     22.04643            0            0            0    9381.8278   -1470.6814    1538.9163  -0.17094584   -280.37789   -1042.6168    2376.9535    18.173517    23.415865     22.04643           90           90           90 
  381000    259.87819   -143.96893   -114.97912   -143.96893            0    37.185831    18.331446    23.009904    22.192597            0            0            0    9360.9444   -336.72757    1501.1341    -1052.849    1805.2481    2622.9243   -1597.3933    18.331446    23.009904    22.192597           90           90           90 
  381500    275.32664   -142.28862   -111.57552   -142.28862            0   -1798.0869    18.387998    23.144019    22.440571            0            0            0     9550.083   -1752.1454   -895.57139   -2746.5439    1375.7442    996.48717   -1680.3963    18.387998    23.144019    22.440571           90           90           90 
  382000    274.18597   -144.24317   -113.65732   -144.24317            0   -648.76112    18.083504    23.510387    22.258734            0            0            0    9463.3051   -1750.0664   -39.898373   -156.31859    896.23786   -1151.4396   -832.60549    18.083504    23.510387    22.258734           90           90           90 
  382500    281.96103   -143.43099   -111.97782   -143.43099            0    135.31846      17.8513    23.773465    22.089501            0            0            0    9374.5027    988.96285   -1967.8575      1384.85      326.504     639.3551    670.92102      17.8513    23.773465    22.089501           90           90           90 
  383000    274.29209   -144.18124   -113.58355   -144.18124            0   -1142.2781    17.945268    23.757745    22.176876            0            0            0    9454.8694   -1836.7769   -1076.6947   -513.36268   -396.99236    1179.5457   -837.61917    17.945268    23.757745    22.176876           90           90           90 
  383500    272.01906   -142.23567   -111.89153   -142.23567            0    404.10252     18.15575    23.512481    22.222738            0            0            0     9486.592   -289.51025    838.15725    663.66057    1733.7493   -197.00624   -478.17781     18.15575    23.512481    22.222738           90           90           90 
  384000    262.30751   -144.05456   -114.79376   -144.05456            0    -2235.195    18.250357     23.32241    22.245726            0            0            0    9468.7222   -143.13665   -4884.4228   -1678.0255   -2194.5204   -201.80886   -1797.1177    18.250357     23.32241    22.245726           90           90           90 
  384500    264.68085   -144.71251   -115.18696   -144.71251            0    1860.9137    18.136907    23.221896    22.175903            0            0            0    9339.8998    2497.8848    2151.2944    933.56183     816.9843   -623.23003   -367.73658    18.136907    23.221896    22.175903           90           90           90 
  385000    253.99877    -144.7611   -116.42716    -144.7611            0   -351.27574    18.120047    23.484815    22.224616            0            0            0    9457.5954   -372.94166    -2202.123    1521.2374   -1041.6934   -722.55871    -416.5725    18.120047    23.484815    22.224616           90           90           90 
  385500    265.69554   -146.24651   -116.60777   -146.24651            0   -521.09607    17.967605     23.63804    22.147454            0            0            0    9406.4439    450.68343   -32.162056   -1981.8096   -2130.0894    4.0851365   -669.52446    17.967605     23.63804    22.147454           90           90           90 
  386000    256.29549   -143.58731   -114.99717   -143.58731            0    638.32577    17.943674    23.686777    22.161583            0            0            0    9419.2892   -48.911063    2082.2709    -118.3825    2062.9584    1303.4508    521.67375    17.943674    23.686777    22.161583           90           90           90 
  386500    269.14145   -142.99803    -112.9749   -142.99803            0    456.44948    18.037384    23.474787    22.270398            0            0            0    9429.8155   -372.02713   -228.36108    1969.7366     -827.783    472.24642   -1969.0286    18.037384    23.474787    22.270398           90           90           90 
  387000    261.30298   -143.66957   -114.52082   -143.66957            0   -409.97425    18.242629    23.219846     22.26648            0            0            0    9431.8816    959.14224    55.994693   -2245.0597   -801.41154   -1131.6044    750.21213    18.242629    23.219846     22.26648           90           90           90 
  387500    271.44116    -144.9925   -114.71283    -144.9925            0   -835.23804    18.361872    23.362988    22.205717            0            0            0    9525.9902   -1046.6752   -1188.5405   -270.49843   -375.26601    259.01829   -687.25933    18.361872    23.362988    22.205717           90           90           90 
  388000     255.6991   -144.97213   -116.44851   -144.97213            0    1328.6802    18.076094    23.462902    21.923519            0            0            0    9298.1507    3732.0096   -348.16693    602.19788    1145.7869   -1441.7866    1345.4887    18.076094    23.462902    21.923519           90           90           90 
  388500    248.63301   -144.57525   -116.83987   -144.57525            0    681.63704    17.977449    23.708253     22.18345            0            0            0    9454.8952   -1894.5678   -289.66185    4229.1408   -319.33284   -660.53398    651.64811    17.977449    23.708253     22.18345           90           90           90 
  389000    266.80989   -145.79626   -116.03322   -145.79626            0    967.99313      17.9561    23.607937    22.397482            0            0            0    9494.4375    -414.8011    227.03657    3091.7439   -374.93544   -1140.5065     1014.528      17.9561    23.607937    22.397482           90           90           90 
  389500    257.46016   -145.09124   -116.37117   -145.09124            0    837.51263    18.035413     23.33111    22.223367            0            0            0    9351.2863    3567.1848   -571.18404   -483.46291    2178.7085    -1867.202     280.0639    18.035413     23.33111    22.223367           90           90           90 
  390000    257.10661   -145.92686   -117.24623   -145.92686            0   -444.73609      18.2447    23.443767    22.120903            0            0            0    9461.6526   -3121.2243    2581.4534   -794.43736    127.44864    -1637.059     231.3593      18.2447    23.443767    22.120903           90           90           90 
  390500    257.47439   -143.57824   -114.85659   -143.57824            0   -1450.1102    18.191847     23.48944    22.112227            0            0            0    9448.9155   -3670.5584   -2593.7396    1913.9676   -70.159902   -992.01116   -600.73596    18.191847     23.48944    22.112227           90           90           90 
  391000    266.60895   -143.45925   -113.71862   -143.45925            0    800.78961    18.057752    23.497592    22.235014            0            0            0    9434.6205    423.30153    3877.2718   -1898.2045   -2537.9054    -108.3156    534.45772    18.057752    23.497592    22.235014           90           90           90 
  391500    272.42666   -142.30608   -111.91647   -142.30608            0     -1110.59    18.067181    23.565821    22.395727            0            0            0    9535.3827    484.68085    1036.1043   -4852.5551    1778.0646   -418.75683   -812.78627    18.067181    23.565821    22.395727           90           90           90 
  392000    255.25756   -145.64255   -117.16819   -145.64255            0    530.85998    18.031773    23.439149    22.125624            0            0            0    9351.3818    64.536382   -2855.0359    4383.0795   -535.66365    890.42415   -402.09475    18.031773    23.439149    22.125624           90           90           90 
  392500    253.89609   -145.35874   -117.03625   -145.35874            0    1478.4917    18.170095    23.395947    22.069723            0            0            0    9381.9841    3270.1703    3342.8174   -2177.5128     1087.223    939.00793    27.479114    18.170095    23.395947    22.069723           90           90           90 
  393000    255.16334   -142.59836   -114.13451   -142.59836            0   -1117.0358    18.320954    23.472365    22.228955            0            0            0    9559.2537    770.86583   -2413.1626   -1708.8106   -77.540617    1071.5695    1834.0244    18.320954    23.472365    22.228955           90           90           90 
  393500    284.25845   -143.14916    -111.4397   -143.14916            0    1069.6583    18.072794    23.333135    22.246956            0            0            0    9381.4287    3162.9641    1271.2762   -1225.2654   -1760.6065   -708.57116    -289.0751    18.072794    23.333135    22.246956           90           90           90 
  394000    262.92274   -144.55957   -115.23014   -144.55957            0   -1170.2451    18.023393    23.462368    22.283342            0            0            0    9422.9897   -1116.9326   -1303.4445   -1090.3581     1813.688    349.54731    2141.6843    18.023393    23.462368    22.283342           90           90           90 
  394500    257.92871   -144.51546   -115.74312   -144.51546            0   -725.36952    18.067121    23.611133    22.134068            0            0            0     9442.066      398.431   -1737.4354    -837.1042    1971.9656    552.03418   -1245.0496    18.067121    23.611133    22.134068           90           90           90 
  395000     267.2515   -143.46185   -113.64954   -143.46185            0   -548.46053    18.149035    23.594377    22.049172            0            0            0    9441.7901    207.81567    783.24363   -2636.4409    1972.7429   -1164.8594    478.93953    18.149035    23.594377    22.049172           90           90           90 
  395500    269.54842   -145.35528   -115.28675   -145.35528            0    1775.1313    18.227456    23.515163    22.176172            0            0            0    9505.1864    1597.8606    66.663041    3660.8701    654.25064    386.70118   -833.56481    18.227456    23.515163    22.176172           90           90           90 
  396000    263.98397   -145.72758   -116.27977   -145.72758            0   -137.82549    18.036872    23.272838    22.227205            0            0            0    9330.2962    2140.0665    1364.8733   -3918.4163   -545.11368    515.21477    1320.4887    18.036872    23.272838    22.227205           90           90           90 
  396500    258.59678   -145.54594   -116.69908   -145.54594            0     377.1409    18.005074    23.348617    22.268766            0            0            0    9361.6463    540.56153    760.62645   -169.76527    537.56387    1443.4675    137.41681    18.005074    23.348617    22.268766           90           90           90 
  397000    260.20055   -143.80364   -114.77787   -143.80364            0   -131.83395    18.168634    23.746156    22.316619            0            0            0    9628.1755   -1978.2762    751.51939    831.25496   -799.60548   -1515.1485   -917.74538    18.168634    23.746156    22.316619           90           90           90 
  397500    254.97213   -142.79025   -114.34773   -142.79025            0    1413.8375    17.989535      23.5464    21.961274            0            0            0    9302.5495    3039.0333   -1196.0529     2398.532   -345.94052     2098.915    202.41965    17.989535      23.5464    21.961274           90           90           90 
  398000    259.06898   -144.52931   -115.62978   -144.52931            0   -250.25633    18.104101    23.528354    22.167746            0            0            0    9442.5663   -1842.1184    1005.1148    86.234581    -2864.361    -1699.712    342.23853    18.104101    23.528354    22.167746           90           90           90 
  398500    271.95399   -143.80513   -113.46825   -143.80513            0   -1065.4865    18.143119    23.507041    22.367721            0            0            0    9539.6327    795.91019    -521.6422   -3470.7274   -910.98335    393.62436    2369.5793    18.143119    23.507041    22.367721           90           90           90 
  399000    247.43122   -145.53776   -117.93643   -145.53776            0   -141.06335    18.031069    23.363558    22.223537            0            0            0    9362.1079   -205.00276    1883.5217    -2101.709    140.46233   -255.99914    681.25126    18.031069    23.363558    22.223537           90           90           90 
  399500    262.19318   -144.78663   -115.53858   -144.78663            0    426.28831    18.118577    23.449217    22.231355            0            0            0    9445.3568    335.07559    2453.2139   -1509.4245    1300.9517    1525.3244    1015.9392    18.118577    23.449217    22.231355           90           90           90 
  400000    255.25478   -144.88846   -116.41441   -144.88846            0   -406.11409    18.108712    23.465197    22.116157            0            0            0    9397.6973   -1456.7207    1406.6878   -1168.3094   -733.48282   -1783.7726   -1653.3525    18.108712    23.465197    22.116157           90           90           90 
Loop time of 2129.53 on 1 procs for 400000 steps with 864 atoms

Performance: 8.114 ns/day, 2.958 hours/ns, 187.835 timesteps/s
73.5% CPU use with 1 MPI tasks x 1 OpenMP threads

MPI task timing breakdown:
Section |  min time  |  avg time  |  max time  |%varavg| %total
---------------------------------------------------------------
Pair    | 1859.3     | 1859.3     | 1859.3     |   0.0 | 87.31
Bond    | 0.066215   | 0.066215   | 0.066215   |   0.0 |  0.00
Neigh   | 243.83     | 243.83     | 243.83     |   0.0 | 11.45
Comm    | 8.2205     | 8.2205     | 8.2205     |   0.0 |  0.39
Output  | 1.9367     | 1.9367     | 1.9367     |   0.0 |  0.09
Modify  | 14.609     | 14.609     | 14.609     |   0.0 |  0.69
Other   |            | 1.6        |            |       |  0.08

Nlocal:        864.000 ave         864 max         864 min
Histogram: 1 0 0 0 0 0 0 0 0 0
Nghost:        3724.00 ave        3724 max        3724 min
Histogram: 1 0 0 0 0 0 0 0 0 0
Neighs:         0.00000 ave           0 max           0 min
Histogram: 1 0 0 0 0 0 0 0 0 0
FullNghs:      167360.0 ave      167360 max      167360 min
Histogram: 1 0 0 0 0 0 0 0 0 0

Total # of neighbors = 167360
Ave neighs/atom = 193.70370
Ave special neighs/atom = 0.0000000
Neighbor list builds = 40000
Dangerous builds not checked

unfix		3
unfix		2

write_data	data.final.${pid}
write_data	data.final.0
System init for write_data ...

write_restart   restart.lmp.${pid}
write_restart   restart.lmp.0
System init for write_restart ...
Unloading pair style deepmd
Unloading compute style deepmd
Unloading fix style deepmd
Total wall time: 0:35:32
