LAMMPS data file via MDAnalysis

        2592  atoms
           0  bonds
           0  angles
           0  dihedrals
           0  impropers

           2  atom types
           0  bond types
           0  angle types
           0  dihedral types
           0  improper types

0.000000 31.007999 xlo xhi
0.000000 21.374731 ylo yhi
0.000000 30.960459 zlo zhi
-9.165637 0.962672 -10.296764 xy xz yz


Masses

1 1.008000
2 15.999000

Atoms

1 0 1 0.000000 0.770000 5.463000 13.350000
2 0 2 0.000000 0.343000 4.878000 12.703000
3 0 2 0.000000 0.127000 5.504000 14.058000
4 0 1 0.000000 6.543000 -0.899000 13.431000
5 0 2 0.000000 6.126000 -0.887000 14.263000
6 0 2 0.000000 6.186000 -0.206000 12.923000
7 0 1 0.000000 -0.470000 6.923000 11.585000
8 0 2 0.000000 -0.303000 6.799000 12.540000
9 0 2 0.000000 -1.307000 7.355000 11.446000
10 0 1 0.000000 17.514000 2.995000 14.586000
11 0 2 0.000000 17.235001 2.255000 14.058000
12 0 2 0.000000 18.341999 3.300000 14.233000
13 0 1 0.000000 9.701000 12.911000 13.015000
14 0 2 0.000000 9.237000 13.007000 12.138000
15 0 2 0.000000 9.572000 11.978000 13.308000
16 0 1 0.000000 -5.722000 16.063000 4.958000
17 0 2 0.000000 -6.263000 16.635000 5.499000
18 0 2 0.000000 -4.811000 16.187000 5.256000
19 0 1 0.000000 15.192000 0.531000 13.874000
20 0 2 0.000000 15.609000 0.091000 14.644000
21 0 2 0.000000 14.755000 -0.248000 13.507000
22 0 1 0.000000 17.570999 18.356001 6.623000
23 0 2 0.000000 16.670000 18.660999 6.874000
24 0 2 0.000000 17.931000 18.099001 7.512000
25 0 1 0.000000 1.141000 14.010000 9.853000
26 0 2 0.000000 1.625000 13.669000 9.046000
27 0 2 0.000000 1.712000 14.617000 10.317000
28 0 1 0.000000 9.105000 -0.592000 13.422000
29 0 2 0.000000 8.267000 -0.380000 12.993000
30 0 2 0.000000 9.754000 -0.711000 12.663000
31 0 1 0.000000 15.444000 -3.577000 13.589000
32 0 2 0.000000 16.150999 -2.896000 13.614000
33 0 2 0.000000 14.647000 -3.072000 13.281000
34 0 1 0.000000 -2.842000 13.094000 14.268000
35 0 2 0.000000 -3.501000 13.070000 14.945000
36 0 2 0.000000 -3.011000 13.837000 13.668000
37 0 1 0.000000 24.672001 0.698000 10.869000
38 0 2 0.000000 25.136999 1.135000 10.193000
39 0 2 0.000000 24.809000 -0.302000 10.765000
40 0 1 0.000000 16.455000 -2.314000 9.483000
41 0 2 0.000000 7.280000 18.430000 8.729000
42 0 2 0.000000 17.056000 -2.832000 10.038000
43 0 1 0.000000 22.149000 8.265000 5.749000
44 0 2 0.000000 22.216999 8.026000 6.677000
45 0 2 0.000000 21.638000 9.102000 5.800000
46 0 1 0.000000 11.212000 12.703000 9.524000
47 0 2 0.000000 11.166000 12.013000 10.208000
48 0 2 0.000000 11.080000 13.567000 9.882000
49 0 1 0.000000 -0.211000 -0.615000 4.507000
50 0 2 0.000000 0.100000 0.075000 5.113000
51 0 2 0.000000 30.556000 -0.140000 3.698000
52 0 1 0.000000 3.499000 8.460000 7.509000
53 0 2 0.000000 3.064000 8.827000 6.711000
54 0 2 0.000000 4.396000 8.737000 7.341000
55 0 1 0.000000 2.308000 6.798000 10.872000
56 0 2 0.000000 1.375000 6.842000 11.108000
57 0 2 0.000000 2.550000 7.724000 10.701000
58 0 1 0.000000 -2.973000 7.613000 10.347000
59 0 2 0.000000 -3.452000 6.760000 10.347000
60 0 2 0.000000 -2.848000 7.872000 9.417000
61 0 1 0.000000 5.857000 4.217000 10.859000
62 0 2 0.000000 5.591000 3.629000 10.104000
63 0 2 0.000000 6.705000 3.883000 11.162000
64 0 1 0.000000 6.927000 4.097000 14.269000
65 0 2 0.000000 6.087000 3.556000 14.167000
66 0 2 0.000000 6.749000 4.628000 15.034000
67 0 1 0.000000 22.195000 -0.462000 5.162000
68 0 2 0.000000 22.959999 -1.046000 4.988000
69 0 2 0.000000 21.968000 -0.220000 4.240000
70 0 1 0.000000 9.870000 2.358000 9.904000
71 0 2 0.000000 10.443000 1.944000 9.181000
72 0 2 0.000000 8.942000 2.366000 9.480000
73 0 1 0.000000 -1.158000 1.447000 7.106000
74 0 2 0.000000 -0.243000 1.466000 6.870000
75 0 2 0.000000 -1.325000 2.193000 7.738000
76 0 1 0.000000 17.570999 7.663000 10.599000
77 0 2 0.000000 16.788000 8.154000 10.960000
78 0 2 0.000000 17.667000 6.893000 11.078000
79 0 1 0.000000 10.195000 14.253000 4.956000
80 0 2 0.000000 10.621000 13.844000 5.770000
81 0 2 0.000000 10.165000 15.210000 5.034000
82 0 1 0.000000 -1.587000 14.009000 9.022000
83 0 2 0.000000 -0.704000 13.999000 9.418000
84 0 2 0.000000 -2.094000 13.313000 9.537000
85 0 1 0.000000 14.416000 17.542999 7.434000
86 0 2 0.000000 13.497000 17.323999 7.670000
87 0 2 0.000000 14.358000 18.028999 6.628000
88 0 1 0.000000 6.366000 7.298000 0.606000
89 0 2 0.000000 5.751000 8.074000 0.503000
90 0 2 0.000000 8.005000 -2.974000 30.882000
91 0 1 0.000000 1.742000 16.444000 2.765000
92 0 2 0.000000 1.251000 16.499001 3.582000
93 0 2 0.000000 2.135000 15.574000 2.652000
94 0 1 0.000000 8.396000 -0.600000 9.877000
95 0 2 0.000000 8.121000 0.179000 10.382000
96 0 2 0.000000 7.733000 -1.217000 10.272000
97 0 1 0.000000 0.539000 16.923000 5.156000
98 0 2 0.000000 0.786000 16.197001 5.656000
99 0 2 0.000000 0.923000 17.681999 5.644000
100 0 1 0.000000 14.014000 19.355000 1.637000
101 0 2 0.000000 13.769000 20.319000 1.640000
102 0 2 0.000000 14.942000 19.295000 1.317000
103 0 1 0.000000 5.695000 6.111000 5.755000
104 0 2 0.000000 4.829000 5.919000 5.428000
105 0 2 0.000000 5.776000 5.485000 6.536000
106 0 1 0.000000 20.787001 12.513000 13.602000
107 0 2 0.000000 20.117001 11.871000 13.986000
108 0 2 0.000000 21.287001 12.897000 14.305000
109 0 1 0.000000 -5.595000 13.144000 10.199000
110 0 2 0.000000 -5.354000 13.297000 11.117000
111 0 2 0.000000 -4.933000 12.576000 9.731000
112 0 1 0.000000 -2.968000 10.561000 14.038000
113 0 2 0.000000 -3.830000 10.217000 14.378000
114 0 2 0.000000 -3.009000 11.518000 14.185000
115 0 1 0.000000 15.848000 8.959000 7.151000
116 0 2 0.000000 15.794000 9.798000 6.665000
117 0 2 0.000000 16.646999 8.456000 6.824000
118 0 1 0.000000 19.615999 14.639000 8.315000
119 0 2 0.000000 18.924000 13.967000 8.461000
120 0 2 0.000000 19.992001 14.467000 7.414000
121 0 1 0.000000 3.508000 4.857000 30.337000
122 0 2 0.000000 2.501000 15.121000 0.374000
123 0 2 0.000000 3.927000 4.029000 30.110001
124 0 1 0.000000 8.281000 3.794000 12.103000
125 0 2 0.000000 9.250000 3.723000 12.066000
126 0 2 0.000000 8.029000 3.903000 13.030000
127 0 1 0.000000 13.333000 4.276000 16.156000
128 0 2 0.000000 13.327000 4.805000 16.968000
129 0 2 0.000000 13.453000 4.928000 15.437000
130 0 1 0.000000 18.030001 1.199000 11.690000
131 0 2 0.000000 17.830000 1.522000 10.815000
132 0 2 0.000000 17.264999 1.192000 12.201000
133 0 1 0.000000 19.854000 2.570000 13.300000
134 0 2 0.000000 19.653999 1.931000 12.657000
135 0 2 0.000000 20.728001 2.222000 13.564000
136 0 1 0.000000 7.893000 0.967000 3.560000
137 0 2 0.000000 7.450000 1.380000 4.312000
138 0 2 0.000000 8.830000 1.368000 3.692000
139 0 1 0.000000 15.702000 9.753000 9.730000
140 0 2 0.000000 15.122000 10.480000 9.437000
141 0 2 0.000000 16.143000 9.509000 8.913000
142 0 1 0.000000 22.959999 -0.585000 15.865000
143 0 2 0.000000 22.034000 -0.294000 15.791000
144 0 2 0.000000 23.223000 -0.149000 16.666000
145 0 1 0.000000 20.430000 15.607000 13.322000
146 0 2 0.000000 20.945000 16.069000 12.635000
147 0 2 0.000000 20.235001 14.793000 12.948000
148 0 1 0.000000 -0.558000 15.465000 11.920000
149 0 2 0.000000 -0.255000 16.351999 11.988000
150 0 2 0.000000 -0.485000 14.972000 12.757000
151 0 1 0.000000 -1.211000 3.725000 15.036000
152 0 2 0.000000 -0.897000 3.611000 14.145000
153 0 2 0.000000 -1.934000 4.395000 14.962000
154 0 1 0.000000 27.930000 -0.828000 5.252000
155 0 2 0.000000 28.872000 -0.839000 5.486000
156 0 2 0.000000 27.565001 -1.618000 5.680000
157 0 1 0.000000 23.900000 -2.123000 10.823000
158 0 2 0.000000 23.860001 -2.384000 11.758000
159 0 2 0.000000 24.250000 -2.865000 10.364000
160 0 1 0.000000 4.407000 0.607000 12.042000
161 0 2 0.000000 3.448000 0.318000 11.966000
162 0 2 0.000000 4.339000 1.260000 12.781000
163 0 1 0.000000 2.849000 11.009000 15.952000
164 0 2 0.000000 2.603000 11.925000 16.018999
165 0 2 0.000000 2.569000 10.646000 15.104000
166 0 1 0.000000 0.208000 5.797000 2.415000
167 0 2 0.000000 -0.017000 5.724000 1.489000
168 0 2 0.000000 -0.317000 5.130000 2.894000
169 0 1 0.000000 20.716999 -2.274000 7.288000
170 0 2 0.000000 21.642000 -2.118000 7.474000
171 0 2 0.000000 11.399000 18.149000 7.359000
172 0 1 0.000000 8.450000 11.329000 7.676000
173 0 2 0.000000 8.881000 11.231000 6.798000
174 0 2 0.000000 8.538000 12.291000 7.834000
175 0 1 0.000000 18.469000 1.431000 3.114000
176 0 2 0.000000 18.240999 2.239000 3.606000
177 0 2 0.000000 17.867001 0.751000 3.449000
178 0 1 0.000000 1.964000 9.959000 13.687000
179 0 2 0.000000 2.740000 10.316000 13.291000
180 0 2 0.000000 1.161000 10.125000 13.138000
181 0 1 0.000000 4.567000 2.947000 13.663000
182 0 2 0.000000 4.406000 3.870000 13.391000
183 0 2 0.000000 4.079000 2.803000 14.421000
184 0 1 0.000000 2.794000 -0.264000 2.831000
185 0 2 0.000000 2.612000 -0.491000 1.905000
186 0 2 0.000000 3.584000 -0.692000 3.049000
187 0 1 0.000000 11.981000 10.031000 7.139000
188 0 2 0.000000 11.342000 9.401000 7.474000
189 0 2 0.000000 12.259000 9.612000 6.261000
190 0 1 0.000000 27.652000 3.823000 11.850000
191 0 2 0.000000 27.525999 2.898000 11.570000
192 0 2 0.000000 27.580999 3.792000 12.854000
193 0 1 0.000000 23.226000 3.358000 10.558000
194 0 2 0.000000 22.660999 3.577000 11.291000
195 0 2 0.000000 22.989000 4.112000 9.965000
196 0 1 0.000000 -3.483000 5.972000 16.955000
197 0 2 0.000000 -4.099000 6.724000 16.993000
198 0 2 0.000000 -2.702000 6.275000 17.403000
199 0 1 0.000000 -5.835000 16.066000 11.601000
200 0 2 0.000000 -5.860000 15.940000 10.664000
201 0 2 0.000000 -6.529000 15.579000 12.019000
202 0 1 0.000000 5.924000 0.097000 1.820000
203 0 2 0.000000 6.043000 0.085000 0.896000
204 0 2 0.000000 4.984000 -0.060000 1.985000
205 0 1 0.000000 5.127000 17.159000 10.236000
206 0 2 0.000000 14.727000 -3.400000 10.604000
207 0 2 0.000000 4.405000 16.906000 10.736000
208 0 1 0.000000 19.698000 16.764000 4.758000
209 0 2 0.000000 19.892000 15.837000 5.079000
210 0 2 0.000000 20.381001 17.007000 4.033000
211 0 1 0.000000 3.920000 -2.585000 12.207000
212 0 2 0.000000 4.719000 -2.596000 11.681000
213 0 2 0.000000 3.622000 -3.512000 12.100000
214 0 1 0.000000 1.065000 12.733000 3.496000
215 0 2 0.000000 1.340000 12.016000 2.877000
216 0 2 0.000000 0.251000 13.112000 3.129000
217 0 1 0.000000 3.608000 5.227000 4.619000
218 0 2 0.000000 3.319000 4.476000 5.105000
219 0 2 0.000000 2.880000 5.395000 3.972000
220 0 1 0.000000 21.174999 10.786000 5.467000
221 0 2 0.000000 21.997000 11.188000 5.706000
222 0 2 0.000000 20.542999 11.229000 6.097000
223 0 1 0.000000 23.160999 12.190000 6.919000
224 0 2 0.000000 23.974001 12.637000 6.542000
225 0 2 0.000000 23.171000 12.536000 7.818000
226 0 1 0.000000 24.992001 4.859000 13.019000
227 0 2 0.000000 25.274000 3.922000 12.925000
228 0 2 0.000000 24.487000 5.105000 12.278000
229 0 1 0.000000 9.646000 5.992000 4.782000
230 0 2 0.000000 9.237000 6.778000 4.486000
231 0 2 0.000000 8.991000 5.534000 5.373000
232 0 1 0.000000 2.334000 -2.030000 9.611000
233 0 2 0.000000 3.301000 -2.062000 9.577000
234 0 2 0.000000 1.984000 -2.757000 9.036000
235 0 1 0.000000 8.680000 13.479000 2.758000
236 0 2 0.000000 8.919000 13.849000 3.583000
237 0 2 0.000000 9.061000 12.594000 2.779000
238 0 1 0.000000 16.278999 15.622000 2.134000
239 0 2 0.000000 15.718000 15.478000 2.890000
240 0 2 0.000000 16.684000 14.704000 2.042000
241 0 1 0.000000 -4.339000 4.891000 30.153999
242 0 2 0.000000 -4.850000 15.004000 0.016000
243 0 2 0.000000 -3.861000 5.014000 29.375999
244 0 1 0.000000 4.758000 -0.992000 9.580000
245 0 2 0.000000 5.383000 -1.642000 9.816000
246 0 2 0.000000 4.741000 -0.340000 10.273000
247 0 1 0.000000 9.698000 16.584999 7.572000
248 0 2 0.000000 9.306000 16.952999 6.782000
249 0 2 0.000000 9.436000 17.159000 8.329000
250 0 1 0.000000 23.197001 5.061000 6.412000
251 0 2 0.000000 23.920000 5.574000 6.826000
252 0 2 0.000000 23.622999 4.356000 5.853000
253 0 1 0.000000 -7.466000 19.118999 3.605000
254 0 2 0.000000 -6.759000 19.322001 2.935000
255 0 2 0.000000 -8.036000 19.909000 3.656000
256 0 1 0.000000 -4.213000 19.591000 3.090000
257 0 2 0.000000 -4.276000 18.724001 2.689000
258 0 2 0.000000 -3.317000 19.632999 3.554000
259 0 1 0.000000 27.716000 -2.378000 11.430000
260 0 2 0.000000 28.615999 -2.183000 11.220000
261 0 2 0.000000 27.811001 -2.870000 12.244000
262 0 1 0.000000 12.316000 16.134001 8.025000
263 0 2 0.000000 12.300000 16.003000 8.972000
264 0 2 0.000000 11.310000 16.117001 7.808000
265 0 1 0.000000 19.493999 19.264000 2.564000
266 0 2 0.000000 19.381001 19.764000 3.409000
267 0 2 0.000000 18.908001 18.500999 2.677000
268 0 1 0.000000 15.546000 7.088000 3.923000
269 0 2 0.000000 15.092000 7.865000 3.574000
270 0 2 0.000000 14.788000 6.456000 3.881000
271 0 1 0.000000 1.840000 0.320000 8.753000
272 0 2 0.000000 1.838000 -0.606000 8.942000
273 0 2 0.000000 2.720000 0.540000 9.050000
274 0 1 0.000000 -7.272000 17.965000 6.263000
275 0 2 0.000000 -7.069000 18.556000 5.519000
276 0 2 0.000000 -8.212000 17.874001 6.370000
277 0 1 0.000000 20.882999 14.515000 2.360000
278 0 2 0.000000 20.584000 13.672000 2.694000
279 0 2 0.000000 21.596001 14.910000 2.918000
280 0 1 0.000000 16.559999 9.383000 14.145000
281 0 2 0.000000 17.504999 9.243000 14.165000
282 0 2 0.000000 16.327000 8.794000 14.862000
283 0 1 0.000000 -4.710000 17.951000 7.763000
284 0 2 0.000000 -5.465000 18.407000 7.369000
285 0 2 0.000000 -5.013000 17.052000 7.803000
286 0 1 0.000000 2.013000 9.190000 5.338000
287 0 2 0.000000 1.658000 8.589000 4.615000
288 0 2 0.000000 1.204000 9.753000 5.518000
289 0 1 0.000000 10.959000 18.414000 3.503000
290 0 2 0.000000 10.961000 19.285000 4.107000
291 0 2 0.000000 11.852000 18.146000 3.311000
292 0 1 0.000000 18.461000 5.406000 11.964000
293 0 2 0.000000 17.671000 4.871000 12.133000
294 0 2 0.000000 18.882000 5.568000 12.779000
295 0 1 0.000000 2.169000 16.038000 7.705000
296 0 2 0.000000 2.347000 15.833000 8.595000
297 0 2 0.000000 2.545000 15.453000 7.054000
298 0 1 0.000000 8.861000 18.420000 1.902000
299 0 2 0.000000 9.740000 18.131001 2.232000
300 0 2 0.000000 8.143000 17.914000 2.289000
301 0 1 0.000000 10.585000 4.345000 14.075000
302 0 2 0.000000 10.909000 3.435000 14.205000
303 0 2 0.000000 11.358000 4.889000 13.920000
304 0 1 0.000000 2.868000 1.900000 3.867000
305 0 2 0.000000 2.870000 1.240000 3.138000
306 0 2 0.000000 3.513000 1.653000 4.554000
307 0 1 0.000000 -0.465000 3.557000 11.694000
308 0 2 0.000000 -1.367000 3.718000 11.901000
309 0 2 0.000000 -0.100000 2.909000 12.291000
310 0 1 0.000000 16.778000 19.089001 1.699000
311 0 2 0.000000 17.205000 18.511999 2.368000
312 0 2 0.000000 17.356001 19.790001 1.442000
313 0 1 0.000000 -3.893000 9.409000 1.184000
314 0 2 0.000000 26.451000 9.134000 1.780000
315 0 2 0.000000 -3.293000 8.605000 1.094000
316 0 1 0.000000 3.810000 -0.976000 5.425000
317 0 2 0.000000 2.902000 -0.757000 5.445000
318 0 2 0.000000 4.189000 -1.310000 4.614000
319 0 1 0.000000 7.206000 6.780000 8.835000
320 0 2 0.000000 7.457000 6.456000 9.720000
321 0 2 0.000000 6.330000 6.408000 8.722000
322 0 1 0.000000 26.018000 4.138000 3.564000
323 0 2 0.000000 25.315001 3.727000 4.009000
324 0 2 0.000000 25.841000 5.104000 3.718000
325 0 1 0.000000 0.363000 11.991000 11.885000
326 0 2 0.000000 0.939000 12.463000 11.212000
327 0 2 0.000000 -0.635000 12.082000 11.626000
328 0 1 0.000000 -5.011000 11.882000 15.743000
329 0 2 0.000000 -5.830000 11.874000 15.211000
330 0 2 0.000000 -5.235000 12.103000 16.643999
331 0 1 0.000000 9.474000 17.313999 10.174000
332 0 2 0.000000 8.814000 16.802999 10.541000
333 0 2 0.000000 19.108999 -3.544000 10.821000
334 0 1 0.000000 8.472000 11.513000 4.870000
335 0 2 0.000000 8.383000 10.568000 5.048000
336 0 2 0.000000 9.366000 11.560000 4.539000
337 0 1 0.000000 20.740000 14.077000 10.711000
338 0 2 0.000000 20.452000 14.261000 9.792000
339 0 2 0.000000 19.989000 13.729000 11.200000
340 0 1 0.000000 4.245000 12.529000 14.015000
341 0 2 0.000000 4.575000 11.681000 14.261000
342 0 2 0.000000 3.411000 12.638000 14.480000
343 0 1 0.000000 2.703000 5.748000 2.370000
344 0 2 0.000000 1.738000 5.813000 2.219000
345 0 2 0.000000 2.963000 5.554000 1.477000
346 0 1 0.000000 14.171000 -1.506000 12.026000
347 0 2 0.000000 13.230000 -1.816000 12.148000
348 0 2 0.000000 14.015000 -0.953000 11.206000
349 0 1 0.000000 18.969999 11.363000 6.968000
350 0 2 0.000000 19.009001 11.738000 7.841000
351 0 2 0.000000 18.421000 11.991000 6.421000
352 0 1 0.000000 27.701000 2.321000 5.240000
353 0 2 0.000000 27.033001 2.939000 5.582000
354 0 2 0.000000 28.410999 2.155000 5.893000
355 0 1 0.000000 6.708000 11.088000 2.534000
356 0 2 0.000000 7.078000 11.515000 3.259000
357 0 2 0.000000 6.578000 10.179000 2.882000
358 0 1 0.000000 6.988000 1.205000 11.535000
359 0 2 0.000000 7.467000 1.987000 11.871000
360 0 2 0.000000 6.097000 1.518000 11.446000
361 0 1 0.000000 22.041000 -0.844000 13.559000
362 0 2 0.000000 21.945000 -1.798000 13.495000
363 0 2 0.000000 22.844000 -0.681000 14.035000
364 0 1 0.000000 -1.662000 19.385000 4.209000
365 0 2 0.000000 7.747000 -1.063000 4.220000
366 0 2 0.000000 -1.527000 19.134001 5.138000
367 0 1 0.000000 20.653000 14.338000 5.697000
368 0 2 0.000000 20.216000 13.647000 5.204000
369 0 2 0.000000 21.583000 14.384000 5.323000
370 0 1 0.000000 1.357000 16.546000 14.337000
371 0 2 0.000000 11.469000 -4.651000 14.138000
372 0 2 0.000000 1.246000 15.688000 13.975000
373 0 1 0.000000 24.632000 -2.699000 16.531000
374 0 2 0.000000 24.577000 -2.440000 17.431999
375 0 2 0.000000 24.188999 -1.999000 16.070000
376 0 1 0.000000 7.200000 2.789000 5.619000
377 0 2 0.000000 6.183000 2.597000 5.815000
378 0 2 0.000000 7.391000 3.368000 6.349000
379 0 1 0.000000 8.621000 6.355000 11.159000
380 0 2 0.000000 8.921000 6.919000 11.856000
381 0 2 0.000000 8.514000 5.446000 11.539000
382 0 1 0.000000 14.491000 -0.370000 9.359000
383 0 2 0.000000 14.628000 0.525000 9.755000
384 0 2 0.000000 15.385000 -0.742000 9.555000
385 0 1 0.000000 -1.779000 8.585000 5.599000
386 0 2 0.000000 -1.488000 9.312000 5.041000
387 0 2 0.000000 -1.177000 8.606000 6.409000
388 0 1 0.000000 13.099000 8.420000 9.959000
389 0 2 0.000000 12.981000 8.000000 9.071000
390 0 2 0.000000 14.018000 8.510000 10.001000
391 0 1 0.000000 1.546000 0.887000 6.212000
392 0 2 0.000000 1.854000 1.785000 6.009000
393 0 2 0.000000 1.820000 0.679000 7.079000
394 0 1 0.000000 18.402000 8.192000 1.235000
395 0 2 0.000000 19.281000 7.791000 1.282000
396 0 2 0.000000 18.073999 7.658000 0.498000
397 0 1 0.000000 27.514000 1.110000 2.684000
398 0 2 0.000000 27.664000 1.611000 3.532000
399 0 2 0.000000 26.754999 0.554000 2.690000
400 0 1 0.000000 8.214000 -0.123000 7.128000
401 0 2 0.000000 8.168000 -0.362000 8.076000
402 0 2 0.000000 7.236000 -0.186000 6.905000
403 0 1 0.000000 0.527000 8.457000 3.009000
404 0 2 0.000000 0.217000 7.565000 3.005000
405 0 2 0.000000 -0.252000 9.081000 3.065000
406 0 1 0.000000 14.189000 15.018000 3.788000
407 0 2 0.000000 14.064000 14.932000 4.727000
408 0 2 0.000000 13.527000 14.507000 3.254000
409 0 1 0.000000 18.660999 15.159000 0.503000
410 0 2 0.000000 20.162001 4.539000 30.747999
411 0 2 0.000000 19.297001 15.226000 1.204000
412 0 1 0.000000 16.978001 5.449000 5.741000
413 0 2 0.000000 16.576000 6.191000 5.290000
414 0 2 0.000000 17.023001 5.675000 6.733000
415 0 1 0.000000 -1.729000 10.205000 3.202000
416 0 2 0.000000 -1.625000 10.963000 2.644000
417 0 2 0.000000 -2.260000 9.559000 2.621000
418 0 1 0.000000 1.226000 2.891000 9.548000
419 0 2 0.000000 0.487000 3.374000 10.000000
420 0 2 0.000000 1.110000 1.933000 9.663000
421 0 1 0.000000 30.146000 0.805000 2.149000
422 0 2 0.000000 -0.349000 1.610000 2.373000
423 0 2 0.000000 29.195999 0.918000 2.251000
424 0 1 0.000000 17.132999 13.277000 1.641000
425 0 2 0.000000 16.396999 13.290000 0.949000
426 0 2 0.000000 17.868000 13.649000 1.209000
427 0 1 0.000000 17.559000 11.414000 10.958000
428 0 2 0.000000 16.860001 10.971000 10.414000
429 0 2 0.000000 18.260000 11.697000 10.403000
430 0 1 0.000000 9.484000 16.886999 5.114000
431 0 2 0.000000 9.977000 17.301001 4.427000
432 0 2 0.000000 8.572000 16.774000 4.823000
433 0 1 0.000000 23.139999 15.740000 1.261000
434 0 2 0.000000 23.181999 15.724000 0.284000
435 0 2 0.000000 22.219000 15.618000 1.425000
436 0 1 0.000000 19.280001 -4.401000 14.685000
437 0 2 0.000000 18.795000 -3.951000 14.023000
438 0 2 0.000000 18.681999 -4.347000 15.391000
439 0 1 0.000000 -2.249000 12.239000 11.061000
440 0 2 0.000000 -2.911000 11.532000 11.154000
441 0 2 0.000000 -2.658000 12.955000 11.455000
442 0 1 0.000000 26.333000 3.901000 7.251000
443 0 2 0.000000 25.629999 3.222000 7.452000
444 0 2 0.000000 25.868000 4.793000 7.308000
445 0 1 0.000000 2.919000 1.198000 14.714000
446 0 2 0.000000 3.405000 0.450000 15.054000
447 0 2 0.000000 1.993000 0.949000 14.937000
448 0 1 0.000000 4.009000 15.453000 13.540000
449 0 2 0.000000 4.325000 14.538000 13.764000
450 0 2 0.000000 4.763000 16.061001 13.643000
451 0 1 0.000000 14.414000 11.944000 2.066000
452 0 2 0.000000 14.026000 12.778000 1.748000
453 0 2 0.000000 14.838000 12.047000 2.924000
454 0 1 0.000000 0.088000 7.274000 7.453000
455 0 2 0.000000 0.798000 7.851000 7.621000
456 0 2 0.000000 0.188000 6.657000 6.726000
457 0 1 0.000000 6.477000 1.536000 14.671000
458 0 2 0.000000 5.922000 0.914000 15.113000
459 0 2 0.000000 5.993000 1.836000 13.938000
460 0 1 0.000000 10.126000 12.010000 16.545000
461 0 2 0.000000 10.626000 12.558000 17.165001
462 0 2 0.000000 9.583000 12.633000 16.023001
463 0 1 0.000000 18.150000 13.457000 14.949000
464 0 2 0.000000 18.042999 13.517000 13.978000
465 0 2 0.000000 19.007999 13.852000 15.136000
466 0 1 0.000000 21.499001 0.976000 11.338000
467 0 2 0.000000 22.318001 1.346000 11.028000
468 0 2 0.000000 21.767000 0.303000 11.993000
469 0 1 0.000000 -3.180000 14.742000 12.162000
470 0 2 0.000000 -3.982000 15.239000 12.082000
471 0 2 0.000000 -2.445000 15.294000 11.832000
472 0 1 0.000000 21.039000 17.663000 6.997000
473 0 2 0.000000 20.353001 17.325001 6.338000
474 0 2 0.000000 20.646000 18.183001 7.664000
475 0 1 0.000000 10.792000 16.157000 2.142000
476 0 2 0.000000 11.375000 15.411000 2.037000
477 0 2 0.000000 11.308000 16.874001 2.514000
478 0 1 0.000000 -2.301000 5.677000 6.599000
479 0 2 0.000000 27.801001 5.384000 6.499000
480 0 2 0.000000 -2.244000 6.444000 6.067000
481 0 1 0.000000 25.194000 2.200000 13.001000
482 0 2 0.000000 24.792000 1.760000 12.231000
483 0 2 0.000000 25.742001 1.515000 13.286000
484 0 1 0.000000 -0.824000 0.518000 11.910000
485 0 2 0.000000 -1.148000 0.248000 12.797000
486 0 2 0.000000 -1.656000 0.928000 11.612000
487 0 1 0.000000 22.965000 5.937000 14.432000
488 0 2 0.000000 23.782000 5.386000 14.236000
489 0 2 0.000000 23.257999 6.618000 15.014000
490 0 1 0.000000 13.583000 14.368000 6.426000
491 0 2 0.000000 13.027000 13.618000 6.597000
492 0 2 0.000000 13.126000 15.075000 6.971000
493 0 1 0.000000 6.981000 4.779000 3.567000
494 0 2 0.000000 7.161000 4.071000 4.175000
495 0 2 0.000000 6.733000 5.424000 4.218000
496 0 1 0.000000 -2.150000 17.948000 6.722000
497 0 2 0.000000 -3.059000 18.038000 7.000000
498 0 2 0.000000 -2.181000 17.375000 5.945000
499 0 1 0.000000 24.231001 7.746000 4.116000
500 0 2 0.000000 23.896000 7.107000 3.509000
501 0 2 0.000000 23.542999 7.873000 4.794000
502 0 1 0.000000 -2.126000 4.213000 2.891000
503 0 2 0.000000 28.028999 4.191000 3.408000
504 0 2 0.000000 -1.588000 3.484000 3.265000
505 0 1 0.000000 16.601999 -4.239000 15.510000
506 0 2 0.000000 16.275000 -4.796000 14.762000
507 0 2 0.000000 16.813999 -3.392000 15.053000
508 0 1 0.000000 6.361000 6.804000 13.853000
509 0 2 0.000000 5.823000 6.893000 13.082000
510 0 2 0.000000 6.677000 5.891000 13.827000
511 0 1 0.000000 -1.312000 -2.216000 29.968000
512 0 2 0.000000 -1.194000 -1.301000 29.728001
513 0 2 0.000000 -0.817000 -2.739000 29.296000
514 0 1 0.000000 -5.683000 14.184000 1.371000
515 0 2 0.000000 24.422001 14.535000 1.173000
516 0 2 0.000000 -5.715000 14.041000 2.313000
517 0 1 0.000000 10.603000 7.922000 2.456000
518 0 2 0.000000 11.255000 7.389000 2.032000
519 0 2 0.000000 9.675000 7.669000 2.240000
520 0 1 0.000000 -7.133000 18.056999 1.167000
521 0 2 0.000000 -7.724000 18.568001 1.788000
522 0 2 0.000000 -7.344000 17.070999 1.351000
523 0 1 0.000000 12.260000 2.177000 2.030000
524 0 2 0.000000 13.085000 1.824000 1.761000
525 0 2 0.000000 12.464000 2.772000 2.763000
526 0 1 0.000000 27.011999 6.731000 4.098000
527 0 2 0.000000 26.253000 7.218000 4.377000
528 0 2 0.000000 -3.258000 7.354000 4.354000
529 0 1 0.000000 -0.439000 -0.897000 14.762000
530 0 2 0.000000 0.262000 -1.287000 15.291000
531 0 2 0.000000 -1.120000 -0.479000 15.322000
532 0 1 0.000000 22.084999 5.371000 8.854000
533 0 2 0.000000 22.250999 5.060000 7.986000
534 0 2 0.000000 21.337999 4.851000 9.268000
535 0 1 0.000000 23.056000 14.384000 4.349000
536 0 2 0.000000 23.865999 14.899000 4.431000
537 0 2 0.000000 23.191999 13.553000 3.856000
538 0 1 0.000000 11.385000 19.254000 1.465000
539 0 2 0.000000 10.817000 19.861000 1.010000
540 0 2 0.000000 12.305000 19.524000 1.301000
541 0 1 0.000000 3.061000 14.467000 1.890000
542 0 2 0.000000 3.890000 14.584000 1.369000
543 0 2 0.000000 3.262000 13.734000 2.470000
544 0 1 0.000000 6.527000 -2.612000 11.102000
545 0 2 0.000000 6.875000 -2.564000 11.998000
546 0 2 0.000000 6.814000 -3.396000 10.618000
547 0 1 0.000000 7.342000 2.424000 8.522000
548 0 2 0.000000 7.433000 3.368000 8.194000
549 0 2 0.000000 7.713000 1.808000 7.834000
550 0 1 0.000000 -5.811000 13.324000 13.170000
551 0 2 0.000000 -5.733000 14.120000 13.698000
552 0 2 0.000000 -6.168000 12.606000 13.667000
553 0 1 0.000000 0.478000 17.591000 10.968000
554 0 2 0.000000 -0.121000 17.568001 10.198000
555 0 2 0.000000 9.559000 -2.871000 11.319000
556 0 1 0.000000 2.091000 10.844000 2.091000
557 0 2 0.000000 3.051000 11.073000 2.156000
558 0 2 0.000000 1.969000 9.940000 2.343000
559 0 1 0.000000 4.612000 9.307000 0.129000
560 0 2 0.000000 4.175000 9.142000 0.964000
561 0 2 0.000000 4.967000 -1.287000 30.398001
562 0 1 0.000000 -0.829000 3.201000 0.686000
563 0 2 0.000000 -1.007000 3.364000 1.605000
564 0 2 0.000000 29.933001 2.281000 0.493000
565 0 1 0.000000 21.754000 17.396000 11.492000
566 0 2 0.000000 31.016001 -3.082000 11.085000
567 0 2 0.000000 -8.417000 17.195000 11.837000
568 0 1 0.000000 9.167000 2.353000 1.291000
569 0 2 0.000000 10.013000 2.122000 1.717000
570 0 2 0.000000 8.490000 2.306000 2.013000
571 0 1 0.000000 4.133000 17.669001 4.282000
572 0 2 0.000000 3.369000 17.360001 3.784000
573 0 2 0.000000 3.943000 18.622999 4.569000
574 0 1 0.000000 16.146000 16.972000 9.882000
575 0 2 0.000000 16.912001 16.875000 9.240000
576 0 2 0.000000 15.537000 16.319000 9.547000
577 0 1 0.000000 3.436000 8.281000 2.114000
578 0 2 0.000000 2.936000 7.396000 2.149000
579 0 2 0.000000 4.201000 8.216000 2.702000
580 0 1 0.000000 24.605000 -0.912000 7.514000
581 0 2 0.000000 23.740000 -0.840000 7.810000
582 0 2 0.000000 24.788000 -0.368000 6.725000
583 0 1 0.000000 5.716000 8.392000 3.824000
584 0 2 0.000000 6.438000 7.807000 3.520000
585 0 2 0.000000 5.484000 8.079000 4.700000
586 0 1 0.000000 8.307000 8.911000 5.344000
587 0 2 0.000000 9.126000 8.680000 5.800000
588 0 2 0.000000 7.646000 8.713000 5.971000
589 0 1 0.000000 6.404000 17.395000 2.650000
590 0 2 0.000000 5.703000 17.426001 3.329000
591 0 2 0.000000 6.215000 16.518000 2.221000
592 0 1 0.000000 23.662001 11.416000 14.452000
593 0 2 0.000000 22.778999 11.016000 14.360000
594 0 2 0.000000 24.194000 10.729000 14.060000
595 0 1 0.000000 20.681000 6.885000 1.916000
596 0 2 0.000000 21.180000 7.629000 2.278000
597 0 2 0.000000 20.243000 6.539000 2.647000
598 0 1 0.000000 3.283000 11.801000 11.560000
599 0 2 0.000000 3.573000 12.346000 10.815000
600 0 2 0.000000 3.964000 11.944000 12.239000
601 0 1 0.000000 12.465000 12.652000 13.035000
602 0 2 0.000000 11.546000 12.611000 12.694000
603 0 2 0.000000 13.023000 12.142000 12.465000
604 0 1 0.000000 10.751000 10.556000 3.205000
605 0 2 0.000000 11.581000 10.578000 3.659000
606 0 2 0.000000 10.574000 9.598000 3.067000
607 0 1 0.000000 18.830000 -1.595000 11.808000
608 0 2 0.000000 18.403999 -0.706000 11.775000
609 0 2 0.000000 19.726999 -1.577000 11.432000
610 0 1 0.000000 20.934000 -0.060000 2.794000
611 0 2 0.000000 20.149000 0.399000 3.065000
612 0 2 0.000000 11.546000 20.663000 2.132000
613 0 1 0.000000 20.707001 6.239000 4.467000
614 0 2 0.000000 21.117001 5.391000 4.736000
615 0 2 0.000000 21.254999 6.922000 4.939000
616 0 1 0.000000 18.517000 4.160000 3.821000
617 0 2 0.000000 17.927999 4.367000 4.560000
618 0 2 0.000000 19.417999 4.249000 4.230000
619 0 1 0.000000 14.370000 11.611000 11.603000
620 0 2 0.000000 15.237000 12.051000 11.621000
621 0 2 0.000000 14.602000 10.695000 11.716000
622 0 1 0.000000 16.594999 -1.613000 5.670000
623 0 2 0.000000 16.112000 -0.966000 6.291000
624 0 2 0.000000 7.097000 18.903999 6.011000
625 0 1 0.000000 15.914000 6.208000 13.786000
626 0 2 0.000000 15.203000 6.128000 14.405000
627 0 2 0.000000 16.288000 5.329000 13.817000
628 0 1 0.000000 20.121000 8.862000 9.608000
629 0 2 0.000000 20.608000 8.476000 8.905000
630 0 2 0.000000 19.263000 8.436000 9.688000
631 0 1 0.000000 22.579000 -3.400000 13.007000
632 0 2 0.000000 22.142000 -4.239000 13.239000
633 0 2 0.000000 23.410000 -3.520000 13.524000
634 0 1 0.000000 25.082001 2.716000 15.413000
635 0 2 0.000000 25.691999 3.204000 14.851000
636 0 2 0.000000 25.024000 1.842000 15.124000
637 0 1 0.000000 11.758000 1.725000 14.901000
638 0 2 0.000000 11.935000 0.838000 15.303000
639 0 2 0.000000 10.781000 1.734000 15.070000
640 0 1 0.000000 18.246000 13.731000 12.357000
641 0 2 0.000000 17.589001 14.481000 12.361000
642 0 2 0.000000 17.878000 12.987000 11.831000
643 0 1 0.000000 19.063000 9.915000 13.260000
644 0 2 0.000000 18.641001 10.446000 12.525000
645 0 2 0.000000 19.726000 9.389000 12.796000
646 0 1 0.000000 20.238001 5.673000 14.715000
647 0 2 0.000000 19.649000 6.417000 14.863000
648 0 2 0.000000 21.059999 6.029000 14.279000
649 0 1 0.000000 0.339000 3.054000 3.492000
650 0 2 0.000000 0.332000 3.687000 4.258000