LAMMPS data file via write_data, version 23 Jun 2022, timestep = 16022000

2592 atoms
2 atom types

0 31.138 xlo xhi
0 21.471905 ylo yhi
-0.6247385489743742 32.820577548952215 zlo zhi
-9.185133 -9.044330390468753 10.810074482629323 xy xz yz

Masses

1 1.008
2 15.999

Atoms # full

903 0 2 0 -5.580955352989652 20.96752133774134 5.282106480608894 0 -1 0
311 0 2 0 -2.583345310017812 7.049610826970037 10.416387053347862 1 1 0
688 0 1 0 4.9048298074452115 20.852659886868405 5.858775187821962 -1 -1 0
1305 0 2 0 -4.30139630295416 16.34708393791021 8.838231938077037 1 1 0
1134 0 2 0 -4.648628636848342 9.533516611499227 9.16854264237545 1 0 0
1039 0 1 0 11.574718869015493 7.379777959329717 -0.01844204343131528 0 1 0
657 0 2 0 1.9352897186245563 17.574166566614714 9.38249177865466 0 0 0
262 0 1 0 5.1455197440655756 11.034254399918677 6.072922613529771 0 -1 0
803 0 2 0 -10.278972522358004 22.602039127190498 5.38602526126099 0 0 0
514 0 1 0 0.02640079586196742 10.13556771088583 4.5489966426722965 1 -1 0
1112 0 2 0 -0.7497569545051617 20.507592792458475 10.828766810385945 0 0 0
183 0 2 0 2.874802400396133 20.6855123064147 10.672213903243778 1 0 0
353 0 2 0 -2.723515693653409 18.274957622406077 13.720114745185203 0 -1 0
829 0 1 0 -5.63152384007398 19.52287913986763 8.89385735402761 1 0 0
162 0 2 0 6.31300571063991 10.938877659265021 7.664172779705716 0 0 0
43 0 1 0 4.506307223445493 21.558284732007472 12.857134083911886 0 0 0
541 0 1 0 6.883080052291227 15.282173401316498 7.426758292331192 2 0 0
1294 0 1 0 9.529931788267355 5.253866995951824 10.748999720852018 -1 0 0
261 0 2 0 9.772544989613237 4.79560319927206 5.01103145459972 0 1 0
156 0 2 0 -8.283569736845719 15.676233472341494 13.16017867348992 0 0 0
1122 0 2 0 -2.3453857704951604 16.68291218710109 5.907922151477287 1 1 0
992 0 2 0 4.380278516524603 4.7796103918105075 4.976903019308169 0 1 0
550 0 1 0 -1.0476745078044956 16.639168961210764 9.14391942743224 0 0 1
656 0 2 0 3.0613569788862756 17.486517358414083 8.267535596293117 0 0 0
334 0 1 0 1.755586484611136 15.279749844783378 6.378039122625764 0 -2 0
572 0 2 0 6.524457652462035 11.452768137369802 11.8396199935201 0 -1 0
865 0 1 0 5.036344984845563 18.332954927274898 9.478727640963434 0 0 0
1242 0 2 0 1.5227466428989729 4.320389521173393 1.8662242479916324 0 -1 0
501 0 2 0 -1.4336810575688177 16.147849248987523 13.18393844519808 0 0 0
539 0 2 0 3.4739586048414175 12.118061504380972 14.632333421990195 0 1 0
2223 0 2 0 7.409613760376781 6.1113707959214905 -0.23462670019693999 0 0 0
34 0 1 0 6.0872874498205745 5.347994243867603 4.09552855373247 0 1 0
1004 0 2 0 -6.010168409273964 11.644620526765278 11.506488300788153 1 -1 0
1258 0 1 0 -3.96778656060421 15.290701334545918 2.8005407565051943 1 0 0
963 0 2 0 -2.316018111912063 10.98224457888133 2.08615473520957 0 -1 0
2 0 2 0 -6.750528552813581 17.227970936767797 1.2005558381739783 0 -2 0
507 0 2 0 -5.256531937359751 19.95903557257307 0.4172032413410427 0 -1 0
683 0 2 0 12.0238888133014 3.622186916152154 8.149890801971978 -1 0 0
556 0 1 0 -5.623065708926729 23.48999785487475 10.773064202441509 0 0 0
246 0 2 0 -1.4863170720283643 25.21177660469332 14.34265697377047 1 -1 0
2185 0 1 0 0.9876220068942962 6.515408311740047 -0.5191698097245868 0 0 0
473 0 2 0 -4.323611044397009 12.678062720566917 4.588392210964214 1 0 0
340 0 1 0 6.7212738530123275 10.428204033005585 2.3007404505419187 0 0 0
329 0 2 0 -0.011719683809454207 15.17199850773922 11.737093368621075 1 0 0
509 0 2 0 -5.7928223385283335 14.346723478669299 5.319105986524575 1 0 0
116 0 2 0 -2.2080602805496383 12.430026214265407 6.328968352690718 -1 0 0
147 0 2 0 3.3363393189272013 7.399380037731179 1.0406287074359952 0 1 0
321 0 2 0 -6.773304387276184 17.32433907113313 4.039241454424345 1 0 0
1172 0 2 0 -4.229533624073867 13.342266650601378 11.306193115790753 0 0 0
134 0 2 0 -5.689901259007861 13.428948904992767 1.284917906714765 1 0 0
1259 0 2 0 -4.387579881514753 15.968060017379923 2.222275593828207 1 0 0
356 0 2 0 -1.9943757147377559 15.458199652622088 2.8510953726289188 1 0 0
570 0 2 0 6.906987470525721 13.24264964249645 4.890537491977349 0 0 0
695 0 2 0 1.568159203156016 6.175884878974691 2.9463274056989444 0 0 0
309 0 2 0 10.698453174758832 8.915590569238994 3.489785808099298 0 1 0
1056 0 2 0 -1.6022177209921733 12.52209641672962 0.8392181493397621 0 1 0
148 0 1 0 4.438245388169971 3.5774757072411734 0.9496437452451676 1 0 0
466 0 1 0 5.41899525826938 21.491336450134117 -0.12236096403705132 -1 0 0
531 0 2 0 -4.260954853509652 14.761733989915115 13.07102354300634 2 1 0
1176 0 2 0 -2.1991704459964274 5.933574115801519 4.56015054449657 1 1 0
2473 0 1 0 -7.493147530661547 21.77899661699856 2.0423702430205886 0 0 0
694 0 1 0 1.2664708357630563 5.3654193526395835 3.412572369658263 0 0 0
665 0 2 0 2.479593777264182 7.792498507388445 3.314283444988651 1 1 0
2343 0 2 0 8.709742022992968 8.120742828828098 -0.6223012074539604 0 0 1
354 0 2 0 -4.207454107631651 18.371190935038506 13.238008876543391 0 -1 0
796 0 1 0 -0.738499471397795 7.458080971453128 15.230652507947816 0 0 0
1105 0 1 0 9.18360077849994 10.982347441896295 1.1330423827340224 0 0 0
1296 0 2 0 8.580491850172038 5.157532002568323 10.974128700144645 -1 0 0
40 0 1 0 -2.4855718527962174 3.947158771153641 6.592349765776697 1 2 0
351 0 2 0 -3.9482757698829163 9.967108690423618 11.052224920762727 0 -1 0
88 0 1 0 -3.5421604370486155 19.217242979341403 10.611265958413233 0 0 0
888 0 2 0 0.7549701940058906 9.266958075222954 5.8399608525462074 0 0 0
970 0 1 0 9.18523012259874 10.413696139106625 6.225584923150886 0 0 0
745 0 1 0 -1.8082405980480312 13.121316723140493 9.685001785266952 1 1 0
86 0 2 0 -5.0349139661932565 12.790953783104293 7.692375315341426 0 1 0
260 0 2 0 10.283472472623552 3.5668678920519037 4.399096998850704 0 1 0
327 0 2 0 -1.721447643190615 18.25905819366766 4.40558060725163 0 0 0
421 0 1 0 -3.7307617261657278 21.92998421914499 12.128904224872878 1 0 0
2329 0 1 0 -2.873997640165639 13.273528745561277 -0.36187834498577687 0 0 0
1244 0 2 0 -6.4072015038090475 18.508564577960215 13.330191170434878 0 0 0
487 0 1 0 7.037254534150916 14.741405203343525 2.0383309016789384 0 0 0
877 0 1 0 -3.4612110751232494 8.526423657020175 5.279485726949655 1 1 0
1191 0 2 0 1.692063009567315 13.764223945906572 9.208179812202799 -1 0 0
253 0 1 0 4.282927177993453 14.813662158357271 15.09353359601536 0 -1 0
178 0 1 0 -2.6904183456163997 9.097837934697596 15.451567247796763 0 0 0
492 0 2 0 1.3649728125706817 13.79433726683091 1.924989868498244 0 1 0
231 0 2 0 6.137639701203771 17.067329078247795 4.688989992934983 0 0 0
2450 0 2 0 -1.9344436969359522 16.328650564581913 -0.09586040822473463 0 0 0
101 0 2 0 3.5760450970537647 17.464320698883288 13.315341251743694 0 0 0
706 0 1 0 6.712818073067037 10.537296576453485 13.381357572501225 0 1 0
744 0 2 0 1.0193752875723083 6.607290441175946 8.43283202007223 -1 1 0
341 0 2 0 7.406810604418567 10.852352418186246 1.7624430819792605 0 0 0
180 0 2 0 -3.5569757516667613 8.679123796090135 15.336500237125225 0 0 0
87 0 2 0 -5.079253520581622 14.251220634711219 7.9606886394573735 0 1 0
94 0 1 0 2.369397574177188 12.823294736909755 11.878333698042868 0 0 0
102 0 2 0 3.7689137048187433 18.672901716951806 14.190377195433447 0 0 0
1078 0 1 0 -6.292168825338511 16.06071613806265 15.39309270520992 1 0 0
435 0 2 0 -1.167040901035501 10.852654399336554 7.264940539743759 1 -1 0
237 0 2 0 5.194517391416094 7.016987596244309 12.508895057451136 0 0 0
233 0 2 0 -1.5882910688379748 5.3086612733645735 1.2943344024698888 1 0 0
398 0 2 0 -1.147234367405229 6.420161711016008 13.933369721984645 0 0 0
707 0 2 0 7.562925019437701 10.526254767154953 13.772827140675767 0 1 0
145 0 1 0 3.91599312455782 7.336704782606251 0.26455227135335846 0 1 0
966 0 2 0 -2.313601319478735 16.43764139794054 10.23062742262414 0 0 0
600 0 2 0 5.481341918789521 8.267921242012457 10.09769299506354 0 0 0
883 0 1 0 -3.388920843417962 11.241698630571356 13.884790591637852 0 1 0
203 0 2 0 0.6483151581700932 18.77845467970382 10.590757922846622 0 -2 0
721 0 1 0 7.396303068437388 8.080075848322737 3.0127535259984697 1 1 0
746 0 2 0 -2.5776943387358497 12.525245275543426 9.907224999945392 1 1 0
1064 0 2 0 10.682748928991476 6.716855559071764 2.2981696469820085 1 1 0
1096 0 1 0 9.506415536742473 5.354916343057652 1.5159448475178632 0 1 0
962 0 2 0 -2.498517452273866 9.434537314379336 2.319951765153011 0 -1 0
856 0 1 0 -8.83349688491731 18.797768571881768 10.140970440487353 0 0 0
743 0 2 0 0.17067710543228465 5.459610946126315 8.719187360541063 0 1 0
80 0 2 0 5.179376425516163 8.330822837358255 5.168856774667528 1 1 0
414 0 2 0 -7.131295194405055 20.904322263445145 13.72258184577458 0 0 0
188 0 2 0 1.1134512618149577 12.826900654933619 15.664358437148532 0 0 0
345 0 2 0 0.9518047626621046 20.355072190651956 0.602731919228543 -1 -1 0
1263 0 2 0 11.241661408679633 2.9879509405951 2.4410088120725213 0 1 0
433 0 1 0 -1.8013639802223615 10.738328551210405 6.574633115012904 1 -1 0
580 0 1 0 -10.068256537920455 19.970363515264943 13.494253446485747 1 -1 0
470 0 2 0 2.0839092522606766 20.208395211105277 3.435662101305856 0 0 0
1031 0 2 0 -1.3437078502110782 14.561954072773842 5.82333441889352 0 1 0
876 0 2 0 0.23117249428947484 5.9738643259235085 4.898615773334243 0 0 0
254 0 2 0 3.5047395308414684 15.422583501758954 15.120940175509498 0 -1 0
613 0 1 0 -2.3728354217293 20.69387772110872 8.29121455687376 0 -1 0
629 0 2 0 3.4419694898375237 10.838285346574416 4.343948189181541 1 0 0
107 0 2 0 -2.23965871610841 8.03442121232938 3.8422080401598144 0 1 0
181 0 1 0 3.3892169368407017 19.915678921014305 10.938836285643841 1 0 0
747 0 2 0 -1.9475278070455073 13.3176130100515 8.752409488851775 1 1 0
912 0 2 0 9.177212344089945 2.5074971693711654 5.586971322523846 0 0 0
224 0 2 0 2.5914386786720662 6.466591102331134 14.49358920230633 1 0 0
346 0 1 0 7.584988247181229 3.5785678310122915 2.5941112450219244 0 0 0
1295 0 2 0 9.544588430198718 4.608026929399969 10.050764598416489 -1 0 0
444 0 2 0 -2.8420587167901363 23.562159292739285 9.028511993871058 0 -1 0
179 0 2 0 -2.797880740664891 9.92483632426743 15.002100096198616 0 0 0
1065 0 2 0 10.146618942193932 6.994680857160775 3.660979280186586 1 1 0
554 0 2 0 10.21181641848557 4.742584525123685 13.591771310441796 0 0 0
157 0 1 0 4.558360180386892 20.45680762733074 15.422337531238654 0 0 0
734 0 2 0 -5.175675691836412 20.69288511329284 7.493770743164896 0 -1 0
141 0 2 0 0.728436259637709 15.379448003589452 15.385768678471283 -1 0 0
559 0 1 0 3.8284209708668735 18.974943132503608 1.2105514842735636 0 2 0
731 0 2 0 0.1651925420249234 3.564537611114934 10.201939647912548 -1 0 0
439 0 1 0 0.6193942598815503 18.664860400389045 14.009823387876878 0 -1 0
976 0 1 0 -1.3837815829846458 23.430310077202606 11.724265844510128 0 -1 0
1133 0 2 0 -3.1381239552506917 9.21585995266723 8.742966075986542 1 0 0
562 0 1 0 1.0327994242321106 21.464109897822315 14.773999026913538 -1 -1 0
117 0 2 0 -3.037808886660911 13.760025549824544 6.118568968861856 -1 0 0
508 0 1 0 -4.795116167941732 14.31312507801002 5.254977523420336 1 1 0
773 0 2 0 -0.928275814175 13.66927248936068 14.844486936016093 0 0 0
832 0 1 0 -3.7501687475512515 15.059466583024232 15.106828691194771 0 0 0
711 0 2 0 1.9157185092210496 19.63769516826349 5.458692530797484 0 0 0
823 0 1 0 4.253937716152699 15.088742740194618 8.651344541670813 0 1 0
124 0 1 0 -8.451208252248927 22.659909558174334 8.162088246581705 0 -2 0
1260 0 2 0 -4.209874555701146 14.512600399460213 2.269853292524805 1 0 0
1217 0 2 0 -6.852959087307683 22.317065256087005 10.458878497731943 -2 -1 0
557 0 2 0 -5.591379665494307 24.30902216935988 11.280812191608167 0 0 0
732 0 2 0 -8.012948009605406 24.589284804231898 9.09239396737832 -1 -1 0
716 0 2 0 -10.314157313350375 25.06531616272277 12.270504638645637 1 -1 0
760 0 1 0 1.2432207660594825 23.517732566830524 12.88276795770242 0 1 0
366 0 2 0 4.566884436350349 13.430536007064592 0.7127613376199171 0 0 0
95 0 2 0 3.1864751635654742 12.605681035766331 12.373604822655857 0 0 0
1132 0 1 0 -3.751970380638086 9.8991763629414 9.074468408702428 1 0 0
540 0 2 0 3.8286398139043367 10.7276228953117 14.074212661084076 0 1 0
447 0 2 0 -9.27039127835804 20.716330086068297 5.801294177246211 1 0 0
735 0 2 0 -3.9043944229773397 21.11399568435847 6.99627627353238 0 -1 0
991 0 1 0 3.4062623974255843 4.818371279021956 5.172045186805159 0 1 0
987 0 2 0 -7.5214797038602255 22.55168452856169 15.27556567470159 1 -1 0
132 0 2 0 -5.161220167350059 24.12662264105956 9.274873133920483 2 0 0
223 0 1 0 3.2124005968086218 6.844276792131338 15.073888844827112 1 0 0
1197 0 2 0 3.3630236292789 6.637740131767879 5.232772373585444 0 1 0
1206 0 2 0 4.511621232707258 18.95960676794904 6.051101855396329 0 0 0
700 0 1 0 4.98294348244739 14.443680473149385 12.397433483348635 0 -1 0
489 0 2 0 6.299785641325647 14.166218208968981 2.3011924479351675 0 0 0
1174 0 1 0 -2.660753586783199 5.303850414800899 4.044822281492272 1 1 0
942 0 2 0 1.0491197690659346 17.357308449137953 1.0802063873892584 -1 0 0
867 0 2 0 5.035578551173811 18.404427984210546 8.528433667915607 0 0 0
1304 0 2 0 -4.47520281666765 16.73237853850182 7.411635344792602 1 1 0
1042 0 1 0 -7.467873169540893 18.119208850123666 7.020537430717069 1 0 0
328 0 1 0 -0.9262128676558841 14.908167951248164 11.522867078801427 1 0 0
571 0 1 0 6.220897138356014 11.934037555500772 11.06225798581594 0 -1 0
443 0 2 0 -1.6601641266728802 23.40159687703817 10.084929670904808 0 -1 0
1063 0 1 0 10.991340324859909 7.003004788329946 3.1679476342277075 1 1 0
985 0 1 0 -6.809733066403972 21.93239766587678 14.973699080240161 1 -1 0
1043 0 2 0 -7.854114803357421 18.959185112644583 6.9289637850484525 1 0 0
874 0 1 0 -0.34792691002490517 6.388409135890544 5.537990693073898 0 0 0
965 0 2 0 -3.385199361222454 15.507173162470147 10.904812423528938 0 0 0
1218 0 2 0 -7.285572763086673 21.127269704334253 11.388412367612109 -2 -1 0
542 0 2 0 6.895822686168634 14.657337967816634 8.207646370983843 2 0 0
50 0 2 0 -11.935370017099647 23.530956931396787 15.988548887162317 0 -1 0
878 0 2 0 -3.384143314405738 9.084111225603207 6.079922102088397 1 1 0
894 0 2 0 -6.630327422714981 16.209265154066877 9.417402494428227 2 0 0
516 0 2 0 0.9234067944288431 10.40330189024928 4.338799853478341 1 -1 0
380 0 2 0 8.397801207108476 3.2407844239634676 8.458222850296076 0 1 0
2342 0 2 0 9.205281740849037 9.54018630626985 -0.2433553517288316 0 0 0
450 0 2 0 13.659420258195926 2.4983787020553763 5.45757168152213 0 1 0
193 0 1 0 4.794161645870171 8.977754245530544 15.101997190502992 0 0 0
306 0 2 0 6.304875325622198 19.825524522624423 4.921407661528961 1 0 0
1102 0 1 0 8.573360376915725 14.616022239694853 -0.18209013086467007 0 -1 0
150 0 2 0 3.530778979764863 3.7702910454367196 0.7257847629306198 1 0 0
543 0 2 0 6.5688211033907535 14.760547552201498 6.691210567375263 2 0 0
994 0 1 0 2.811964150921144 5.900883165275007 9.85976915612955 1 0 0
948 0 2 0 -0.5207236317106496 14.972468183212905 1.1281793464638492 0 0 0
696 0 2 0 2.1368198426306506 5.142505818509552 3.8452968366877522 0 0 0
630 0 2 0 2.627110135312579 11.820901952535268 5.132670151414861 1 0 0
1261 0 1 0 11.1059174854561 2.5105364480316696 3.2213484442625124 0 1 0
500 0 2 0 -2.550042657680584 16.114738623445444 14.265388538094127 0 0 0
240 0 2 0 -1.3070616971684608 13.654815337295679 12.646770432573948 0 0 0
1207 0 1 0 7.96780409564745 8.242436867267624 7.09179564900906 0 0 0
169 0 1 0 -3.925011075263509 19.18889492004441 1.509468501579443 0 -1 0
2475 0 2 0 -8.22514210336425 21.42264770384612 1.610276298447019 0 -1 0
25 0 1 0 -1.1065144751431712 20.48630527302639 12.63057690826541 0 0 0
1053 0 2 0 5.855751804379221 17.466442459948667 11.756109500991524 0 -1 0
748 0 1 0 9.098939494523457 9.304422250920418 14.062377731297412 0 0 0
490 0 1 0 2.0839106252508874 13.644074374198391 2.559065565771461 0 1 0
866 0 2 0 4.632027939030088 19.131455424647765 9.785704720298211 0 0 0
349 0 1 0 -4.073173495797588 9.519235636462252 11.913908169393538 1 -1 0
381 0 2 0 9.94423684963979 3.3341133741141245 8.173066397334688 0 1 0
418 0 1 0 4.488125410585701 2.0812310080341314 3.324138309434451 1 0 0
303 0 2 0 -1.4209041420054103 7.598862459434271 8.26527480682957 1 1 0
749 0 2 0 9.541232996261732 8.925526206107698 13.271897588940364 0 0 0
701 0 2 0 4.351598364549524 15.082334699832288 12.115918202039484 0 0 0
1130 0 2 0 -0.1123044556673829 10.457248894709663 12.021332151853773 0 0 0
964 0 1 0 -3.2482155515066338 16.383465294537945 10.531110270016596 0 0 0
1106 0 2 0 9.78374097431756 11.691817072411746 0.8019801839673018 0 0 0
96 0 2 0 1.6712449248248586 12.220156924473487 12.186924862413242 0 0 0
364 0 1 0 4.505058228959803 13.222232122516271 1.6716488670610383 0 0 0
89 0 2 0 -3.4647537677509432 18.278500274554304 10.852918751754544 0 0 0
2379 0 2 0 -5.000389008784687 24.123088343108314 13.573397690821578 1 0 1
273 0 2 0 -3.5364461697946883 26.318033479482718 15.299431643938279 1 0 0
155 0 2 0 -7.5466034693288115 15.810850810636163 11.747660362108034 0 0 0
1167 0 2 0 3.398472442959038 10.794931166145918 8.984888705084604 0 0 0
74 0 2 0 -3.534076507741008 20.022186163141097 14.857138155100804 0 0 0
2330 0 2 0 -2.631575172526231 14.227756610831058 -0.46547472669398876 0 0 1
330 0 2 0 -0.8568286175323188 14.288204921687445 10.806011981409407 1 0 0
720 0 2 0 -2.7018049849870813 3.555021857737132 8.4009666312051 1 1 0
900 0 2 0 -4.674380345851265 12.144890212135397 15.164476212365429 1 0 0
564 0 2 0 0.9334384212865947 20.642479571675437 14.303142523130028 0 -1 0
32 0 2 0 0.3771273215693025 10.647657759428917 1.4152056544994593 0 0 0
689 0 2 0 4.37884096647703 21.606457199184746 5.750795707072261 -1 -1 0
498 0 2 0 -0.36581355672899685 12.156227513728833 9.10126954044149 1 2 0
126 0 2 0 -8.395920840836087 21.89828017569409 7.589189837711187 0 -2 0
365 0 2 0 3.589121726849335 13.39234126088791 1.975599967206092 0 0 0
491 0 2 0 1.9163169833685758 12.886617217118749 3.112427721993757 0 1 0
1059 0 2 0 -3.4977799746869396 5.111814303494158 9.356984036143272 1 0 0
370 0 1 0 7.110052496517551 4.689897094594045 6.463026675233789 1 1 0
761 0 2 0 0.8255001978284242 24.058973505633787 13.573818711362952 0 1 0
33 0 2 0 1.9580852235786899 10.603438303439951 1.4814769639039644 0 0 0
348 0 2 0 6.882946588288824 3.9150359115739626 3.163301082411695 0 0 0
230 0 2 0 5.9854087283826765 15.495083014386145 4.730643891759373 0 0 0
842 0 2 0 0.6211314511556689 5.267509389610817 13.274133947523502 1 1 0
471 0 2 0 3.292852214999809 21.001912985496485 3.8800256565051896 0 0 0
199 0 1 0 -3.1708553127827575 21.274370298809053 3.1575042363719814 0 -1 0
1013 0 2 0 10.174638992888541 6.930254493445575 5.670164757443648 1 1 0
352 0 1 0 -3.4349829620548364 18.921455595478974 13.520530699294374 0 -1 0
131 0 2 0 4.855220430453171 3.8335240315713213 8.617357292838424 2 1 0
186 0 2 0 5.540420397977514 5.225831794081112 0.9214709367601455 0 0 0
772 0 1 0 -0.4905889939512895 14.01106861329757 15.641299991674007 0 0 0
322 0 1 0 12.558019425931324 5.322789969439773 4.476286318295511 1 2 0
464 0 2 0 4.2977441447154945 5.000500375171524 12.697458008104062 0 0 0
293 0 2 0 -0.4892440639106932 3.0736166699132896 2.597771557178353 1 1 0
1110 0 2 0 -0.10216033020255752 3.278933938675123 0.25708631084530265 1 1 0
1241 0 2 0 1.5288983407285066 5.107602194835268 0.5193363669618272 0 -1 0
220 0 1 0 -3.4457829936633235 4.505932015121166 12.685463316512358 0 1 0
841 0 1 0 1.4083984258032043 5.027379955833812 13.799162653428255 1 1 0
783 0 2 0 4.1268813517573495 11.6499931387154 1.7626759559245797 -1 0 0
697 0 1 0 11.95679640319832 3.8318120906377784 0.9629914056557225 0 1 0
879 0 2 0 -4.3113532297486685 8.822449805187974 4.8036422473346745 1 1 0
1012 0 1 0 9.262676935094028 6.613743265147512 5.4976730410971415 1 1 0
372 0 2 0 7.904465524196688 4.3928672033126155 6.927605032261986 1 1 0
135 0 2 0 -4.3907596796472905 12.976134890440113 0.7613330962107212 1 0 0
170 0 2 0 -3.5006894726754356 20.008454089683585 1.901756517911375 0 -1 0
307 0 1 0 10.637606358625984 9.855113922035803 3.564628987922058 0 1 0
1061 0 2 0 1.815939836885327 8.654834718608488 13.6160537497308 0 -1 0
824 0 2 0 5.098240685468825 15.314785187529948 9.096813890372411 0 1 0
659 0 2 0 2.6571966237812865 9.352391187157565 7.569564542832989 0 1 0
412 0 1 0 -7.309991151822621 20.290950898316133 12.98026327618642 0 0 0
1155 0 2 0 5.751776246777964 16.793168561403235 1.8354873577069606 0 -1 0
355 0 1 0 -1.0661404629088747 15.474025910083625 2.7747229490799845 1 0 0
99 0 2 0 6.145236640642702 5.175276703531944 7.790087863816128 0 0 0
423 0 2 0 -3.7877235251921912 21.01126538511693 11.870012327432304 1 0 0
399 0 2 0 -1.3678098654762327 6.689310942295516 12.417641260307159 0 0 0
664 0 1 0 2.1017070719606505 7.744574501217051 2.4219760495841403 1 1 0
1230 0 2 0 -0.03312715205978689 9.83919798608157 9.785085759391798 -1 0 0
977 0 2 0 -2.0021928851391566 22.83261417804256 12.036694969280454 0 -1 0
798 0 2 0 -1.5179155433890807 8.040906292190954 15.3909192850575 0 0 0
2378 0 2 0 -5.614449857720783 22.88540864631721 14.303902210559093 1 0 0
342 0 2 0 5.825701406677894 10.531786582793343 1.98777544804634 0 0 0
374 0 2 0 1.107076221135252 20.780817179657628 7.57993648260457 -1 0 0
3 0 2 0 -6.394449174347101 15.950887380604446 0.5599071192571643 0 -2 0
1097 0 2 0 9.157080804830066 5.737224270589303 0.710692763205852 0 1 0
245 0 2 0 -2.597337800886491 24.417650259832875 14.674509430981548 1 -1 0
558 0 2 0 -4.905442336949773 22.920810591917004 11.158216001490564 0 0 0
496 0 1 0 0.10657490396311253 11.403351726585313 8.662047847793948 1 2 0
825 0 2 0 4.546862558061433 14.592019236898224 7.890962804996171 0 1 0
176 0 2 0 2.2728176595413174 2.618217043215623 3.7752897854505445 1 1 0
1303 0 1 0 -4.966469387616619 16.355055708737943 8.118114493668124 1 1 0
1121 0 2 0 -2.412124587561294 18.08578127114092 6.156491242836957 1 1 0
1278 0 2 0 1.5332937365715007 8.576245798157197 11.297619584329972 1 0 0
35 0 2 0 6.087038617221765 6.192240284458153 3.6467564319426904 0 1 0
71 0 2 0 2.045903933372686 13.694749416981313 6.802913209745694 0 -1 0
201 0 2 0 -2.37407902030318 21.721041300704755 2.807268503988585 0 -1 0
902 0 2 0 -5.94009153391669 21.14581703471369 3.7573175573801834 0 -1 0
724 0 1 0 -8.578292444398528 24.012514148169632 15.047020542995977 0 0 0
972 0 2 0 8.608771249748248 9.6591502584067 6.482590143526103 0 0 0
1274 0 2 0 7.85236056712602 7.151655655330551 15.315662664335465 0 2 0
259 0 1 0 10.083294366688254 3.9018939338130583 5.2501003693076 0 1 0
898 0 1 0 -5.260925195907433 12.201900582907882 15.909075561652127 1 0 0
681 0 2 0 -11.940386924517043 24.511178746952965 13.794388486485738 1 0 0
239 0 2 0 -1.0146219623057182 12.14445650804165 13.153542685742114 0 0 0
294 0 2 0 -1.4155199136505425 4.1262589015105675 3.2508867142660476 1 1 0
555 0 2 0 0.4924188746714906 26.1050421183595 15.042667119161328 0 -1 0
1277 0 2 0 2.3932769449143776 7.246490704707501 11.530419544796775 1 0 0
1166 0 2 0 2.6643440130864184 11.452443470766724 10.160529052190022 0 0 0
885 0 2 0 -3.5674654051847283 10.772407593854421 13.060235455535386 0 1 0
106 0 1 0 -1.6781718837293462 8.152233690556255 3.0798963609770693 0 1 0
318 0 2 0 6.194771883652944 4.7152808374438075 11.72929010733369 1 1 0
371 0 2 0 6.772087201345345 3.7585506581027834 6.356883557647066 1 1 0
232 0 1 0 -1.361134348517037 6.189678755612093 0.9191452278787524 1 0 0
715 0 1 0 -10.024138802222366 24.656780984208595 11.442669029161694 1 -1 0
90 0 2 0 -2.881041842801958 19.490879084052555 9.902489814593116 0 0 0
1 0 1 0 -5.944688944844259 16.713093185849107 0.9817791100284601 0 -2 0
698 0 2 0 12.223674913292093 3.2953866250936215 0.1787602954127523 0 1 0
109 0 1 0 -1.8599890761453675 17.666366000243983 0.967866736911295 0 0 0
312 0 2 0 -2.790162470954848 8.126785688555906 11.564066821962372 1 1 0
887 0 2 0 0.5710653968656143 7.857214814447184 6.4333220695315925 0 0 0
1279 0 1 0 -4.840961638994358 18.12688715559437 3.9471850756852644 1 0 0
858 0 2 0 -8.192944627510446 18.08372784396116 9.923913849466226 0 0 0
1080 0 2 0 -6.305779879029878 16.62595141426284 14.57659368608468 1 0 0
1055 0 2 0 -0.9770711116055935 12.897893728630375 2.1573481759205606 0 1 0
488 0 2 0 7.670539521154004 14.861676147211915 2.7402225436254346 0 0 0
704 0 2 0 6.824585379035158 13.263698574935345 10.253621969798328 0 0 0
875 0 2 0 -0.5251929580677586 5.928060902573813 6.375473888787561 1 0 0
843 0 2 0 -8.100279063020682 25.772752215102678 14.357480797009762 1 0 0
603 0 2 0 -5.835294078107999 23.51134943129547 6.811041196032911 0 0 0
2439 0 2 0 -0.7031484614406853 22.0598931382662 15.276817711742687 0 0 0
792 0 2 0 -2.294944228006197 23.05014324613786 5.923019927204899 1 1 0
2509 0 1 0 2.321455464566216 20.798220336771035 -0.41136918594086935 0 0 0
343 0 1 0 0.10273102045326954 20.336299128753375 1.1117317080340987 -1 -1 0
139 0 1 0 1.459531319247227 15.95055123656579 15.117280900290876 -1 0 0
814 0 1 0 -5.217654284179403 11.061005738232318 7.121360918215901 1 1 0
194 0 2 0 4.141768827932569 8.24340863144073 15.206122630131297 0 0 0
682 0 1 0 2.5687105799052965 24.10381258280898 8.157027437818718 -1 -1 1
574 0 1 0 5.128370247313625 8.568085419235022 11.814693416182763 0 -1 0
702 0 2 0 5.0645329935514765 13.823850918462846 11.68927900972203 0 -1 0
886 0 1 0 1.1095709168317056 8.650390256276765 6.5299537206884395 0 0 0
2474 0 2 0 -6.701136233904617 21.72386804834768 1.5167467512542085 0 -1 1
1171 0 1 0 -4.4422132125929945 12.467737011685854 10.896497050290073 0 0 0
989 0 2 0 1.7418224566882086 15.600369779361419 13.378096068498452 0 0 0
561 0 2 0 3.3431693942695597 18.587240939841614 1.9547960746881414 0 2 0
1229 0 2 0 -0.8613780113588101 8.687446845098554 10.552088438382913 -1 0 0
133 0 1 0 -4.894346538086907 12.933774876283 1.5908816628470555 1 0 0
1113 0 2 0 0.01051320414113377 20.739897407978393 9.462875129208522 0 0 0
469 0 1 0 2.428011923869886 20.752107336596165 4.167578711227234 0 0 0
637 0 1 0 11.184243544210617 7.441923100463931 8.138271456245366 -1 0 0
235 0 1 0 5.467709642211937 6.154815777575951 12.870141354132576 0 0 0
26 0 2 0 -2.0111771984092033 20.163912922260895 12.70586716155298 0 0 0
1165 0 1 0 3.286939627168849 11.669482112221246 9.460533254836905 0 0 0
781 0 1 0 3.978857474745487 10.634847351008764 1.6920125038824834 -1 0 0
1154 0 2 0 6.898874475833171 17.872947243895773 1.670275755454921 0 -1 0
910 0 1 0 -0.5734313902551109 23.221520477347006 5.8093198657146745 0 -1 0
338 0 2 0 3.0464659617507426 16.583294227977515 11.490849062722951 0 0 0
175 0 1 0 1.3674228224826313 2.4066935716066773 3.6097919830871863 1 1 0
202 0 1 0 1.014926831097391 17.873963346922526 10.787804768725017 0 -2 0
100 0 1 0 3.175052706753352 17.956424597167874 14.036952491795876 0 0 0
1248 0 2 0 -6.881905911912887 13.014089961224656 15.50486130326684 1 0 0
1209 0 2 0 7.051557000097973 8.25408122589905 6.785926172580417 0 0 0
947 0 2 0 -0.08964555811553859 13.89733375130782 0.10137850935068027 0 0 0
978 0 2 0 -0.5201892397695049 23.32046770354755 12.160846848183596 0 -1 0
601 0 1 0 2.791563684337986 2.2359667486809793 6.039085327085066 0 1 0
316 0 1 0 6.914435885031494 4.424130466123914 11.21233058807775 1 1 0
337 0 1 0 3.9944343390594614 16.923821901908045 11.40952506900817 0 0 0
72 0 2 0 2.8942761786375977 12.627824490820222 7.60745738260273 0 -1 0
1290 0 2 0 7.528414902320704 11.370522613229376 3.7743637620256427 0 0 0
140 0 2 0 1.7143326123557916 16.406958499253243 15.880956288522896 -1 0 0
164 0 2 0 14.403136426924739 2.08658714594456 -0.3595923232558763 0 0 0
244 0 1 0 -2.424377852927554 25.32244998300571 14.384178375976454 1 -1 0
27 0 2 0 -0.5333293719402201 19.74394679297395 12.952267530460665 0 0 0
302 0 2 0 -1.7169517422440377 8.629319759443984 7.265330808093238 1 1 0
892 0 1 0 -7.5101327081821925 16.24770251763162 9.897479994150345 2 0 0
445 0 1 0 -8.385483548819726 20.62226116020694 6.175870504799987 1 0 0
81 0 2 0 6.555659414782854 8.455721177953373 4.4441256336514945 1 1 0
569 0 2 0 5.425432724154227 12.927041134730562 5.269877389587473 0 0 0
1231 0 1 0 -0.16504338665812357 2.752347120291382 5.776973668526058 1 1 0
211 0 1 0 -0.8932377317637288 18.568942572863268 7.0845348774267105 0 0 0
394 0 1 0 -2.1301875646093036 21.728797787857054 0.32810976086479104 1 -1 0
177 0 2 0 1.3742002490681946 1.517711787961194 3.1952994130149794 1 1 0
961 0 1 0 -2.9935166101283577 10.271458856352488 2.2701835593237014 0 -1 0
395 0 2 0 -1.330463087877583 21.24578917051307 0.48474103992113227 1 -1 0
200 0 2 0 -3.8233364808731616 22.007890211254434 3.370887577023841 0 -1 0
1205 0 2 0 4.447925333622889 17.464542693989213 6.006076369852509 0 0 0
598 0 1 0 5.411168431798263 8.122544763702141 9.18362284518351 0 0 0
563 0 2 0 1.5214963627668032 21.282104145029116 15.593112264561995 -1 -1 0
301 0 1 0 -2.1533439638956904 8.051857936223534 7.86839185694415 1 1 0
1195 0 1 0 3.356713503094375 7.579523017152576 5.009268719355903 0 1 0
686 0 2 0 13.051799294303773 1.4245482143781218 2.7632469272570748 0 0 0
2437 0 1 0 -1.3968660534410633 22.643212828684256 15.634577014683078 0 0 0
115 0 1 0 -2.302662555045261 13.402173498930386 6.608848963573926 -1 0 0
446 0 2 0 -7.800269142229935 20.397064401902973 5.444248089768038 1 0 0
833 0 2 0 -3.5138889217228724 14.435459050112446 15.823113244405189 0 0 0
733 0 1 0 -4.805750604246248 21.17464762006407 6.753029200269779 0 -1 0
375 0 2 0 1.308865571728493 22.142731286086434 8.322129061835367 -1 0 0
1245 0 2 0 -6.5251228166759585 17.02399367797997 12.894423731537058 0 0 0
2438 0 2 0 -2.170380440851515 22.044922588457993 15.722769794001469 0 0 0
85 0 1 0 -5.261746760608573 13.41681165101264 8.385203654773221 0 1 0
1243 0 1 0 -5.847674518578943 17.698824060844046 13.204957226733534 0 0 0
1208 0 2 0 8.00998666041081 7.97914321502895 8.038656865575943 0 0 0
990 0 2 0 1.9038459245610557 14.59418639733943 12.284693275592605 0 0 0
1108 0 1 0 -0.5199851316941385 2.719372608800081 -0.41580087547196753 1 1 0
146 0 2 0 3.7199456661688233 6.492281550362488 -0.20703021034397878 0 1 0