LAMMPS data file via write_data, version 23 Jun 2022, timestep = 26000000

2592 atoms
2 atom types

0 31.138 xlo xhi
0 21.471905 ylo yhi
-0.5786197588835797 32.77445875886671 zlo zhi
-9.185133 -9.019387371631485 10.780261784520679 xy xz yz

Masses

1 1.008
2 15.999

Atoms # full

199 0 1 0 2.9651648654726035 11.659942276429287 9.024024639076442 0 -1 0
1104 0 2 0 8.126083518065565 16.955870203770036 -0.33000924572830503 0 -1 0
954 0 2 0 4.835103585938244 5.0028565671894665 10.439824199071838 1 1 0
418 0 1 0 -5.635451561289805 22.345553765054756 13.28959782661382 2 1 0
686 0 2 0 -1.0580515479210542 13.353672302915228 3.7668788120947774 0 -1 0
21 0 2 0 6.059658991915102 19.85691866962268 5.808633671052344 0 0 0
30 0 2 0 -2.981223378540523 18.922462052162977 7.869094812247855 0 0 0
454 0 1 0 2.823760877484373 11.75441816466153 2.268526036808248 1 1 0
1219 0 1 0 -7.456831064758262 19.543363279212514 14.32903681806194 0 0 0
436 0 1 0 -1.2284829239722637 3.820234530273131 5.909170894185092 1 2 0
961 0 1 0 6.595596920735376 16.663646447006823 6.656252909011027 -1 -2 0
183 0 2 0 1.5109706882829128 17.407051446756892 2.4573782864918634 1 0 0
856 0 1 0 -9.975790771511123 21.017860452458326 7.155420742803854 0 -1 0
347 0 2 0 11.08029027878002 7.582411155226276 0.919491014841703 0 0 0
231 0 2 0 -2.7570025347816625 23.098349602541887 15.453914121080878 0 -1 0
687 0 2 0 -0.1505618814423033 14.575492019112913 3.8418062565406723 0 -1 0
1483 0 1 0 -4.717749099140265 9.682622504460873 10.853573744804864 1 0 0
236 0 2 0 -3.9815391483767697 13.383170936031053 9.480983385127827 0 -1 0
396 0 2 0 -0.7061002426480938 20.48292589695471 0.41278585738491524 1 -1 0
720 0 2 0 -10.658416433412945 23.0063927813234 15.565966285442055 1 0 0
668 0 2 0 -2.102434963803489 18.77915630458322 1.5195916724296894 1 0 0
8 0 2 0 4.538092647342312 9.825748866846462 11.470687913900475 0 1 0
175 0 1 0 5.724393632644985 12.337438940516789 6.120522530338804 0 0 0
993 0 2 0 0.26005249209015413 21.83997456661297 6.277690489363701 0 -1 0
334 0 1 0 7.550068431192039 14.09604862491386 7.670285556175433 0 -2 0
998 0 2 0 -5.381875166125745 25.03510360850673 11.483323276174913 0 1 0
276 0 2 0 10.839010421055463 9.863226780544059 0.28650839601940503 0 0 0
1185 0 2 0 -0.7075462966010297 19.576118349908263 9.306895141604725 1 0 0
867 0 2 0 -1.1646884866786031 5.026058604957093 13.425539710555142 1 1 0
1090 0 1 0 -5.436043933248105 17.671082309051748 10.517185480869196 1 0 0
595 0 1 0 0.5721432468620606 4.7847512752104056 13.639394117787296 1 0 0
742 0 1 0 1.340706407821406 24.686606101628904 9.956186646019196 0 0 0
843 0 2 0 -5.601067012363106 20.79773325401215 10.129443648447555 1 0 0
2402 0 2 0 -2.971700722661 12.748245330653129 7.650329020268254 0 -1 0
359 0 2 0 1.0560289360961725 9.272806498173475 9.183853530459475 0 0 0
44 0 2 0 1.892840815041454 21.441887009562137 9.387207334885803 0 0 0
713 0 2 0 -8.564418415238016 23.89492988497993 10.016702324007916 0 -1 0
26 0 2 0 5.290699280962979 7.69846559167604 15.770896200795342 0 1 0
171 0 2 0 -5.57422903538369 24.075883427609323 13.278909290736749 0 -2 0
1251 0 2 0 -0.8351737799840747 10.801441197298198 1.3216950073578877 0 -1 0
483 0 2 0 1.5581521250952188 14.145537125937556 0.958831465455281 0 0 0
558 0 2 0 -10.328398615027734 21.640183147911948 10.176056921993045 0 0 0
1287 0 2 0 -2.6786720344254418 14.871526293877974 6.135776776648288 1 -1 0
216 0 2 0 -3.960554306977528 15.158553026519858 11.521773669122592 1 1 0
1213 0 1 0 2.173061193163906 6.160405185942633 15.313040292819018 0 -1 0
227 0 2 0 -4.569215277474748 10.382002771524343 12.36881196932512 1 0 0
1015 0 1 0 13.326173715273553 0.7182212204417504 0.40155759799262436 0 0 0
140 0 2 0 0.8184839711051408 17.77556784820053 15.924847836325885 -1 0 0
615 0 2 0 -4.214194739331757 15.700508836222884 13.863653475587983 1 -1 0
528 0 2 0 3.5906847108196893 3.6156346030153492 1.1975046289420272 0 0 0
192 0 2 0 3.318123989954163 3.0912209072217087 -0.5572975466803165 1 1 0
977 0 2 0 1.4610998188368416 6.896048402056816 4.3956692905606465 0 0 0
317 0 2 0 5.102425912608611 4.6160654323357 13.453156596959152 1 1 0
421 0 1 0 2.53101346119029 8.651103389074802 14.417602984531552 1 1 0
476 0 2 0 -4.398154350440691 10.991638438164909 0.8139476496996703 0 -1 0
997 0 1 0 -5.247775920299045 24.77543681657669 10.543677717624504 1 2 0
39 0 2 0 8.922705979999535 10.429718556037525 11.427166767600728 1 0 0
284 0 2 0 0.37747696970335465 19.28561321971843 5.418249925616123 1 -1 0
384 0 2 0 0.8453737166975352 15.83221265916111 6.031754705787548 0 0 0
1148 0 2 0 6.8807300118033705 11.563446192711673 13.218728901585868 0 0 0
548 0 2 0 -5.947935774583143 18.95953077990059 1.507827954067686 1 1 0
342 0 2 0 0.8358927427566489 20.633007373742334 8.074849273777085 0 -1 0
509 0 2 0 -8.842439133963621 19.800621447517443 7.915870015018687 2 1 0
899 0 2 0 -8.049897372198615 17.68088700228956 11.88540620171578 1 0 0
589 0 1 0 5.340015171948008 12.80644423160888 1.3208520024797263 1 0 0
250 0 1 0 0.07379675753040349 3.4348277024472162 3.44555306316758 1 -1 0
382 0 1 0 0.9852639957849745 15.271274086310225 5.257930093484802 0 0 0
385 0 1 0 4.691661676179278 9.848224401059115 7.5510430978550644 0 1 0
749 0 2 0 -2.5470188633117594 19.89757766792041 10.895979392953008 1 0 0
1164 0 2 0 3.7383390635734637 11.630284575494015 14.375635675853234 -1 0 0
1218 0 2 0 -1.2082036851386633 14.277837030891133 12.728979461741444 -2 -1 0
90 0 2 0 -7.2250485379594 17.09277276264424 14.41944003757262 0 0 0
7 0 1 0 4.736893240972021 10.725895094940505 11.202183070615044 0 1 0
711 0 2 0 6.5476890853694005 10.808001834294142 10.767756005663538 0 0 0
470 0 2 0 1.7287329022199476 11.343330051260956 12.246315493940847 0 0 0
1157 0 2 0 8.113877550100161 10.497487231789318 6.048020914900489 0 1 0
2403 0 2 0 -2.9169100295837564 11.370098179189721 8.483290186155465 0 -1 0
698 0 2 0 11.273756785044428 3.3001462417043124 0.2969487002767469 0 1 0
1098 0 2 0 1.9059479495748883 19.437254210304545 1.6199703980841091 0 0 0
964 0 1 0 2.759250578951855 12.695144565578673 13.275636634374091 0 -1 0
1215 0 2 0 2.9524650194921227 5.6617196130082155 15.579793624898667 0 -1 0
1071 0 2 0 -2.369584839490715 23.595487050978583 8.911721394837626 1 0 0
94 0 1 0 -0.40675876553886336 12.078779721904889 7.649186158184472 0 0 0
792 0 2 0 3.4967637980675152 19.820230674979236 4.791597343061316 1 1 0
383 0 2 0 1.6353947684896812 15.743678213955185 4.72500435838205 0 0 0
673 0 1 0 -2.7281613019050637 7.825896022204569 1.3637518932558899 0 -1 0
898 0 1 0 -7.761396259248017 17.06462400019438 12.543555594385756 1 0 0
194 0 2 0 1.5896682158320687 2.758215489888064 4.05704114517657 0 0 0
445 0 1 0 -2.3158731840521662 5.959572712012106 4.5107687354375035 1 1 0
600 0 2 0 1.1602924790866807 4.421761243458752 7.447390241514771 0 1 0
318 0 2 0 6.527114987021329 5.021669926455106 13.108080764560043 1 1 0
659 0 2 0 3.0365062769847997 23.88593635676593 7.0278306976781035 -1 -1 0
312 0 2 0 1.366057328656848 18.07419532414331 12.278960732558783 0 0 0
559 0 1 0 0.3597226516824332 21.394150306985427 3.142622959208048 0 2 0
387 0 2 0 4.627394300900341 8.868076012046561 7.709471538682333 0 1 0
955 0 1 0 1.8013459141170873 7.518774506020604 8.813973338907054 1 0 0
299 0 2 0 -3.9736594069486664 15.310808538392768 3.4246560866756033 0 -1 0
395 0 2 0 -0.7422935456646851 20.53648006978238 1.8809642362963244 1 -1 0
58 0 1 0 -3.6343149728220743 9.414398661867725 3.7967103534846682 1 0 0
515 0 2 0 8.862069570306225 14.363144784918907 0.7160673467001992 1 -1 0
461 0 2 0 3.6804630811556134 15.997871745279667 5.609179388295104 -1 1 0
129 0 2 0 -4.0303010107506285 5.788646748843521 15.602924479747426 0 -1 0
829 0 1 0 9.962579444010183 5.691358272651449 3.8982911551988053 1 1 0
948 0 2 0 -0.273430318270539 13.715318182722529 -0.10287826919624493 0 0 0
164 0 2 0 13.717324848186745 2.399117421206012 0.05056261165955411 0 0 0
1188 0 2 0 4.952048243347878 14.28769669649369 8.793952416834877 0 1 0
695 0 2 0 5.567815337909037 18.183875909307307 4.035672548242339 0 0 0
721 0 1 0 3.9543482825344354 8.77394602578765 3.4291656765078358 1 1 0
904 0 1 0 9.829148126574488 6.154554713600675 14.986514141484701 0 0 0
490 0 1 0 2.76373808922208 10.526619383798788 -0.16249674021901261 0 1 0
1096 0 1 0 2.5695073947360942 19.960563540299535 1.1700677713446694 0 0 0
251 0 2 0 -0.6219694646692394 2.878898543807452 3.086646924511531 1 -1 0
473 0 2 0 -3.759034232797083 13.035330595081572 1.1166211809942497 1 0 0
1274 0 2 0 7.429694210534003 6.066727070042886 6.228443410001473 0 1 0
520 0 1 0 -4.987558757782184 18.30253285293954 5.048470906960965 1 -1 0
415 0 1 0 -1.3452121808724606 7.763956236744122 12.20302648824655 1 1 0
394 0 1 0 -1.3291874821334635 20.27691629176209 1.1281916392224236 1 -1 0
422 0 2 0 2.051297949245168 8.561556627214296 13.545106818863731 1 1 0
849 0 2 0 -2.4168269918324095 17.274028817351674 6.22214245321822 1 2 0
1212 0 2 0 11.021440649426276 7.108414384136227 4.603653111940243 0 -1 0
556 0 1 0 -9.616490697837861 21.287289627900396 10.66053110402813 0 0 0
1186 0 1 0 4.374587103635532 13.848245184855145 8.132813060353419 0 1 0
540 0 2 0 3.7283038507988855 2.8471300928061316 7.04339301941446 0 1 0
170 0 2 0 -6.737314801069113 25.077426272050012 13.543437111935855 0 -2 0
738 0 2 0 -10.009254899587296 20.40586064397501 15.982853966803301 1 -1 0
581 0 2 0 -0.18761561114289682 16.454029456041592 11.038956130456668 1 -1 0
478 0 1 0 -7.41976975626126 17.659772363251907 6.039731899646824 0 1 0
195 0 2 0 3.050652368090358 2.405438842515996 3.41862955932632 0 0 0
181 0 1 0 0.9623421036623296 18.18589010025325 2.34667294749263 1 0 0
699 0 2 0 10.351765714793494 4.2508598281890935 1.0631529342534822 0 1 0
1259 0 2 0 7.139167073393869 13.980659506859983 15.156142803084094 1 0 0
634 0 1 0 4.211294296584815 2.3184317332100273 2.0985508162330206 0 2 0
986 0 2 0 9.172994400451127 5.514267103695179 12.418350625652902 1 0 0
697 0 1 0 11.265890814479462 3.8625147162744353 1.0831311227782863 0 1 0
83 0 2 0 -3.4390224878806688 18.027966215988133 4.594026035642639 1 1 0
739 0 1 0 7.913856050158623 9.008603731750707 2.0367747722046574 -1 0 0
471 0 2 0 0.7565885462196897 10.292244384669363 12.48397786450615 0 0 0
760 0 1 0 -2.546954884471079 12.88105765728408 12.250028216563965 0 2 0
932 0 2 0 3.089767824764259 18.162217495063558 9.055387401039942 0 0 0
25 0 1 0 6.192416510804375 7.8814827678142265 15.584653037354247 0 1 0
1264 0 1 0 11.829580729234921 1.532045607069898 2.5737249046861157 1 0 0
1155 0 2 0 -4.204393243651293 21.425430151614727 14.38667431427324 0 -1 0
761 0 2 0 -2.3899022213470795 12.47942694857634 13.100256284181631 0 2 0
512 0 2 0 1.4069331427753617 23.303902489785067 14.256777358628172 0 0 0
538 0 1 0 -4.884775717174755 23.549312010393315 7.233364958624805 0 0 0
806 0 2 0 -3.6939530906731903 9.71181544302075 14.525558103454763 1 0 0
772 0 1 0 0.9725807117141694 5.341750731681091 1.6346380078290395 0 0 0
1003 0 1 0 3.374424100491656 4.636893962981156 5.626444456955271 1 -1 0
139 0 1 0 0.5716629823204036 16.903156099709392 15.54283255223416 -1 0 0
694 0 1 0 5.137144707256368 17.59381678400887 3.3628286310483273 0 0 0
573 0 2 0 4.761875297921128 5.842963548204702 1.1796124101978507 0 -1 0
611 0 2 0 5.026303339235696 4.902149695213378 6.349230091828543 0 1 0
2329 0 1 0 -4.404396726664632 14.130796271868455 -0.2753931782233366 0 0 0
1275 0 2 0 8.675725768532047 7.0480917944754475 6.543432683323984 0 0 0
239 0 2 0 2.3337714294248246 13.871294694730086 10.599493018849174 1 0 0
1005 0 2 0 2.959194976475616 5.4072018099737855 5.141634279820322 1 -1 0
330 0 2 0 0.1780000242768507 20.29167498493693 12.502083380301777 1 0 0
630 0 2 0 1.393510812120434 9.356293781465343 15.965261008133112 1 0 0
564 0 2 0 7.69658423504855 10.597523247037916 8.496682105895975 0 0 0
582 0 2 0 -1.7090405631504293 16.338947401679672 10.773851591452164 1 -1 0
1027 0 1 0 -1.336586995662739 12.57357078394462 15.061492013410696 0 -1 0
741 0 2 0 8.638286075599767 8.449492671589244 1.7378439004782558 -1 0 0
1163 0 2 0 5.0031863403391545 10.643730051176657 14.409104828055789 -1 0 0
651 0 2 0 8.56280493976875 9.508114756738749 15.763782634285434 0 0 0
701 0 2 0 5.40971714571351 19.68352040426771 10.187921598347293 0 0 0
1216 0 1 0 -0.7589423264722903 14.903959818244626 13.289945927932298 -2 -1 0
675 0 2 0 -1.8749226220236048 7.78800567853889 0.8735201943843363 0 -1 0
563 0 2 0 6.48475004218597 9.947784749496968 7.742233662517945 -1 0 0
348 0 2 0 10.073630042709809 7.787526662683542 -0.1599626893046454 0 0 0
830 0 2 0 9.547153635764516 5.534651026980966 3.0379077150384197 1 1 0
567 0 2 0 -5.089596232964961 11.875798441863699 7.3126929389948705 -1 -1 0
340 0 1 0 0.76972779338743 20.210503410259957 8.94969415339368 0 -1 0
492 0 2 0 2.832131853819867 11.092405297631512 0.668866174958211 0 1 0
931 0 1 0 2.1595703772798664 18.061822531430487 9.411240853964266 0 0 0
748 0 1 0 -2.747316573475468 20.498971808790017 11.675098160576834 1 0 0
591 0 2 0 5.279312380249485 13.17215930375036 2.2198499681204553 1 0 0
253 0 1 0 2.65717119487077 15.368034416666491 15.106485404283841 0 -1 0
1273 0 1 0 8.223722452179013 6.444054241356442 5.8745472952339854 0 1 0
29 0 2 0 -4.028712989548927 18.907469068017726 6.667232289512178 0 0 0
764 0 2 0 -1.349217476585465 11.389689134644629 5.011113004098789 -2 -1 0
1217 0 2 0 -0.7228220467538997 14.356689082074938 14.078100687461466 -2 -1 0
357 0 2 0 11.306245920098574 3.7631094520153097 5.556013055971378 0 0 0
472 0 1 0 -3.7322765446664663 12.378135824720456 1.8044911967781792 1 0 0
1220 0 2 0 -8.120258404728402 19.191387557810227 13.748659151196513 0 0 0
1080 0 2 0 -5.409935164537995 13.653539243224932 12.541519892953637 1 0 0
1079 0 2 0 -6.753236453233518 12.844487975661215 12.571202265319682 1 0 0
942 0 2 0 -0.14917676220023315 16.525417283384584 -0.040116459418235495 -1 0 0
176 0 2 0 5.7100502752372275 11.415680633498148 6.3260996360114135 0 0 0
940 0 1 0 -0.05967466313121196 17.462120817840365 -0.18315149289241456 -1 0 0
527 0 2 0 2.602888092110404 4.7217185852409 0.9483034745182275 0 0 0
237 0 2 0 -3.9717385943442407 14.870642781590547 9.128068162043736 0 -1 0
866 0 2 0 -2.321517100638844 5.348319557987256 14.281217984018252 1 1 0
900 0 2 0 -7.487505289638394 16.275912716609298 12.082718072052984 1 0 0
309 0 2 0 -7.584532644888942 21.376446213855708 3.6234134198918273 1 1 0
658 0 1 0 3.658387539130804 23.530595148502766 7.671652995057466 -1 -1 0
1017 0 2 0 12.681690993874579 0.6349327924087191 1.097865295474245 0 0 0
1484 0 2 0 -5.412633885927432 9.888255521108729 10.217997524983955 1 0 0
355 0 1 0 10.794520746979954 3.109276804420815 6.045218506316391 0 0 0
1028 0 2 0 -2.018333590668576 13.077986996994193 15.486790513890028 0 -1 0
722 0 2 0 4.237229035931251 9.19107845702173 2.618596835187037 1 1 0
824 0 2 0 6.935235934891283 15.133877007931629 0.6749713910626707 0 1 0
420 0 2 0 -5.862608303507258 21.784312287999377 12.530133122287967 2 1 0
511 0 1 0 2.2368280877636217 23.72854723347791 13.915704261174561 0 0 0
69 0 2 0 1.5448684092035476 7.132962964490503 10.747270960055499 0 2 0
700 0 1 0 4.667934496240635 19.910789220847295 10.743703480985824 0 -1 0
329 0 2 0 -1.306102732365646 20.803812011754747 12.381009458712036 1 0 0
508 0 1 0 -7.958233291388325 19.44956759163547 8.164126122553155 2 2 0
773 0 2 0 0.4955165829133264 5.972859566588529 1.0857002890459466 0 0 0
743 0 2 0 1.9210734140198191 24.11779806004339 9.500678337946145 0 0 0
440 0 2 0 -1.277686228789669 23.367790608419266 11.234459953492797 0 -2 0
311 0 2 0 2.3822249244124545 19.245967240265337 12.280096484014233 0 0 0
308 0 2 0 -8.797350186192482 22.14394813926544 4.110573401318226 1 1 0
95 0 2 0 0.21752179067891797 12.455317613761798 6.953662966740118 0 0 0
1077 0 2 0 1.2784273217767612 9.003398889120085 1.8943503414933014 1 0 0
895 0 1 0 -7.526658490495793 23.113080523524175 15.353589526896437 0 -1 0
586 0 1 0 -8.154752754849873 19.105558761020927 10.973914247610605 1 -1 0
580 0 1 0 -0.8771943345886388 16.50822521314731 10.354326638578648 1 -1 0
605 0 2 0 4.830770699491162 13.54299971775878 -0.13287188847337922 0 0 0
346 0 1 0 10.361323776102003 8.182492691273787 0.6712544140359062 0 0 0
35 0 2 0 5.188752029851717 12.329739867106507 12.103414710552347 0 0 0
1020 0 2 0 11.605828970099855 4.949491604033261 3.9550077712169855 -1 0 0
905 0 2 0 9.335763410431287 5.67778758438981 14.375984953804384 0 0 0
617 0 2 0 4.9255717954839024 12.568362904536649 4.561434867002171 1 1 0
300 0 2 0 -2.4310794888108362 15.006917895021605 3.193118424532846 0 -1 0
1172 0 2 0 -5.834657323770225 14.422040150281845 5.044381200321929 0 0 0
669 0 2 0 -3.025655034994327 17.565661017997616 2.0171026936393046 1 0 0
16 0 1 0 1.5511136342061018 12.74801322896306 15.840153463715271 -1 -1 0
283 0 1 0 -0.19102074344556796 19.250210824422414 4.645570386941741 1 -1 0
254 0 2 0 1.8205733232753154 15.86417497045181 15.174485846258015 0 -1 0
488 0 2 0 5.070094684224823 18.05233595932051 0.07789854237558158 0 0 0
725 0 2 0 5.341442582821 5.403562418365724 15.458580869690724 1 1 0
72 0 2 0 1.9024728668223125 15.784970832509888 11.867520744486297 0 -2 0
212 0 2 0 2.778850117989361 15.39926482407733 2.4420087883290496 0 0 0
1095 0 2 0 9.501429721408275 3.6313610920908372 8.581788002000348 0 1 0
201 0 2 0 3.0349648289690245 12.38918832771401 8.439093634109375 0 -1 0
820 0 1 0 9.325356021596562 7.925701611007877 7.765642056023987 0 2 0
762 0 2 0 -2.408804563261136 12.126082442315543 11.669902709718148 0 2 0
703 0 1 0 -6.480500947786064 15.17425226046278 6.3795250772170276 0 0 0
552 0 2 0 5.978180933127208 15.901685819088893 3.1203431590516244 0 1 1
1592 0 2 0 2.242522602471321 24.094852160199014 15.742826433027844 0 0 0
592 0 1 0 -1.7699544767991509 21.534055528066922 6.776146848288588 1 2 0
417 0 2 0 -1.8948421820613564 7.193396759614988 12.7489667438051 1 1 0
953 0 2 0 5.104315397924192 6.437468683186667 11.191752868347299 1 1 0
307 0 1 0 -8.51043389131641 21.257707812389203 3.8552806711792034 1 1 0
93 0 2 0 6.367323683524782 2.095452066638654 -0.16971994680063385 0 0 0
587 0 2 0 -8.834789828564306 19.803230389844746 10.836741244848405 1 -1 0
1207 0 1 0 5.471232318516232 5.50478100599855 3.7325830279772685 0 1 0
821 0 2 0 9.009710635309947 8.821809729530527 7.752928516811226 0 2 0
910 0 1 0 -3.6743793578335104 21.804443548979187 0.4840872147871158 0 -1 0
614 0 2 0 -5.311104115347883 16.069237898520818 14.974766703209768 1 -1 0
756 0 2 0 0.13928649333978038 13.208217575781468 8.981653985575312 0 0 0
2367 0 2 0 -0.7412199020305426 6.5474640951064735 5.026817515796351 1 2 0
1197 0 2 0 5.75452047674871 21.49523314261525 0.9919302692062029 0 0 0
537 0 2 0 5.168147103774305 17.005025850732412 15.803631617283713 0 0 0
572 0 2 0 4.61534786697316 7.382459591135148 1.1459656877377111 0 -1 0
1556 0 2 0 -3.78449059241916 23.647496349234448 10.683596061873972 0 -1 0
627 0 2 0 1.9965699883795593 17.486051991695913 6.637554311895235 0 -2 0
1230 0 2 0 -0.5987280197255052 25.068172020858484 13.185170885346444 -1 -1 0
286 0 1 0 4.504327432844078 17.038849623012386 13.914243297007832 1 -2 0
234 0 2 0 -5.607038648927093 14.593599437444395 0.7346089375165461 1 0 0
599 0 2 0 -0.2825054322658751 4.933446638586004 7.897517748736664 0 1 0
972 0 2 0 3.3985083175717277 22.905681022489304 12.90907088815576 0 -1 0
1214 0 2 0 2.6397377205960995 7.014334010962366 14.985836773547149 0 -1 0
1146 0 2 0 9.897579054245371 7.887732204775262 14.450584381125646 1 1 0
783 0 2 0 3.360842512951982 7.823266710364544 12.151112199376655 -1 0 0
362 0 2 0 5.26968809072472 10.599429733854985 1.108593437616987 2 1 0
1076 0 2 0 0.12034761392328475 9.387242246965776 2.8953911070345533 1 0 0
45 0 2 0 3.1018922097247335 22.099748745812562 8.878902324031278 0 0 0
475 0 1 0 -4.604171931559783 10.639187619269002 -0.09085182685869508 0 -1 0
1555 0 1 0 -3.0076571396148104 23.13721293980876 10.395468464061839 0 -1 0
169 0 1 0 -5.824673022450169 25.034225968224366 13.258753155507078 0 -2 0
1158 0 2 0 8.954764886701131 10.579462420901843 4.8581147599136445 0 1 0
1266 0 2 0 11.458492856127732 2.311054805120383 2.168845072307821 1 0 0
363 0 2 0 6.094636631319831 9.358540037309893 1.3664618093060061 1 1 0
211 0 1 0 2.6845673828304246 16.081832420710885 3.1939690845622586 0 0 0
946 0 1 0 -0.07065290854398276 14.313602329906022 0.6098974590703592 0 0 0
985 0 1 0 8.826045497701749 6.297965608319677 11.985946152161146 1 0 0
85 0 1 0 -2.4135790126369097 8.190430614192486 6.400123273982288 0 1 0
1153 0 1 0 -3.8448629040106255 21.51686090122853 15.280662466606316 0 -1 0
921 0 2 0 -7.821161468596652 13.681532961112925 15.421275800284459 1 1 0
1291 0 1 0 -1.4659398366059406 5.9308987603966115 9.421107322164223 1 2 0
635 0 2 0 5.052798856676118 2.5097343362812854 2.524812021312993 0 2 0
994 0 1 0 7.038094426411175 8.124862801274606 13.004058705605724 1 0 0
441 0 2 0 -0.31630241794176284 22.72763914492418 12.184807606372901 0 -2 0
92 0 2 0 6.665804409525492 3.3110950799460195 0.6582615113474319 1 0 0
1081 0 1 0 5.194946891357173 20.617326028472306 7.159664730008322 -1 1 0
9 0 2 0 4.1792602609527645 10.937934957542982 10.422944289649944 0 1 0
870 0 2 0 -1.0123277371873836 4.206178145765213 10.022464262298021 0 0 0
2401 0 1 0 -3.498995747346235 12.148582053146596 8.223041651031343 0 -1 0
688 0 1 0 8.83152636287343 4.8688597814849475 1.5582604206266004 -1 0 0
1097 0 2 0 3.330580128240079 19.3890009360462 0.9824378016617279 0 0 0
1241 0 2 0 -0.6712299011260223 3.5609332337275523 -0.24192675563194865 0 -1 0
356 0 2 0 10.082716772841822 3.6097835123683515 6.469353815897112 0 0 0
551 0 2 0 7.10854040644603 14.773358864612229 3.186348455384163 0 1 1
594 0 2 0 -2.0312842198626204 22.282541450843862 7.308992810898858 1 2 0
458 0 2 0 -5.5243712108618395 20.422275517493933 2.978311587766547 1 0 0
510 0 2 0 -7.343413541556719 20.15903334884739 8.243037429669391 2 2 0
957 0 2 0 2.699368354790581 7.4226373142500925 8.448391105707303 1 0 0
513 0 2 0 1.9951717737233423 24.577548384456954 13.641409108770404 0 0 0
310 0 1 0 1.4938296103253936 18.986493301329716 11.93156758702138 0 0 0
147 0 2 0 2.617254833346265 8.971137477949199 0.43923512258440556 0 1 0
252 0 2 0 0.3427724782555881 4.1029246957121455 2.7161587052845744 1 -1 0
1234 0 1 0 -6.224104589740561 13.01817214306796 15.949911261051604 0 0 0
781 0 1 0 4.254041383164751 8.079227232489915 11.977974125968185 -1 0 0
791 0 2 0 4.010674333252206 21.318998429479752 4.463394743362874 1 1 0
62 0 2 0 -7.905833014240345 15.767291937356577 9.39803056409769 0 0 0
335 0 2 0 7.527788610794801 14.847200855794076 7.070829526089637 0 -2 0
928 0 1 0 -1.8557259965457464 17.937001775103575 13.865846127723955 -1 -1 0
84 0 2 0 -2.5689604531925267 16.956747662409047 4.137368295670109 1 1 1
177 0 2 0 5.278369699620211 12.624282211804541 6.912265771194652 0 0 0
438 0 2 0 -0.7472879362177542 3.5358800485924218 5.117831959430733 1 2 0
865 0 1 0 -2.109775725895461 5.197842611120766 13.372141625426623 1 1 0
1162 0 1 0 4.108925816395981 10.772771042136387 14.752345624921336 -1 0 0
40 0 1 0 3.9227979200778975 19.509956796872153 13.210432161912545 1 1 0
1129 0 1 0 4.815919189863674 18.04669690998212 8.318808885215777 0 -1 0
817 0 1 0 -2.534253435321302 9.61258201631706 9.037946385984755 0 0 0
215 0 2 0 -4.194161368852456 16.642734665441633 11.716327875987034 1 1 0
868 0 1 0 -10.028155100450988 24.717784525246454 10.124072502257167 0 -1 1
1016 0 2 0 3.9680211242421977 21.419752688450664 -0.16619800156539277 0 -1 0
479 0 2 0 -7.505063300786626 18.235873573335333 6.8520655016808245 0 1 0
273 0 2 0 5.859226853366272 15.73316078704839 10.467716348131606 1 1 0
696 0 2 0 5.243123171208989 18.09534544947261 2.50600357145292 0 0 0
976 0 1 0 2.1865255510204724 6.628283354743372 3.7344075759722344 0 0 0
109 0 1 0 -0.8779823809229068 10.13553308466393 13.569035752314502 0 0 0
484 0 1 0 -5.574019400057907 20.900066974511503 8.58676185691156 1 1 0
952 0 1 0 5.108510153622301 5.946978717902137 10.37931483398718 1 1 0
28 0 1 0 -3.6808796089840667 19.457865886309545 7.436325026037304 0 0 0
298 0 1 0 -3.1014225498401173 15.724014881961335 3.1564712667201382 0 -1 0
1260 0 2 0 6.08222989662258 14.47855567348434 14.08270896103864 1 0 0
911 0 2 0 -3.086183108935261 21.083076099496203 0.751121658425415 0 -1 0
805 0 1 0 -3.7332427018945724 9.123949270456343 15.317468552152063 1 0 0
618 0 2 0 3.8213766305812693 12.503685831702846 3.550408709951 1 1 0
2185 0 1 0 -0.4333352907602703 6.939621516169792 -0.2428071386482285 0 0 0
200 0 2 0 2.0285919534518455 11.433266985057065 9.091884399762769 0 -1 0
995 0 2 0 7.742035641535605 7.5699517589808245 12.715612831860655 1 0 0
597 0 2 0 0.68284646423791 5.20337056579348 12.724734179312376 0 0 0
149 0 2 0 -2.7135854599693126 5.749182321459096 1.680366984484547 1 0 0
930 0 2 0 -1.7134344804279333 17.268378168531804 13.206666151965104 -1 -1 0
740 0 2 0 7.483734314272417 8.568051005010592 2.768491513784876 -1 0 0
1018 0 1 0 12.305852583226491 4.385836966428164 4.324627129975279 -1 0 0
288 0 2 0 3.7523959046361166 16.434963760677107 14.089223996868206 1 -2 0
526 0 1 0 3.4615068174431194 4.4406261449265525 0.6862142439080112 0 0 0
970 0 1 0 3.862617388806875 22.621538503983924 12.125576597549939 0 -1 0
102 0 2 0 3.456794300380766 21.072501311888956 15.999867592550299 0 0 0
86 0 2 0 -2.3064914943538777 8.627165880410308 7.264357575165728 0 1 0
204 0 2 0 6.786318366484203 7.72931340563601 4.908040214925705 0 -2 0
1292 0 2 0 -2.154497521489584 5.695149233412052 8.847326403770483 1 2 0
360 0 2 0 0.8376237112491305 10.262561443362607 10.342567455030602 0 0 0
782 0 2 0 4.804547447523158 7.970375107272834 12.790603372310487 -1 0 0
616 0 1 0 4.369643922929533 13.181554166059314 3.953092237624513 1 1 0
457 0 1 0 -5.693955990940821 20.703611588273095 3.9017970737043433 1 0 0
464 0 2 0 9.300771051257843 2.6274640505008042 4.6420002498483175 0 0 0
419 0 2 0 -6.421208748391979 22.391014765095637 13.881241052056987 2 1 0
929 0 2 0 -2.4968832382698465 18.44858917767529 13.414391420800069 -1 -1 0
912 0 2 0 -4.045601293585374 21.495131821571047 -0.30896972383143406 0 -1 0
481 0 1 0 2.4341064600322633 14.137059221377466 1.3622358097567262 0 0 0
460 0 1 0 4.272063802682268 15.223308762904344 5.759273279017654 -1 1 0
1245 0 2 0 7.624631442724353 12.554628965445167 4.618611311608055 -1 0 0
1209 0 2 0 5.399992791803055 6.3904258983178615 3.3046557001670527 0 1 0
1004 0 2 0 3.012857338644963 3.86416397532875 5.190534362875684 1 -1 0
389 0 2 0 -9.028737420251721 21.462889280549938 2.1063383312048485 1 0 0
521 0 2 0 -5.832738893461516 17.96920434720279 5.352309405883879 1 -1 0
956 0 2 0 1.3200904207256001 6.73943456681837 8.442029376878894 1 0 0
712 0 1 0 -7.690344557323568 23.353287152193246 9.993171927065921 0 -1 0
963 0 2 0 6.819770066133587 17.32761283553138 5.9731328350321675 -1 -2 0
689 0 2 0 8.102315220787041 4.284584775604018 1.79171085061864 -1 0 0
811 0 1 0 7.957828964306319 11.659344579791881 1.4080611932804903 0 0 0
444 0 2 0 -2.9121407064032203 22.17306249480898 5.0053356978501835 0 -1 0
971 0 2 0 3.206878763900567 22.33374250529132 11.469928605777758 0 -1 0
812 0 2 0 8.733366969606253 12.29085000818273 1.207724059267003 0 0 0
1094 0 2 0 8.573657885749789 4.896623043732113 8.657278388659451 0 1 0
132 0 2 0 7.948779077554189 6.117214337204302 10.558527016912375 2 1 0
240 0 2 0 3.572855186848043 14.773098886823332 10.449419344991517 1 0 0
482 0 2 0 3.110447178223113 14.250795594681286 0.6646345093706083 0 0 0
41 0 2 0 4.3496284750286405 19.708648120343824 12.377461731059295 1 1 0
531 0 2 0 -5.0878335402415935 11.85159655499977 2.5578398908020925 2 1 0
907 0 1 0 -1.225774032511847 8.149150828098342 15.299971785541242 1 0 0
987 0 2 0 9.639562558689516 6.770839338890308 11.728352591286196 1 0 0
847 0 1 0 -2.204672882191821 16.789600176881628 7.036010874998312 1 2 0
704 0 2 0 -7.132790791821554 15.855218538991762 6.1127696793383235 0 0 0
966 0 2 0 2.228291899253839 12.929612435359566 14.014641140443882 0 -1 0
896 0 2 0 -8.447823783682853 23.166918528643556 15.014981791502713 0 -1 0
818 0 2 0 -3.160357916766269 9.608815325640464 9.790899116651035 0 0 0
897 0 2 0 -7.4801521177900065 22.30802673609228 15.81594063495844 0 -1 0
87 0 2 0 -2.0474294588761035 7.326333015285217 6.564200990258732 0 1 0
539 0 2 0 -4.010880452325306 23.799699897420872 7.543865126032893 0 0 0
130 0 1 0 7.77392398984488 6.055420888369588 9.582956799733156 2 1 0
1131 0 2 0 5.587871501074114 17.489537938594477 8.008463694065172 0 -1 0
809 0 2 0 -7.376703960821772 22.728939447195724 6.845130662479106 0 0 0
744 0 2 0 0.7672499433555555 24.040512885451253 10.448105514875316 -1 0 0
133 0 1 0 -4.688633473762023 18.929566483721068 13.775997208916731 1 0 0
245 0 2 0 5.06061403829877 6.670805478636629 7.682817885830454 1 0 0
442 0 1 0 -3.8414002570882944 22.467431684137747 4.684187918938835 0 -1 0
214 0 1 0 -3.728455278023187 15.867249122545587 12.111186447051416 1 1 0
158 0 2 0 5.207074342639321 17.31128269511519 12.343058534709787 0 0 0
1281 0 2 0 -9.89770338109454 22.833595243276285 12.124726317393552 1 0 0
463 0 1 0 8.508119608062204 2.38024207990142 4.130332269517444 0 0 0
819 0 2 0 -1.672644646162368 9.66868021447399 9.526877064358374 0 0 0
1249 0 1 0 -1.2625974151774129 11.624410687498848 1.1335400772460174 0 -1 0
807 0 2 0 -4.560468858246141 8.59512975137335 15.25617627569866 1 0 0
1083 0 2 0 4.493433179897539 20.9573997115148 6.572746967812362 -1 1 0
134 0 2 0 -5.520774190403982 19.41734958402552 13.928437589636134 1 0 0
1286 0 2 0 -3.9199856254602903 14.044930670861428 5.3931874499715065 1 -1 0
610 0 1 0 5.759649424484323 5.207227780709887 6.9294207723114845 0 1 0
823 0 1 0 7.488307280914397 15.05422529526113 -0.1282587292776622 0 1 0
522 0 2 0 -5.250526124472955 19.154623678469935 4.656009507978471 1 -1 0
750 0 2 0 -3.629815858091634 20.315244583767498 12.068397385024113 1 0 0
562 0 1 0 7.460616923418139 10.09010852112125 7.729260689036812 -1 0 0
1180 0 1 0 1.9680803128606743 12.891785356343535 6.222971919173247 0 -1 0
70 0 1 0 1.1902166818822097 16.31890105759333 12.168130169022298 0 -2 0