LAMMPS (23 Jun 2022)
include procedure.lmp
echo both
include		in.partitions
variable        pid world 0
include		in.temp
variable	temperature equal 250
variable        tempDamp equal 0.100 # this is 0.1 ps
include		in.pressure
variable        pressure equal 3039.75
variable        pressureDamp equal 1.0 #this is 1ps

variable	barostat string	   tri
variable	direction string   z
variable	direction_x_bool equal 0
variable	direction_y_bool equal 0
variable	direction_z_bool equal 1

include		in.seed
variable        seed world 745823

units           metal
atom_style	full
box tilt large
read_restart 	restart.lmp.${pid}
read_restart 	restart.lmp.0
Reading restart file ...
  restart file = 23 Jun 2022, LAMMPS = 23 Jun 2022
  restoring atom style full from restart
  triclinic box = (0 0 -0.55679281) to (31.138 21.471905 32.752632) with tilt (-9.185133 -9.0075824 10.766152)
WARNING: Triclinic box skew is large (../domain.cpp:224)
  2 by 1 by 2 MPI processor grid
Summary of lammps deepmd module ...
  >>> Info of deepmd-kit:
  installed to:       /u/sigbjobo/software/DEEPMD_FROM_SOURCE/deepmd-kit/install
  source:             v2.1.3
  source branch:       master
  source commit:      5a32c49
  source commit at:   2022-07-01 09:52:58 +0800
  surpport model ver.:1.1 
  build float prec:   double
  build with tf inc:  /u/sigbjobo/software/DEEPMD_FROM_SOURCE/tensorflow/install/include;/u/sigbjobo/software/DEEPMD_FROM_SOURCE/tensorflow/install/include
  build with tf lib:  /u/sigbjobo/software/DEEPMD_FROM_SOURCE/tensorflow/install/lib/libtensorflow_cc.so;/u/sigbjobo/software/DEEPMD_FROM_SOURCE/tensorflow/install/lib/libtensorflow_framework.so
  set tf intra_op_parallelism_threads: 0
  set tf inter_op_parallelism_threads: 0
  >>> Info of lammps module:
  use deepmd-kit at:  /u/sigbjobo/software/DEEPMD_FROM_SOURCE/deepmd-kit/install
  source:             v2.1.3
  source branch:      master
  source commit:      5a32c49
  source commit at:   2022-07-01 09:52:58 +0800
  build float prec:   double
  build with tf inc:  /u/sigbjobo/software/DEEPMD_FROM_SOURCE/tensorflow/install/include;/u/sigbjobo/software/DEEPMD_FROM_SOURCE/tensorflow/install/include
  build with tf lib:  /u/sigbjobo/software/DEEPMD_FROM_SOURCE/tensorflow/install/lib/libtensorflow_cc.so;/u/sigbjobo/software/DEEPMD_FROM_SOURCE/tensorflow/install/lib/libtensorflow_framework.so
  restoring pair style deepmd from restart
  2592 atoms
Finding 1-2 1-3 1-4 neighbors ...
  special bond factors lj:    0        0        0       
  special bond factors coul:  0        0        0       
     0 = max # of 1-2 neighbors
     0 = max # of 1-3 neighbors
     0 = max # of 1-4 neighbors
     1 = max # of special neighbors
  special bonds CPU = 0.000 seconds
  read_restart CPU = 0.032 seconds
include 	in.setup
variable	out_freq equal 2000
variable	out_freq2 equal 2000

timestep        0.0005

neigh_modify    delay 7 every 1

include         in.deepmd
# This is deepMD model

# create groups ###
#group ox type 2
#group hy type 1

mass 2 15.999
mass 1 1.008

pair_style      deepmd ../graph.pb
pair_coeff      * *

bond_style      none
angle_style     none
dihedral_style  none
improper_style  none
neigh_modify exclude none


neighbor        2.0 bin
neigh_modify    every 50 delay 0 check no

thermo          ${out_freq}
thermo          2000
thermo_style 	custom step temp pe etotal epair emol press lx ly lz vol pxx pyy pzz pxy pxz pyz

restart 	${out_freq} restart.lmp.${pid} restart2.lmp.${pid}
restart 	2000 restart.lmp.${pid} restart2.lmp.${pid}
restart 	2000 restart.lmp.0 restart2.lmp.${pid}
restart 	2000 restart.lmp.0 restart2.lmp.0


timer           timeout 23:50:00 every 1000
New timer settings: style=normal  mode=nosync  timeout=23:50:00


# Set number of time steps
variable 	nsteps_wall		equal	 6000000
variable 	nsteps_enhanced_coex    equal	300000000

variable     nsteps_enhanced_coex_upto equal (${nsteps_wall}+${nsteps_enhanced_coex})
variable     nsteps_enhanced_coex_upto equal (6000000+${nsteps_enhanced_coex})
variable     nsteps_enhanced_coex_upto equal (6000000+300000000)


# Set temperature for first step
if "$(step) < 1  " then    "velocity 	all create ${temperature} ${seed} dist gaussian"


# Always run thermo and barostat


######################################
# Run simulation with wall potential #
######################################
if " $(step) < ${nsteps_wall} " then    "fix             3 all plumed plumedfile plumed.equil.dat outfile plumed.equil.out"   "fix             1 all nph ${direction} ${pressure} ${pressure} ${pressureDamp}"   "fix             2 all temp/csvr ${temperature} ${temperature} ${tempDamp} ${seed}"   "run             ${nsteps_wall} upto"
if " $(step) == ${nsteps_wall} " then    "unfix 3"   "unfix 1"   "unfix 2"


############################
# Run enhanced coesistence #
############################
if "$(step) == ${nsteps_wall}" then    "fix             3 all plumed plumedfile plumed.start.dat outfile plumed.out" else    "fix             3 all plumed plumedfile plumed.dat outfile plumed.out"
fix             3 all plumed plumedfile plumed.dat outfile plumed.out

if "$(step) < ${nsteps_enhanced_coex_upto} && $(step) >= ${nsteps_wall} " then    "include         in.dump"    "fix             1 all nph ${direction} ${pressure} ${pressure} ${pressureDamp}"   "fix             2 all temp/csvr ${temperature} ${temperature} ${tempDamp} ${seed}"   "run             ${nsteps_enhanced_coex_upto} upto"    "unfix 3"   "unfix 1"   "unfix 2"
include         in.dump
dump            myDump all atom ${out_freq2} dump.water.${pid}
dump            myDump all atom 2000 dump.water.${pid}
dump            myDump all atom 2000 dump.water.0
dump            myDump2 all dcd ${out_freq2} dump.${pid}.dcd
dump            myDump2 all dcd 2000 dump.${pid}.dcd
dump            myDump2 all dcd 2000 dump.0.dcd
dump_modify     myDump append yes
dump_modify     myDump2 append yes

fix             1 all nph ${direction} ${pressure} ${pressure} ${pressureDamp}
fix             1 all nph z ${pressure} ${pressure} ${pressureDamp}
fix             1 all nph z 3039.75 ${pressure} ${pressureDamp}
fix             1 all nph z 3039.75 3039.75 ${pressureDamp}
fix             1 all nph z 3039.75 3039.75 1
fix             2 all temp/csvr ${temperature} ${temperature} ${tempDamp} ${seed}
fix             2 all temp/csvr 250 ${temperature} ${tempDamp} ${seed}
fix             2 all temp/csvr 250 250 ${tempDamp} ${seed}
fix             2 all temp/csvr 250 250 0.1 ${seed}
fix             2 all temp/csvr 250 250 0.1 745823
run             ${nsteps_enhanced_coex_upto} upto
run             306000000 upto

CITE-CITE-CITE-CITE-CITE-CITE-CITE-CITE-CITE-CITE-CITE-CITE-CITE

Your simulation uses code contributions which should be cited:

- USER-DEEPMD package:

@article{Wang_ComputPhysCommun_2018_v228_p178,
  author = {Wang, Han and Zhang, Linfeng and Han, Jiequn and E, Weinan},
  doi = {10.1016/j.cpc.2018.03.016},
  url = {https://doi.org/10.1016/j.cpc.2018.03.016},
  year = 2018,
  month = {jul},
  publisher = {Elsevier {BV}},
  volume = 228,
  journal = {Comput. Phys. Commun.},
  title = {{DeePMD-kit: A deep learning package for many-body potential energy representation and molecular dynamics}},
  pages = {178--184}
}

CITE-CITE-CITE-CITE-CITE-CITE-CITE-CITE-CITE-CITE-CITE-CITE-CITE

Generated 0 of 1 mixed pair_coeff terms from geometric mixing rule
Neighbor list info ...
  update every 50 steps, delay 0 steps, check no
  max neighbors/atom: 2000, page size: 100000
  master list distance cutoff = 8
  ghost atom cutoff = 8
  binsize = 4, bins = 13 9 9
  1 neighbor lists, perpetual/occasional/extra = 1 0 0
  (1) pair deepmd, perpetual
      attributes: full, newton on
      pair build: full/bin
      stencil: full/bin/3d
      bin: standard
Per MPI rank memory allocation (min/avg/max) = 6.232 | 6.232 | 6.233 Mbytes
   Step          Temp          PotEng         TotEng         E_pair         E_mol          Press            Lx             Ly             Lz           Volume          Pxx            Pyy            Pzz            Pxy            Pxz            Pyz      
 193813000   255.8982      -417.00519     -331.30155     -417.00519      0              3501.9237      31.138         21.471905      33.309425      22270.421      2538.0584      2001.7935      5965.9191     -842.0566       330.0364       672.07084    
 193814000   252.73529     -416.40039     -331.75605     -416.38617      0              1176.005       31.138         21.471905      33.512056      22405.899      1022.5641      2044.877       460.57389      67.30225       547.5497      -1207.7663    
 193816000   250.5931      -414.93208     -331.00518     -414.91774      0              3060.3989      31.138         21.471905      33.541286      22425.441      4261.4305      2244.8143      2674.9518     -121.56921     -268.53993     -756.87823    
 193818000   248.96384     -415.6244      -332.24317     -415.60963      0              3292.624       31.138         21.471905      33.610306      22471.588      2924.3764      3726.0069      3227.4888      394.52131     -271.36636     -357.7706     
 193820000   253.75781     -415.75046     -330.76366     -415.73776      0              1791.1289      31.138         21.471905      33.491897      22392.42       217.00702      2495.4304      2660.9492      1069.1107      2967.3881     -868.89162    
 193822000   255.07488     -414.06522     -328.63732     -414.04983      0              3117.1251      31.138         21.471905      33.498988      22397.161      3488.1841      2824.2166      3038.9745     -1375.7015      824.50158     -577.91208    
 193824000   254.39046     -415.73065     -330.53196     -415.71685      0              2284.4983      31.138         21.471905      33.597418      22462.971      2287.6666      2754.9984      1810.83       -369.84004      400.84824      1755.4864    
 193826000   250.25348     -412.607       -328.79385     -412.59265      0              3506.9358      31.138         21.471905      33.610598      22471.783      2695.9244      3908.4968      3916.3862     -53.950966      1011.9738     -196.97422    
 193828000   255.50737     -416.5351      -330.96235     -416.52031      0              1579.9646      31.138         21.471905      33.630024      22484.771      1739.1139      1512.8707      1487.9091      1329.108      -279.54592     -490.23932    
 193830000   248.37213     -415.11913     -331.93606     -415.105        0              3086.8137      31.138         21.471905      33.53235       22419.467      1889.9386      3196.3726      4174.13       -1110.8625     -458.39169     -71.713804    
 193832000   247.19042     -415.89741     -333.11012     -415.88383      0              2405.9193      31.138         21.471905      33.577548      22449.686      2495.882       1220.2772      3501.5986      746.55161      1078.0971      1167.1769    
 193834000   248.37547     -418.18676     -335.00258     -418.17583      0              2407.3957      31.138         21.471905      33.591069      22458.726      2027.9638      2453.7449      2740.4784     -473.32288     -239.99109     -490.74021    
 193836000   248.61258     -418.18829     -334.9247      -418.18067      0              2475.5827      31.138         21.471905      33.524573      22414.268      3984.7766      850.69377      2591.2777     -702.45906      616.96813      1139.2671    
 193838000   261.04904     -414.51337     -327.08464     -414.49918      0              3433.7934      31.138         21.471905      33.512208      22406          2916.8183      2878.574       4505.9879      670.37867     -60.02646       1852.7822    
 193840000   253.52701     -414.25282     -329.34332     -414.23939      0              3801.3551      31.138         21.471905      33.261516      22238.39       3630.6997      4187.3617      3586.004      -22.433364      1423.5363      717.02155    
 193842000   247.87307     -416.2842      -333.26828     -416.27087      0              988.92408      31.138         21.471905      33.600686      22465.155      2047.0475     -209.53772      1129.2625     -520.59023      95.113448     -545.51874    
 193844000   250.38225     -411.21763     -327.36135     -411.20281      0              4127.4031      31.138         21.471905      33.47645       22382.092      3637.7208      3449.9789      5294.5096     -1014.0188      278.87456      1242.2061    
 193846000   251.80911     -414.65531     -330.32116     -414.63996      0              2694.2585      31.138         21.471905      33.410016      22337.675      1203.3139      2598.7171      4280.7444     -1179.7665      2243.0551     -173.26193    
 193848000   246.04875     -416.8375      -334.43256     -416.82643      0              3449.5336      31.138         21.471905      33.242749      22225.842      3667.2403      3283.1815      3398.1789     -1361.5063      783.97829      727.35831    
 193850000   248.00253     -416.25259     -333.19331     -416.23993      0              3649.6881      31.138         21.471905      33.454185      22367.206      3826.0496      3017.1371      4105.8776      205.37983      2876.2532     -57.134507    
 193852000   244.48444     -415.11851     -333.23749     -415.10461      0              3472.7958      31.138         21.471905      33.437742      22356.213      3713.8351      3264.6539      3439.8985      86.353264      2642.6377     -126.31718    
 193854000   249.71935     -419.22463     -335.59037     -419.21857      0              2985.3617      31.138         21.471905      33.402815      22332.861      4349.8988      3918.4079      687.77828      889.66978      1249.9909      282.86379    
 193856000   251.22155     -416.52735     -332.38998     -416.51665      0              2345.1161      31.138         21.471905      33.402727      22332.802      5544.4454      1893.0722     -402.1692      -1696.7028     -659.48646      727.23476    
 193858000   248.50869     -417.77005     -334.54125     -417.76294      0              1910.5053      31.138         21.471905      33.438347      22356.617      3282.6713      1745.2206      703.62399      1144.5843     -735.62079     -453.44425    
 193860000   250.86774     -416.61016     -332.59129     -416.60139      0              3182.535       31.138         21.471905      33.457415      22369.366      3187.0269      3347.3109      3013.2671      239.4991      -407.97093     -577.6766     
 193862000   250.73752     -413.64451     -329.66925     -413.63064      0              2307.0597      31.138         21.471905      33.511033      22405.214      2327.3378      2720.9474      1872.8941      1345.5417     -262.61723     -15.643826    
 193864000   253.1562      -412.64485     -327.85954     -412.63017      0              2849.4055      31.138         21.471905      33.425986      22348.353      2624.7916      2454.8987      3468.5262      256.70658     -503.64331      371.44264    
 193866000   249.15076     -415.32149     -331.87765     -415.31144      0              4682.8256      31.138         21.471905      33.310926      22271.425      4615.4002      4057.3396      5375.7372     -954.13467     -806.2156       841.76742    
 193868000   250.19284     -413.96188     -330.16903     -413.94836      0              2739.9677      31.138         21.471905      33.356101      22301.628      3030.7261      2048.432       3140.745       1472.3657     -404.31386      1312.808     
 193870000   243.27428     -416.14844     -334.67271     -416.13894      0              5650.2023      31.138         21.471905      33.308601      22269.87       6288.5799      3343.1889      7318.8379     -342.10369     -319.39337      1310.9041    
 193872000   248.72448     -416.09632     -332.79525     -416.08267      0              4280.7382      31.138         21.471905      33.499299      22397.369      5215.5724      2115.2227      5511.4196      930.47747      530.31764      929.81271    
 193874000   252.3968      -418.13544     -333.60446     -418.12295      0              1644.4469      31.138         21.471905      33.390943      22324.923      1957.7962      233.01155      2742.5331     -133.56425     -146.74261      364.99834    
 193876000   254.21864     -414.07006     -328.92893     -414.0552       0              3378.6638      31.138         21.471905      33.252861      22232.603      4461.7711      3269.8209      2404.3993      141.01623     -1944.2444      2479.7623    
 193878000   247.47401     -419.58706     -336.70479     -419.57601      0              5251.6099      31.138         21.471905      33.19464       22193.677      5207.0124      5640.201       4907.6162      1200.8067      1898.9314      1456.7147    
 193880000   249.19603     -415.5967      -332.1377      -415.58565      0              1789.1198      31.138         21.471905      33.210453      22204.249      2700.8238      1948.6139      717.92172     -352.6292      -290.66648      1693.8052    
 193882000   245.87648     -417.8678      -335.52056     -417.86596      0              2090.4581      31.138         21.471905      33.33093       22284.799      1351.8656      1442.0308      3477.4779      1167.2476     -1506.33       -35.081025    
 193884000   252.12039     -420.80056     -336.36215     -420.79534      0              2749.268       31.138         21.471905      33.156903      22168.446      2789.2153      3207.2646      2251.3241     -687.61725     -743.08806      2082.3576    
 193886000   251.23332     -418.97656     -334.83525     -418.9679       0              1694.4093      31.138         21.471905      33.254375      22233.615      308.78656      2722.4085      2052.0328      1137.6438     -66.365018     -368.02782    
 193888000   251.91635     -417.28489     -332.91482     -417.27779      0              3487.5673      31.138         21.471905      33.214875      22207.206      5842.7588      2118.614       2501.3292     -573.2258      -546.12188      374.46388    
 193890000   250.61276     -420.87417     -336.94069     -420.86554      0              2638.1439      31.138         21.471905      33.092473      22125.369      4032.1648      2360.9472      1521.3198      289.70998     -478.87903      359.1047     
 193892000   244.04503     -416.93752     -335.20365     -416.92821      0              2234.616       31.138         21.471905      33.136103      22154.539      2274.3886      2796.2146      1633.2448      951.84734     -1174.7767     -979.65049    
 193894000   248.52788     -417.84338     -334.60815     -417.83047      0              4865.809       31.138         21.471905      33.210712      22204.422      4220.0113      5332.1566      5045.2592     -782.18504      301.55179      544.75961    
 193896000   250.09063     -416.03375     -332.27514     -416.02561      0              2967.8008      31.138         21.471905      33.269502      22243.729      3129.0725      3736.6201      2037.7098      1179.4507      614.07147      313.82678    
 193898000   251.2965      -417.06401     -332.90154     -417.0534       0              5224.6528      31.138         21.471905      33.224286      22213.498      4868.8327      5103.4644      5701.6613     -1837.7935      489.09154      3210.1164    
 193900000   253.81651     -418.54844     -333.54198     -418.53765      0              4047.3359      31.138         21.471905      33.300517      22264.465      3772.3496      4661.6242      3708.0338      2617.6615      773.10281     -509.03529    
 193902000   244.22442     -419.05001     -337.25607     -419.04684      0              3715.2365      31.138         21.471905      33.113404      22139.363      3614.5909      3414.6297      4116.489       341.33095      983.73371      642.82116    
 193904000   249.61288     -417.53233     -333.93372     -417.51815      0              3763.0796      31.138         21.471905      33.23819       22222.794      4579.1048      3228.1531      3481.9809     -898.32251      383.23717      1318.9047    
 193906000   257.37346     -418.74051     -332.54278     -418.72755      0              2903.4037      31.138         21.471905      33.359022      22303.581      2970.3131      4495.4819      1244.4159      321.34032      1612.7933     -679.23818    
 193908000   241.71107     -415.62475     -334.67256     -415.62137      0              3637.3415      31.138         21.471905      33.368583      22309.974      3325.9388      3700.1927      3885.893      -125.21839      420.9419       220.70031    
 193910000   247.46895     -417.68045     -334.79988     -417.66884      0              2945.3799      31.138         21.471905      33.380135      22317.697      4428.5451      2902.1281      1505.4666     -150.71528      328.18222      116.45382    
 193912000   251.79101     -417.86959     -333.5415      -417.86296      0              1526.4197      31.138         21.471905      33.430823      22351.587      1474.5057      1830.5999      1274.1534      1184.3182      1355.3506      395.02096    
 193914000   252.72849     -418.40157     -333.75951     -418.38685      0              3121.0156      31.138         21.471905      33.399295      22330.507      2545.8759      3985.0635      2832.1074     -1014.9184     -670.27148     -476.20833    
 193916000   245.9283      -416.47188     -334.10728     -416.45994      0              2961.4819      31.138         21.471905      33.369507      22310.591      3130.1465      2340.0266      3414.2725      471.33007     -902.24018     -1125.1636    
 193918000   248.36824     -416.94638     -333.76462     -416.93144      0              4013.5838      31.138         21.471905      33.540502      22424.917      3294.054       3377.7612      5368.9362      672.39599     -1099.7378     -286.31169    
 193920000   251.87951     -417.41926     -333.06153     -417.40469      0              3360.7427      31.138         21.471905      33.550852      22431.837      2503.6998      4485.8651      3092.6632     -348.41071     -36.946707     -1045.2794    
 193922000   252.85835     -416.86772     -332.18216     -416.85232      0              2303.3931      31.138         21.471905      33.487958      22389.787      1603.6155      3220.5765      2085.9873      862.249        769.06306      1153.1919    
 193924000   246.59946     -415.65999     -333.07062     -415.64625      0              3202.3591      31.138         21.471905      33.533965      22420.547      2701.3703      944.12037      5961.5865      1401.5514      91.551077      1085.2121    
 193926000   248.00178     -416.18461     -333.12558     -416.17103      0              3928.3125      31.138         21.471905      33.552073      22432.653      6100.1267      2012.8995      3671.9113      600.88288     -1146.3316     -259.97896    
 193928000   247.83104     -413.43087     -330.42903     -413.41656      0              5274.7838      31.138         21.471905      33.600379      22464.951      6762.0228      5597.0297      3465.2988      1271.8318     -586.68582     -831.70102    
 193930000   248.28218     -417.20052     -334.04758     -417.18598      0              1010.4349      31.138         21.471905      33.576001      22448.651     -957.7192       1697.7534      2291.2705      2088.2091     -290.99314      405.35765    
 193932000   255.92023     -415.70068     -329.98966     -415.6853       0              4262.1513      31.138         21.471905      33.620217      22478.214      5275.3557      5142.8965      2368.2016      1132.5569     -689.1984      -912.23626    
 193934000   248.75209     -415.34667     -332.03636     -415.33226      0              3480.1042      31.138         21.471905      33.372156      22312.363      3494.7618      2428.0083      4517.5426     -224.22438      313.04862      712.55075    
 193936000   251.90217     -418.05956     -333.69424     -418.04683      0              2666.2971      31.138         21.471905      33.344485      22293.862      3884.034       1628.0159      2486.8416      1533.857      -829.19807      443.82176    
 193938000   253.43084     -412.75561     -327.87832     -412.74042      0              4560.6259      31.138         21.471905      33.424949      22347.66       4107.3549      5224.2948      4350.2281      288.04756      747.5481      -1500.582     
 193940000   250.27974     -414.57673     -330.75478     -414.56292      0              3508.3552      31.138         21.471905      33.37857       22316.651      4140.0109      3638.3493      2746.7054     -570.73408     -1215.6514     -757.45914    
 193942000   255.53696     -417.38825     -331.80559     -417.37611      0              3143.938       31.138         21.471905      33.379204      22317.074      4991.3992      2660.2125      1780.2023     -94.81149      -688.37699      422.90589    
 193944000   247.52722     -418.5248      -335.62471     -418.51449      0              3660.1841      31.138         21.471905      33.372153      22312.36       4198.5927      2483.2006      4298.759      -502.26911      640.85625     -298.55731    
 193946000   253.17016     -414.2042      -329.41422     -414.19175      0              2063.1015      31.138         21.471905      33.508513      22403.529      4165.2374      438.07995      1585.987      -674.70257      2639.8292     -224.08453    
 193948000   248.74771     -416.41643     -333.10757     -416.40105      0              2907.1542      31.138         21.471905      33.541126      22425.335      2159.0155      1490.7385      5071.7086      643.01408      575.37354      100.17174    
 193950000   244.99831     -413.61732     -331.5642      -413.60214      0              3797.2784      31.138         21.471905      33.733713      22554.097      4591.0276      4628.5014      2172.3061      995.08375     -528.2284      -1332.6204    
 193952000   243.5504      -418.30653     -336.73833     -418.29568      0              3235.2883      31.138         21.471905      33.496813      22395.707      2491.5461      3523.7188      3690.6002     -280.90623      1246.577       1012.3734    
 193954000   246.78458     -413.52091     -330.86954     -413.50559      0              3291.4645      31.138         21.471905      33.483771      22386.987      4797.0907      2597.3079      2479.9951     -80.820136     -228.97083     -245.53773    
 193956000   253.55284     -416.88423     -331.96607     -416.86899      0              1928.8608      31.138         21.471905      33.59248       22459.669      2272.2382      887.30608      2627.0382     -1852.8771     -726.17648     -4.2635777    
 193958000   244.80965     -414.06961     -332.07966     -414.05423      0              3230.8781      31.138         21.471905      33.617118      22476.142      2752.9932      4284.6618      2654.9794     -898.03335     -837.55436     -877.27573    
 193960000   246.40624     -416.05247     -333.52781     -416.03724      0              3879.0788      31.138         21.471905      33.53449       22420.898      3103.8482      3920.756       4612.6322      1258.3989     -1695.2325     -1497.7879    
 193962000   252.65579     -413.08838     -328.47066     -413.07336      0              5764.8819      31.138         21.471905      33.533975      22420.553      7633.8535      5023.2999      4637.4922      1054.5538     -1671.5023      1649.4165    
 193964000   253.04029     -417.93943     -333.19294     -417.92414      0              2387.7104      31.138         21.471905      33.360939      22304.863      2684.6362      2622.4747      1856.0202      67.651046      1241.6815      772.31415    
 193966000   243.21117     -415.99122     -334.53663     -415.97631      0              2870.1731      31.138         21.471905      33.447066      22362.446      1862.9257      3624.3717      3123.2219     -242.66515      116.24605      979.24829    
 193968000   250.0441      -416.09352     -332.35049     -416.07942      0              5065.1747      31.138         21.471905      33.402717      22332.795      4530.2317      4688.3352      5976.9571     -205.42805     -848.76254      336.42323    
 193970000   246.78593     -417.09392     -334.4421      -417.0787       0              2921.3845      31.138         21.471905      33.308094      22269.531      1630.6938      4540.9762      2592.4836     -1333.2494     -346.86372     -477.97434    
 193972000   254.65019     -417.17692     -331.89125     -417.1619       0              4849.1936      31.138         21.471905      33.355034      22300.915      4810.2517      4278.3071      5459.0219     -1938.6807     -332.32559     -1187.2006    
 193974000   249.82897     -418.07297     -334.40199     -418.05759      0              3183.5741      31.138         21.471905      33.264891      22240.646      3512.377       1761.3204      4277.025      -422.4723       655.80425     -491.2976     
 193976000   246.08281     -417.00578     -334.58944     -416.99041      0              2893.0026      31.138         21.471905      33.452218      22365.891      3690.8022      1680.2218      3307.9839     -957.12662     -1015.6656      266.97036    
 193978000   251.24409     -415.95907     -331.81415     -415.94379      0              2594.1313      31.138         21.471905      33.44452       22360.744      1102.6158      2814.474       3865.3042      631.45318      646.31461      502.65993    
 193980000   238.0596      -416.82029     -337.09102     -416.80586      0              3859.8312      31.138         21.471905      33.291262      22258.277      4180.0622      4215.2403      3184.191      -855.27837     -1011.9003      68.570356    
 193982000   249.80019     -416.11647     -332.45513     -416.10533      0              3853.3506      31.138         21.471905      33.343725      22293.354      4972.8619      3128.4818      3458.7081      567.40993      89.193844     -399.81176    
 193984000   246.02315     -417.73521     -335.33885     -417.72157      0              2649.1699      31.138         21.471905      33.141267      22157.992      2771.1907      749.73233      4426.5865      1017.3322     -872.49755      179.33462    
 193986000   249.94768     -416.35083     -332.64009     -416.33999      0              2788.9966      31.138         21.471905      33.248338      22229.579      408.75584      5166.3917      2791.8422      437.41019      170.6497      -594.91924    
 193988000   253.58861     -418.69413     -333.764       -418.68047      0              4011.297       31.138         21.471905      33.269658      22243.833      3719.426       3418.1958      4896.2693     -86.422957     -104.87263     -634.71116    
 193990000   250.33608     -418.60094     -334.76012     -418.59228      0              4908.8127      31.138         21.471905      33.154269      22166.685      4091.2298      5231.9995      5403.2086      418.26109      1011.4366      1284.9966    
 193992000   245.93157     -417.51887     -335.15318     -417.50473      0              4589.7672      31.138         21.471905      33.315514      22274.492      4091.2387      4961.4497      4716.6131      468.38354     -53.792981     -250.80836    
 193994000   251.78433     -419.8644      -335.53855     -419.85563      0              3985.2983      31.138         21.471905      33.388774      22323.473      3667.2518      3771.4446      4517.1985     -421.72383      21.794683      940.95297    
 193996000   251.72444     -417.19693     -332.89114     -417.18385      0              3226.0953      31.138         21.471905      33.453003      22366.416      2040.6793      3521.8674      4115.7393     -686.35561     -722.51157     -557.67499    
 193998000   242.03295     -416.34713     -335.28714     -416.33217      0              3588.8083      31.138         21.471905      33.373169      22313.04       3411.0907      3640.1214      3715.2127     -932.36302      309.75321     -231.22354    
 194000000   247.73733     -417.75456     -334.7841      -417.74039      0              1835.5245      31.138         21.471905      33.175767      22181.059      2656.9059      1309.7684      1539.8992     -888.18191      211.28907     -1110.3874    
 194002000   245.02917     -418.64878     -336.58532     -418.63461      0              3139.2289      31.138         21.471905      33.434817      22354.257      2847.2973      2686.5186      3883.8708      1282.8221      613.95927      1619.1477    
 194004000   252.91193     -415.07806     -330.37456     -415.0639       0              2998.9437      31.138         21.471905      33.484823      22387.691      1555.422       4343.6054      3097.8037     -662.51515      181.96241     -300.01924    
 194006000   248.47727     -415.50365     -332.28538     -415.49191      0              3261.0139      31.138         21.471905      33.356699      22302.028      2881.3717      4733.5473      2168.1227      1780.4267      27.003459      2038.9399    
 194008000   252.88185     -417.31931     -332.62588     -417.31194      0              4401.983       31.138         21.471905      33.351337      22298.443      5656.0897      4636.2279      2913.6313      0.28071158     71.6238        685.22562    
 194010000   251.80601     -416.33484     -332.00172     -416.32057      0              1767.7547      31.138         21.471905      33.168845      22176.43       2224.8472      1094.0485      1984.3685     -101.36098      1905.1046      1824.9075    
 194012000   253.25445     -415.88871     -331.07049     -415.87334      0              3515.6213      31.138         21.471905      33.311367      22271.719      3457.4945      4661.3598      2428.0095      1699.3037     -137.10668     -621.14972    
 194014000   250.25961     -416.03593     -332.22072     -416.0254       0              3546.156       31.138         21.471905      33.199894      22197.189      3279.8434      3404.4665      3954.1581     -732.26053      41.483186      1552.3114    
 194016000   240.79314     -419.4565      -338.81174     -419.44268      0              4138.5282      31.138         21.471905      33.393441      22326.594      3122.9257      4867.974       4424.685       1930.2718      132.86731      1137.8898    
 194018000   243.75695     -417.80057     -336.16319     -417.78783      0              3731.5423      31.138         21.471905      33.391779      22325.482      4147.9354      3632.7158      3413.9756      7.866335      -1458.2304     -22.626031    
 194020000   250.22115     -416.30236     -332.50004     -416.29091      0              2842.0447      31.138         21.471905      33.47583       22381.678      1272.4969      4165.4279      3088.2093     -474.91508      427.37415      394.70445    
 194022000   250.27406     -417.5851      -333.76505     -417.57183      0              1817.1204      31.138         21.471905      33.443491      22360.057      2945.7535      1307.9251      1197.6824     -1064.2196     -809.10749     -543.60933    
 194024000   251.7567      -417.69697     -333.38037     -417.68266      0              3773.6761      31.138         21.471905      33.632138      22486.185      3336.6009      5081.5156      2902.9117      520.21767     -1274.7318      1038.3798    
 194026000   255.51816     -416.7919      -331.21554     -416.7766       0              127.19365      31.138         21.471905      33.662403      22506.419      839.62695     -820.8187       362.77272      756.03194      443.36068      488.57423    
 194028000   241.74386     -418.48606     -337.52289     -418.47262      0              1999.8564      31.138         21.471905      33.503379      22400.097      1869.8977      1578.8898      2550.7817      596.06411      615.94918     -288.04197    
 194030000   250.28016     -414.63838     -330.81629     -414.6232       0              2754.1544      31.138         21.471905      33.563079      22440.012      2046.2477      2603.171       3613.0446     -1182.9433     -19.32608      -725.25153    
 194032000   253.67193     -417.13459     -332.17656     -417.12009      0              3366.4606      31.138         21.471905      33.456699      22368.888      5271.803       1876.7291      2950.8497     -696.67088     -1310.0563     -438.76207    
 194034000   246.05314     -415.81529     -333.40889     -415.80081      0              2329.2343      31.138         21.471905      33.435708      22354.853      305.8527       3539.6102      3142.2399      301.6978       882.36119     -1631.9507    
 194036000   249.63118     -414.97875     -331.37401     -414.96465      0              4147.2449      31.138         21.471905      33.388356      22323.194      4869.1404      3616.1203      3956.4741      1028.5372     -219.0412       140.6172     
 194038000   248.55296     -414.87943     -331.63581     -414.86524      0              1479.9838      31.138         21.471905      33.364063      22306.951      1804.9429      2231.7589      403.24956      974.78086     -1114.5534      620.83224    
 194040000   243.99819     -413.23675     -331.51858     -413.22192      0              1519.7759      31.138         21.471905      33.543764      22427.098      2884.0037      676.08752      999.23642      407.63969     -234.34912     -1007.2296    
 194042000   251.87937     -415.19983     -330.84215     -415.18562      0              3383.7472      31.138         21.471905      33.258765      22236.55       5747.3988      1527.4748      2876.368       1625.7934     -231.22975     -138.13553    
 194044000   254.76891     -414.71803     -329.3926      -414.70269      0              2242.7149      31.138         21.471905      33.518464      22410.183      4186.9037      2256.9833      284.25774      294.92083     -424.77855     -1808.9339    
 194046000   247.78477     -415.20791     -332.22156     -415.19308      0              4702.9744      31.138         21.471905      33.545061      22427.966      6017.0124      4473.6338      3618.2771      527.21769     -1682.9363      26.966915    
 194048000   247.17726     -418.18232     -335.39943     -418.16771      0              1739.395       31.138         21.471905      33.402474      22332.633      168.98547      2040.8185      3008.381      -1001.6527      194.46714      211.07076    
 194050000   244.61966     -416.57992     -334.6536      -416.5651       0              3586.159       31.138         21.471905      33.350819      22298.097      5067.4633      1886.5297      3804.4838     -397.34318      777.48138      1845.3425    
 194052000   250.30341     -418.85245     -335.02257     -418.83809      0              3537.5953      31.138         21.471905      33.286175      22254.877      5176.4325      2913.1534      2523.2         444.74244     -288.46117      1753.0499    
 194054000   251.58421     -415.94773     -331.6889      -415.93254      0              3004.197       31.138         21.471905      33.438654      22356.822      3983.0653      2829.6401      2199.8854     -266.0721      -565.68124      702.42522    
 194056000   251.4328      -414.51713     -330.309       -414.50368      0              1801.3295      31.138         21.471905      33.473665      22380.23       1417.3002      2025.2626      1961.4258     -125.33568     -847.73485     -963.29095    
 194058000   259.65795     -414.94225     -327.97942     -414.92918      0              2851.7128      31.138         21.471905      33.437092      22355.778      4211.6667      2247.3198      2096.1518     -952.88485      214.30697     -1035.523     
 194060000   254.27876     -415.90306     -330.74179     -415.8877       0              2868.7596      31.138         21.471905      33.530686      22418.355      2658.2054      3341.3812      2606.6922     -195.25648     -15.967185     -402.13758    
 194062000   242.75316     -414.37915     -333.07795     -414.36516      0              1780.1254      31.138         21.471905      33.347397      22295.809      499.40539      3167.0855      1673.8852      1122.2959      835.5981       804.38838    
 194064000   250.19226     -412.55038     -328.75773     -412.53504      0              3770.8106      31.138         21.471905      33.587303      22456.208      2613.5108      4546.5838      4152.3371     -1035.0274      1428.1669     -1290.1339    
 194066000   248.64514     -415.69019     -332.41569     -415.67497      0              1583.8867      31.138         21.471905      33.534607      22420.976      790.11457      2720.1534      1241.3921      216.80898      616.65488     -160.29442    
 194068000   249.72873     -415.29005     -331.65264     -415.27601      0              3216.5068      31.138         21.471905      33.480912      22385.076      1758.3785      4347.4944      3543.6474      731.99886      580.75966     -789.6947     
 194070000   249.82382     -416.0794      -332.41015     -416.06514      0              2913.3865      31.138         21.471905      33.596301      22462.224      1291.0596      5451.7687      1997.3311     -731.65512      1525.1558      256.68044    
 194072000   246.83863     -416.33669     -333.66721     -416.32297      0              4326.8336      31.138         21.471905      33.363754      22306.745      3437.0171      6148.4427      3395.0408     -623.48123      181.86791      487.53903    
 194074000   249.42452     -416.49113     -332.9556      -416.4771       0              3208.5424      31.138         21.471905      33.676154      22515.613      1849.7153      4692.4667      3083.4451     -478.92862      886.82082     -59.166562    
 194076000   255.59193     -413.27671     -327.67564     -413.26267      0              3444.6469      31.138         21.471905      33.512666      22406.307      5584.3293      3373.746       1375.8652     -930.26042     -986.3062      -94.070605    
 194078000   249.86244     -415.08578     -331.40359     -415.07043      0              2754.1413      31.138         21.471905      33.471553      22378.818      3140.1719      3272.2166      1850.0355     -45.268037      422.66817     -1518.0341    
 194080000   251.54323     -412.93408     -328.68897     -412.91921      0              2875.3948      31.138         21.471905      33.436875      22355.633      1751.4207      4354.5914      2520.1722     -1448.5208     -109.64706     -547.73214    
 194082000   246.07991     -416.34673     -333.93137     -416.33197      0              2813.9591      31.138         21.471905      33.252291      22232.222      2479.3449      2300.6736      3661.8589      269.79053      670.59161     -154.22256    
 194084000   250.71829     -418.42903     -334.46021     -418.42229      0              4939.6544      31.138         21.471905      33.463853      22373.67       5516.3723      4795.131       4507.4597      1378.8326      1171.2341      170.06176    
 194086000   250.07381     -414.10849     -330.35551     -414.09451      0              2057.1869      31.138         21.471905      33.569857      22444.544      1578.5902      2575.7455      2017.2251     -712.95197      454.64865      1867.7193    
 194088000   247.23215     -412.92258     -330.12131     -412.90741      0              4290.6511      31.138         21.471905      33.396225      22328.455      4592.4164      2933.6069      5345.9301     -1190.6789      225.98363     -736.58398    
 194090000   253.72989     -415.91355     -330.9361      -415.89887      0              5185.5325      31.138         21.471905      33.606212      22468.851      5923.8581      3633.0918      5999.6477     -813.18313     -1322.6626      1013.2444    
 194092000   251.111       -414.04051     -329.94017     -414.02563      0              1656.8951      31.138         21.471905      33.593802      22460.554      577.47231      3703.8027      689.41015      285.80566      1576.1159      606.73688    
 194094000   248.82991     -414.54588     -331.2095      -414.5308       0              5405.1942      31.138         21.471905      33.415387      22341.267      6093.1398      4401.981       5720.4619     -382.16632     -209.09116     -921.96187    
 194096000   252.96617     -415.8837      -331.16203     -415.86961      0              2357.1791      31.138         21.471905      33.528139      22416.652      2962.7876      1525.1564      2583.5934     -565.99535     -586.56373      336.19115    
 194098000   253.76246     -416.27037     -331.28201     -416.25518      0              3490.1977      31.138         21.471905      33.267969      22242.704      2362.2948      3823.7471      4284.5512     -848.57517     -1337.7452     -1968.3126    
 194100000   248.25753     -416.5593      -333.41461     -416.5443       0              3548.9025      31.138         21.471905      33.327288      22282.364      3847.3046      4505.649       2293.754       1595.2877     -2259.5499      1109.8511    
 194102000   252.94429     -415.2008      -330.48646     -415.1858       0              4063.5013      31.138         21.471905      33.314689      22273.94       3812.2021      3400.1133      4978.1884     -939.9208       462.40449     -155.20208    
 194104000   251.14953     -413.66237     -329.54912     -413.64703      0              3720.6199      31.138         21.471905      33.523514      22413.559      4129.4777      4691.9478      2340.4343     -48.201361      1019.3188     -2242.0841    
 194106000   248.40742     -417.19294     -333.99806     -417.17759      0              1662.0858      31.138         21.471905      33.678902      22517.45       1059.0074      2208.9497      1718.3004     -1037.7222      471.86336     -1117.647     
 194108000   252.22446     -413.12153     -328.64827     -413.10638      0              4157.4623      31.138         21.471905      33.585049      22454.701      6165.2789      2807.118       3499.9899      2181.3018      473.94504     -768.28962    
 194110000   245.28242     -416.531       -334.38272     -416.51672      0              5388.0225      31.138         21.471905      33.557072      22435.996      5747.9301      5563.7943      4852.3431     -971.22855     -617.09661     -1531.8534    
 194112000   248.92804     -418.19963     -334.83038     -418.18483      0              3360.3364      31.138         21.471905      33.543807      22427.127      3631.0179      2862.4351      3587.5561      558.28389      1044.4092     -143.14862    
 194114000   250.63699     -417.53609     -333.5945      -417.52076      0              2283.8329      31.138         21.471905      33.59811       22463.433      3432.8399      1007.2673      2411.3913      720.67392     -1141.3486     -655.36009    
 194116000   247.03092     -417.97805     -335.24417     -417.96365      0              3540.4806      31.138         21.471905      33.508438      22403.48       2656.0244      4859.6328      3105.7848      1423.7773      1657.3667     -1133.4875    
 194118000   251.81694     -417.13161     -332.79483     -417.11652      0              3506.6846      31.138         21.471905      33.509133      22403.944      3082.5581      4867.701       2569.7947      2506.2868      1008.087       1097.3591    
 194120000   252.46793     -415.48218     -330.92738     -415.46725      0              3335.6937      31.138         21.471905      33.432495      22352.704      3171.1201      4094.6609      2741.3003      907.1865      -82.179342      131.27396    
 194122000   250.0176      -416.10902     -332.37486     -416.09418      0              3999.5204      31.138         21.471905      33.179253      22183.389      3093.9307      5948.1965      2956.4341     -1562.8306      772.91455      325.03494    
 194124000   258.74023     -418.12122     -331.46574     -418.10627      0              5464.8386      31.138         21.471905      33.467732      22376.264      4700.7357      5486.8859      6206.8942     -718.32965     -139.85086      1518.2825    
 194126000   248.55349     -417.29761     -334.05381     -417.28333      0              2042.5304      31.138         21.471905      33.588008      22456.68       2637.8484      1227.2381      2262.5045     -710.63563     -923.74451     -171.37646    
 194128000   250.62322     -416.78129     -332.84431     -416.76736      0              3840.8779      31.138         21.471905      33.637282      22489.624      2753.7563      2254.0875      6514.79       -438.0201       103.08428      306.20755    
 194130000   251.92605     -417.05982     -332.6865      -417.04546      0              1413.0645      31.138         21.471905      33.512827      22406.414      669.63412      2063.8676      1505.6919      2167.9497      71.305645      484.73478    
 194132000   250.92502     -414.71184     -330.67378     -414.69677      0              4059.038       31.138         21.471905      33.658529      22503.829      3521.7232      4497.1975      4158.1933     -274.86316      2018.4034     -61.867147    
 194134000   250.14083     -416.80145     -333.02603     -416.78715      0              2235.8515      31.138         21.471905      33.504023      22400.527      3459.471       2813.8043      434.2791       404.15913      114.54218     -528.56266    
 194136000   252.16064     -416.19509     -331.74321     -416.17987      0              2123.166       31.138         21.471905      33.498         22396.501      3991.9219      3661.3006     -1283.7245     -490.82547      1243.2911     -1364.0342    
 194138000   253.72858     -415.58063     -330.60362     -415.56597      0              4230.3345      31.138         21.471905      33.502328      22399.394      4844.5859      2467.207       5379.2105     -781.39762     -182.68381     -871.17613    
 194140000   249.955       -417.41021     -333.69702     -417.39557      0              2819.3674      31.138         21.471905      33.49142       22392.101      3159.8276      3407.8805      1890.3941      2722.7312     -1190.8241      1204.1187    
 194142000   246.15916     -416.78266     -334.34075     -416.76865      0              2517.8551      31.138         21.471905      33.708269      22537.085      3276.9264      3126.7382      1149.9006     -997.47469     -941.2504       626.13608    
 194144000   250.7565      -418.08583     -334.10421     -418.07156      0              1646.9558      31.138         21.471905      33.553765      22433.785      2176.1548      2359.249       405.46358      360.00031      1032.158      -378.32379    
 194146000   254.72352     -416.78824     -331.47802     -416.77354      0              3952.1975      31.138         21.471905      33.568632      22443.725      2698.5434      5406.0628      3751.9862     -1002.7546     -685.854       -783.22733    
 194148000   251.4664      -420.0121      -335.79272     -419.99843      0              3876.4658      31.138         21.471905      33.583692      22453.794      4540.545       2789.8453      4299.0072     -682.84087      397.81637      440.98376    
 194150000   254.71985     -417.18678     -331.87778     -417.17283      0              3318.9084      31.138         21.471905      33.357248      22302.395      2790.905       4051.97        3113.8503     -1366.609       106.04008      1497.7783    
 194152000   254.14425     -415.35876     -330.24253     -415.34551      0              3892.9094      31.138         21.471905      33.427338      22349.257      2995.2807      4050.1717      4633.2758     -1080.0858      490.61454     -45.65231     
 194154000   251.13451     -416.21997     -332.11175     -416.20587      0              4263.8377      31.138         21.471905      33.303318      22266.338      3033.0914      4849.7476      4908.674       1749.9515      238.19419      203.08582    
 194156000   246.78283     -415.59103     -332.94024     -415.57821      0              2883.5326      31.138         21.471905      33.348604      22296.616      1853.8542      3236.9621      3559.7816     -3.705679      -1246.1619      66.754708    
 194158000   245.99755     -415.53718     -333.14939     -415.5238       0              3879.5998      31.138         21.471905      33.371239      22311.749      2718.8334      3750.8071      5169.1589     -9.9811089      1081.8134     -1901.1954    
 194160000   249.65181     -416.47327     -332.86163     -416.46013      0              3413.4646      31.138         21.471905      33.327749      22282.673      2083.1028      4479.1522      3678.139      -48.656326      962.33332     -793.34789    
 194162000   245.57513     -415.7772      -333.53089     -415.76317      0              1717.4982      31.138         21.471905      33.450105      22364.478      3369.0043      1340.3914      443.09887      451.80143     -1603.681      -244.14532    
 194164000   250.51619     -415.99902     -332.09788     -415.98479      0              2945.1129      31.138         21.471905      33.447886      22362.995      1106.0631      3578.9534      4150.3223     -2055.9991      684.80734      1762.5772    
 194166000   246.61453     -418.7964      -336.20198     -418.78241      0              2628.0242      31.138         21.471905      33.426392      22348.624      2465.2698      2815.7899      2603.013       539.90819     -823.61483     -221.40794    
 194168000   256.28708     -416.69516     -330.86127     -416.68834      0              2500.7839      31.138         21.471905      33.598143      22463.456     -2.4835487      4433.876       3070.9593     -1745.8486     -1804.7925     -589.88544    
 194170000   252.54096     -415.82959     -331.25033     -415.81841      0              2991.0675      31.138         21.471905      33.660995      22505.478      3106.2845      4060.9323      1805.9856      1947.521      -165.01611     -305.59346    
 194172000   254.31071     -415.81394     -330.64197     -415.80172      0              2930.2939      31.138         21.471905      33.632746      22486.591      2105.8361      3821.6913      2863.3542     -710.90983      1187.4277     -865.24646    
 194174000   255.87584     -418.58942     -332.89326     -418.57901      0              3301.239       31.138         21.471905      33.345174      22294.322      4257.4372      2520.4558      3125.8241      411.99937     -178.49488      937.52795    
 194176000   250.75128     -416.85979     -332.87992     -416.84856      0              3600.1097      31.138         21.471905      33.561219      22438.768      4340.2372      3548.2783      2911.8136      166.08723     -541.11727     -456.52183    
 194178000   245.03611     -413.20758     -331.14179     -413.19703      0              2271.8964      31.138         21.471905      33.592579      22459.736      529.03545      3212.4862      3074.1675     -1090.4404      709.11071     -124.14209    
 194180000   246.32785     -416.68992     -334.19152     -416.67895      0              3351.8728      31.138         21.471905      33.669868      22511.411      1694.7261      4003.0096      4357.8828     -545.86309      164.52999     -1434.8481    
 194182000   252.29274     -418.32376     -333.82763     -418.30984      0              912.55402      31.138         21.471905      33.777499      22583.371      1247.6647      1713.509      -223.5116      -238.54446     -234.48987      156.13343    
 194184000   244.23977     -417.24914     -335.45006     -417.23481      0              3006.3221      31.138         21.471905      33.737977      22556.947      3241.0815      1967.5448      3810.3401      1626.965       941.91913      1150.1231    
 194186000   242.7116      -418.9448      -337.65752     -418.93102      0              475.10032      31.138         21.471905      33.742946      22560.27       556.7847       2471.7964     -1603.2801      662.24862      887.43591     -1252.3266    
 194188000   250.5659      -415.86956     -331.95177     -415.85548      0              3475.793       31.138         21.471905      33.608982      22470.702      4815.9486      2629.2756      2982.1549      142.96172      436.40466      552.74438    
 194190000   246.22614     -417.44973     -334.98538     -417.43507      0              4551.1831      31.138         21.471905      33.443963      22360.372      3302.4834      5791.5589      4559.507       730.79264      150.83806     -1650.304     
 194192000   256.57232     -419.22314     -333.29372     -419.22263      0              4544.506       31.138         21.471905      33.393887      22326.892      2742.9246      6528.0541      4362.5394      949.04871      218.05323     -1228.8556    
 194194000   250.25975     -417.24969     -333.43444     -417.23746      0              3062.01        31.138         21.471905      33.307424      22269.083      1828.0917      4848.894       2509.0442      81.360607      1205.2247     -420.30337    
 194196000   255.84344     -415.77862     -330.09332     -415.76491      0              2823.9968      31.138         21.471905      33.351576      22298.603      3339.379       3001.9558      2130.6556      2678.6672     -1634.8705     -766.60107    
 194198000   244.92027     -418.0416      -336.01461     -418.02812      0              2320.3437      31.138         21.471905      33.375105      22314.334      2494.0326      2676.8417      1790.1569     -107.38179      1217.7802      1274.5668    
 194200000   249.38347     -416.70892     -333.18714     -416.69759      0              3392.6083      31.138         21.471905      33.273062      22246.109      4027.012       3485.3292      2665.4838     -1598.8503     -74.261526      262.87154    
 194202000   243.73929     -417.68806     -336.05659     -417.67381      0              2215.3791      31.138         21.471905      33.252007      22232.032      4308.8118      2013.824       323.50142     -1355.6845     -759.26632     -1550.1172    
 194204000   251.43554     -417.57232     -333.36328     -417.55986      0              1745.1893      31.138         21.471905      33.318157      22276.259      1996.645       1361.9946      1876.9283      1437.2913     -172.4414      -365.66894    
 194206000   247.79618     -414.67287     -331.6827      -414.6578       0              3228.0092      31.138         21.471905      33.244352      22226.913      4029.4468      3402.891       2251.6899      85.34572      -434.82908     -473.27989    
 194208000   247.48927     -415.18064     -332.29326     -415.16765      0              3084.0938      31.138         21.471905      33.037453      22088.582      1936.2392      4162.2642      3153.778       72.481298      762.35569     -739.64628    
 194210000   248.72678     -417.92836     -334.62652     -417.92045      0              3757.2585      31.138         21.471905      33.102018      22131.75       5180.1573      3143.2032      2948.4149      328.84085      1410.2021     -294.38833    
 194212000   239.46906     -418.61903     -338.41772     -418.60526      0              3495.5026      31.138         21.471905      33.220602      22211.034      2581.9459      4340.9734      3563.5886      372.73135     -551.15106     -557.65548    
 194214000   249.6015      -416.84173     -333.24693     -416.82853      0              695.77321      31.138         21.471905      33.115776      22140.949      561.65756      637.29628      888.36581     -635.88959      314.81242     -1247.6538    
 194216000   247.9357      -415.92502     -332.88812     -415.91085      0              5499.8352      31.138         21.471905      32.95913       22036.216      4716.0945      5775.5004      6007.9108      893.31443     -832.60074     -408.87629    
 194218000   244.55587     -415.25887     -333.35392     -415.24409      0              2747.6507      31.138         21.471905      33.145671      22160.937      2381.731       2623.0115      3238.2095      1119.2887      466.37974      384.99873    
 194220000   249.68314     -417.59276     -333.97062     -417.57816      0              3824.0056      31.138         21.471905      33.017955      22075.546      3966.0273      3104.0526      4401.9368     -975.28658     -508.85022      410.08068    
 194222000   254.7901      -414.90878     -329.57625     -414.89415      0              4289.34        31.138         21.471905      33.214929      22207.242      3699.8241      4180.7677      4987.428       810.05346     -1257.7845      87.843824    
 194224000   254.56963     -415.07318     -329.81449     -415.05935      0              2722.6986      31.138         21.471905      33.118959      22143.077      2695.4231      2596.7588      2875.9139     -1057.0063      300.39565      274.5499     
 194226000   244.65371     -418.08708     -336.14936     -418.07488      0              2008.9095      31.138         21.471905      33.316879      22275.405      3095.7439      2950.011      -19.026375     -626.70151      207.36235     -412.60241    
 194228000   245.53609     -417.40923     -335.17599     -417.39697      0              3084.6228      31.138         21.471905      33.2955        22261.111      3582.453       3319.579       2351.8362     -138.23855      1184.1913     -1267.7733    
 194230000   246.67491     -414.36601     -331.75137     -414.35267      0              3169.4751      31.138         21.471905      33.434675      22354.162      4455.4127      2311.2994      2741.7133      1976.3518      357.69964      974.86511    
 194232000   255.38239     -416.46928     -330.93839     -416.45801      0              4892.7162      31.138         21.471905      33.229066      22216.693      4654.0299      3890.5666      6133.5521     -1334.4054     -387.55137      523.22621    
 194234000   249.89184     -415.51957     -331.82754     -415.5055       0              3919.1231      31.138         21.471905      33.275797      22247.938      3541.1028      2033.5895      6182.677       801.61323     -85.957271     -499.5014     
 194236000   252.99072     -415.42213     -330.69224     -415.40819      0              3574.3001      31.138         21.471905      33.300555      22264.491      4473.6881      2901.1095      3348.1026      959.40622      906.8499      -1270.3113    
 194238000   255.42795     -416.91311     -331.36696     -416.90966      0              2808.5222      31.138         21.471905      33.322374      22279.079      1088.3843      3550.3414      3786.8408      1967.6279     -89.532505     -1100.9966    
 194240000   247.4136      -417.4857      -334.62366     -417.47151      0              3018.2665      31.138         21.471905      33.259158      22236.813      1438.5419      4394.0205      3222.2371      467.38786      1575.6946     -601.58808    
 194242000   248.76206     -416.24852     -332.93486     -416.23366      0              4347.9933      31.138         21.471905      33.162369      22172.101      4069.2155      4970.3687      4004.3956      222.87029     -14.281805      1364.1551    
 194244000   251.93181     -417.58231     -333.20707     -417.56832      0              4285.4889      31.138         21.471905      33.352898      22299.487      3123.4309      5341.3147      4391.721      -440.8699      -166.12091      149.05855    
 194246000   252.40758     -415.93499     -331.4004      -415.91966      0              3612.882       31.138         21.471905      33.265921      22241.335      3121.4356      3272.0826      4445.1279      462.22879     -144.135        146.07769    
 194248000   244.01372     -415.42963     -333.70625     -415.41792      0              1430.7077      31.138         21.471905      33.450372      22364.657      2536.7037     -522.33827      2277.7577      1165.6868     -85.924344      1324.3277    
 194250000   248.01485     -416.62444     -333.56103     -416.61023      0              3956.0411      31.138         21.471905      33.445301      22361.267      4457.6203      2045.7445      5364.7585      1113.5579      82.415224     -660.72775    
 194252000   256.76213     -414.4978      -328.50482     -414.48251      0              3773.555       31.138         21.471905      33.321382      22278.416      4869.2262      2666.4351      3785.0038      382.56318      116.98453     -883.11896    
 194254000   244.39959     -417.46996     -335.61735     -417.45523      0              2269.7737      31.138         21.471905      33.419032      22343.703      3658.4665      1654.3629      1496.4919      2045.3055     -860.28107     -286.71734    
 194256000   252.31779     -415.30644     -330.80193     -415.29154      0              2433.6815      31.138         21.471905      33.66989       22511.425      2996.4263      2868.1465      1436.4718     -754.54731     -651.04179     -1453.9006    
 194258000   249.31508     -417.74093     -334.24206     -417.72662      0              1127.551       31.138         21.471905      33.551824      22432.487      903.43787      1992.2583      486.95698      879.82939     -1208.1007      114.03799    
 194260000   250.68798     -414.51231     -330.55364     -414.49776      0              3768.3462      31.138         21.471905      33.465403      22374.706      2591.3254      3227.1646      5486.5486     -229.73686     -534.94967      1007.4859    
 194262000   244.91454     -416.04136     -334.01628     -416.02698      0              2558.4908      31.138         21.471905      33.392888      22326.224      2665.0894      3311.3236      1699.0593     -471.82046      652.73086     -991.14633    
 194264000   245.72239     -417.38205     -335.08641     -417.3668       0              4454.3572      31.138         21.471905      33.280194      22250.877      4230.8442      5211.5536      3920.6739      1230.155      -1503.1291      1.8514136    
 194266000   245.17382     -414.68125     -332.56934     -414.66679      0              2479.5034      31.138         21.471905      33.50673       22402.338      1831.1185      3944.7819      1662.6098      639.19        -722.5063       43.706088    
 194268000   256.77958     -415.31068     -329.31185     -415.2954       0              2903.2734      31.138         21.471905      33.444041      22360.424      4160.6071      2666.3372      1882.876      -720.07494     -1039.6492      990.83732    
 194270000   244.3431      -416.50827     -334.67458     -416.49328      0              2267.1022      31.138         21.471905      33.518162      22409.981      1960.4402      2883.4134      1957.4528     -2453.0671     -1298.8663     -850.1042     
 194272000   249.03183     -416.6457      -333.24169     -416.63053      0              4095.4465      31.138         21.471905      33.521411      22412.153      4761.4938      4054.1777      3470.6679      206.89078      1410.8384     -156.65106    
 194274000   250.15836     -415.27084     -331.48955     -415.25626      0              3122.0392      31.138         21.471905      33.306078      22268.183      1348.0015      4950.7802      3067.336       680.51434     -2435.2038      885.81963    
 194276000   257.58397     -416.74186     -330.47363     -416.72731      0              3663.3613      31.138         21.471905      33.471038      22378.474      3798.8544      4313.9776      2877.2519     -785.46321     -59.421341     -68.27669     
 194278000   247.87259     -415.06241     -332.04665     -415.04985      0              3987.3181      31.138         21.471905      33.401971      22332.297      4771.9649      1826.9913      5362.998      -833.09537     -3253.4791     -1911.7706    
 194280000   256.78522     -413.92963     -327.92891     -413.91457      0              2865.9615      31.138         21.471905      33.331319      22285.059      2750.6398      5011.6828      835.56181      1278.2968      609.01034      705.17469    
 194282000   252.48743     -415.82499     -331.26366     -415.80971      0              4445.8446      31.138         21.471905      33.35396       22300.197      4199.259       5136.4192      4001.8556     -246.50472     -232.34119     -690.33578    
 194284000   258.52536     -417.38379     -330.80028     -417.36856      0              3712.8113      31.138         21.471905      33.38632       22321.832      4845.7392      1833.8805      4458.8143     -391.72119     -1632.3159      99.953906    
 194286000   248.49794     -415.74944     -332.52423     -415.73415      0              3666.3229      31.138         21.471905      33.451828      22365.631      4374.8207      2511.9407      4112.2074      618.53397      103.8847       3340.6546    
 194288000   250.82441     -416.03569     -332.03132     -416.0209       0              2637.9759      31.138         21.471905      33.628411      22483.693      3240.5128      1944.6243      2728.7905      844.33944     -916.93973      469.33839    
 194290000   249.83872     -415.13615     -331.4619      -415.12515      0              3065.1494      31.138         21.471905      33.363194      22306.371      3193.238       3374.6339      2627.5765      1675.1941      249.49606     -81.40889     
 194292000   244.91721     -415.38659     -333.36063     -415.3739       0              4157.8088      31.138         21.471905      33.252712      22232.503      4347.7621      2013.5944      6112.0699      404.94827      424.10001      479.11022    
 194294000   244.87871     -417.20244     -335.18937     -417.18848      0              2848.3736      31.138         21.471905      33.472005      22379.121      3802.2265      1771.41        2971.4844     -926.68447      170.24477     -847.71736    
 194296000   243.62973     -415.62966     -334.03489     -415.61526      0              2098.7925      31.138         21.471905      33.248945      22229.984      1858.0192      2274.8664      2163.492       1157.5788     -1359.9135      842.3057     
 194298000   252.05689     -413.25222     -328.83509     -413.23697      0              2667.2316      31.138         21.471905      33.171592      22178.267      2252.3342      3076.0989      2673.2616     -14.345508     -146.55039     -331.53036    
 194300000   252.64525     -416.76465     -332.15046     -416.74993      0              3157.8884      31.138         21.471905      33.336942      22288.819      2748.0511      3035.2705      3690.3437     -1895.4895      211.67233     -448.52578    
 194302000   250.68697     -416.06211     -332.10378     -416.04899      0              1646.2454      31.138         21.471905      33.185332      22187.454      2937.183      -610.43384      2611.9869      2740.1947     -1130.6919      1325.0981    
 194304000   255.13844     -413.6553      -328.20611     -413.64116      0              2883.8873      31.138         21.471905      33.087592      22122.105      3406.2162      1475.8067      3769.6389     -853.17138     -1073.619       1977.8594    
 194306000   250.18482     -417.66497     -333.87481     -417.65023      0              3489.6488      31.138         21.471905      33.472268      22379.297      2800.9124      3908.0823      3759.9517      1981.6253      0.53421371    -1113.0848    
 194308000   247.30072     -415.63927     -332.81503     -415.62394      0              2878.5086      31.138         21.471905      33.245288      22227.539      2187.5965      2824.5496      3623.3797     -458.96851     -633.54384     -592.97766    
 194310000   246.28815     -417.73723     -335.25212     -417.72417      0              2651.1074      31.138         21.471905      33.350145      22297.646      591.43405      3871.7217      3490.1666     -590.73954      2278.0127      1446.9901    
 194312000   250.98719     -414.353       -330.29411     -414.33889      0              2862.7353      31.138         21.471905      33.314268      22273.659      3459.5797      2275.7596      2852.8666      124.76373      484.15343      1568.0909    
 194314000   260.37005     -416.87418     -329.67285     -416.86066      0              2966.4283      31.138         21.471905      33.362088      22305.631      2233.0214      2492.6681      4173.5953     -145.31251     -158.54877      690.57443    
 194316000   251.30789     -417.62936     -333.46307     -417.6183       0              2356.1717      31.138         21.471905      33.322571      22279.21       4387.0089      1362.2544      1319.2518      539.11242      178.54834      440.93342    
 194318000   244.4843      -415.7062      -333.82522     -415.69186      0              2904.8886      31.138         21.471905      33.438686      22356.844      3681.0928      2728.8829      2304.6901     -802.12328     -741.47043      192.71534    
 194320000   245.69344     -416.92706     -334.64113     -416.91349      0              3045.5283      31.138         21.471905      33.330429      22284.464      3606.8369      3195.3136      2334.4344      903.99474     -1235.321      -2388.8887    
 194322000   252.04188     -413.72849     -329.31638     -413.71416      0              4046.5462      31.138         21.471905      33.538127      22423.33       4635.4155      2462.7389      5041.4842      41.585601      850.33459     -388.83329    
 194324000   251.73173     -416.76524     -332.45701     -416.75062      0              1853.43        31.138         21.471905      33.387824      22322.838      2735.1241      1396.4102      1428.7556      605.08133     -1843.3418      601.22243    
 194326000   251.53995     -414.43895     -330.19494     -414.43035      0              4958.951       31.138         21.471905      33.347389      22295.803      7162.7374      3157.8111      4556.3046      2030.7076     -487.34024      33.880704    
 194328000   245.16744     -415.356       -333.24623     -415.34236      0              4169.4715      31.138         21.471905      33.243474      22226.327      5127.9755      3639.9052      3740.5339     -643.06606      256.93317     -104.89163    
 194330000   255.69011     -415.45397     -329.82002     -415.44001      0              3261.5721      31.138         21.471905      33.58537       22454.916      2203.257       6143.6634      1437.7957      898.653        82.389337     -766.69095    
 194332000   249.24422     -415.67299     -332.19785     -415.65879      0              1963.3883      31.138         21.471905      33.402174      22332.432      2467.5468      2061.6474      1360.9707      901.03601      333.71929      1627.883     
 194334000   252.26521     -415.33961     -330.8527      -415.3258       0              4024.3863      31.138         21.471905      33.34915       22296.981      3745.6988      3397.3662      4930.0939      1741.0948      31.296756      1299.6525    
 194336000   252.21813     -415.63332     -331.16218     -415.61902      0              3483.6394      31.138         21.471905      33.377803      22316.138      3425.4106      3804.0022      3221.5055      1175.0973     -173.43831      2195.7253    
 194338000   247.03545     -415.90818     -333.17278     -415.89323      0              3855.6617      31.138         21.471905      33.514831      22407.754      4225.6914      5018.8562      2322.4374     -20.827786     -366.20942     -963.47433    
 194340000   252.18135     -414.90135     -330.44253     -414.88771      0              3803.1057      31.138         21.471905      33.298839      22263.343      5064.4909      3089.6206      3255.2057      621.14228     -226.40307     -240.21043    
 194342000   248.7521      -415.62529     -332.31497     -415.61544      0              871.64102      31.138         21.471905      33.423903      22346.96       2803.5756     -689.04295      500.39044     -1792.9759     -222.55495     -548.94206    
 194344000   244.35128     -413.41367     -331.57724     -413.39893      0              3254.0498      31.138         21.471905      33.457318      22369.301      3773.7591      3681.5625      2306.8277     -424.48037      711.98769     -271.81867    
 194346000   241.3538      -417.90246     -337.06993     -417.88783      0              1222.1362      31.138         21.471905      33.394304      22327.17       311.49854      1834.3672      1520.5427      636.04989     -636.45804     -118.92475    
 194348000   244.39081     -415.81521     -333.96554     -415.80137      0              5493.042       31.138         21.471905      33.334474      22287.169      7032.1092      5586.5227      3860.4943      2040.5419     -48.663426     -2895.7465    
 194350000   254.35394     -414.70448     -329.51803     -414.69088      0              2078.3453      31.138         21.471905      33.219607      22210.369      1936.7763      1922.1654      2376.0943      36.705757     -690.598       -164.68592    
 194352000   250.57345     -413.59452     -329.6742      -413.57952      0              3980.6828      31.138         21.471905      33.340398      22291.129      4763.904       5369.7313      1808.4132      216.15979      307.10095     -584.70428    
 194354000   248.11236     -413.40626     -330.3102      -413.39099      0              1744.983       31.138         21.471905      33.241941      22225.302      3320.8178      814.40885      1099.7223     -145.17535     -902.84736      753.91435    
 194356000   248.11684     -417.78831     -334.69075     -417.77586      0              323.17314      31.138         21.471905      33.226344      22214.874      1559.1499      486.9721      -1076.6026     -116.25903      712.67942      672.54963    
 194358000   252.69913     -414.92432     -330.29209     -414.91061      0              2467.2552      31.138         21.471905      33.285694      22254.555      3932.4884      2113.9314      1355.3457     -1313.7169     -917.66226      624.37338    
 194360000   245.81077     -413.55062     -331.22539     -413.53638      0              1711.4024      31.138         21.471905      33.443045      22359.759      2199.7483      2064.6865      869.77237      105.64894      351.42487     -1227.5828    
 194362000   249.42683     -413.34957     -329.81327     -413.33915      0              2173.551       31.138         21.471905      33.265385      22240.976      3207.771       1779.1472      1533.7349      383.00814     -453.29248      1503.28      
 194364000   247.80138     -416.13754     -333.14563     -416.12364      0              1298.3493      31.138         21.471905      33.062097      22105.059      2467.182       384.53709      1043.3288      353.53204     -1331.4828      1882.0425    
 194366000   251.01676     -417.51637     -333.44759     -417.50166      0              2022.3673      31.138         21.471905      33.436497      22355.381      1399.2256      1903.2264      2764.65        439.35813      1454.7449     -336.64375    
 194368000   247.23968     -415.89087     -333.08708     -415.88389      0              1351.3254      31.138         21.471905      33.283175      22252.87       1472.845      -31.777537      2612.9087     -433.0986      -1115.5879      818.43845    
 194370000   256.46836     -417.58978     -331.69519     -417.57628      0              2328.991       31.138         21.471905      33.34642       22295.156      2905.5943      1083.5584      2997.8203     -206.72974      2036.1824      557.30366    
 194372000   246.59018     -418.27324     -335.68697     -418.25791      0              2233.2658      31.138         21.471905      33.42956       22350.742      2130.4293      3549.8327      1019.5354      455.11065      39.130519     -1070.9039    
 194374000   253.6065      -417.03921     -332.10309     -417.02514      0              2030.4857      31.138         21.471905      33.42856       22350.074      1945.924       1687.5414      2457.9916     -201.8798      -375.86874      1586.4638    
 194376000   253.675       -416.19793     -331.23886     -416.1828       0              5070.8574      31.138         21.471905      33.197531      22195.61       5356.0262      4330.9431      5525.6028      836.22353      1838.3632      125.73343    
 194378000   254.37685     -417.77219     -332.57807     -417.75884      0              5245.1585      31.138         21.471905      33.118768      22142.949      5447.1381      6184.3988      4103.9386     -804.68846      212.15003     -220.56962    
 194380000   249.59968     -417.64549     -334.05131     -417.63132      0              3498.0319      31.138         21.471905      33.256065      22234.745      4768.1826      871.18323      4854.7298      640.48907     -1566.8715      337.94438    
[...]
 195476000   254.9934      -414.282       -328.88139     -414.26739      0              5009.6379      31.138         21.471905      33.228845      22216.546      5685.6059      5017.2718      4326.036      -551.93032     -1061.103       758.64321    
 195478000   250.96839     -413.41028     -329.3577      -413.39518      0              4352.5968      31.138         21.471905      33.288516      22256.441      4309.8666      5470.7576      3277.1661     -343.72933     -401.57067      173.66648    
 195480000   249.08062     -415.37934     -331.95899     -415.36508      0              2084.0738      31.138         21.471905      33.414343      22340.568      1744.4548      2997.8098      1509.9567     -239.11824      629.57319     -1529.5993    
 195482000   251.23889     -420.52329     -336.38011     -420.50831      0              2809.4192      31.138         21.471905      33.319133      22276.912      2821.7581      2351.5347      3254.9648      1290.6426      1398.4738     -57.45215     
 195484000   245.65392     -414.25441     -331.98171     -414.24055      0              4076.502       31.138         21.471905      33.314457      22273.785      5395.3306      3973.0767      2861.0986     -849.98398      410.41401      847.98434    
 195486000   246.39929     -414.35103     -331.8287      -414.33727      0              4288.8049      31.138         21.471905      33.319281      22277.011      4531.4224      4045.8389      4289.1532      1298.6076      3.3362205      1008.0248    
 195488000   255.21705     -415.19683     -329.72131     -415.18253      0              1917.5613      31.138         21.471905      33.285421      22254.372      3422.9263      519.25056      1810.5069     -934.5965       459.45245      1158.162     
 195490000   249.78877     -415.50631     -331.8488      -415.49244      0              2571.8034      31.138         21.471905      33.398697      22330.108      4346.2104      397.11539      2972.0846     -2324.761      -551.01369      1211.4002    
 195492000   248.14162     -414.39716     -331.2913      -414.38289      0              3150.5199      31.138         21.471905      33.235232      22220.816      3460.3905      2670.6067      3320.5624     -80.10045      -1145.3241      220.04318    
 195494000   250.63392     -415.09537     -331.15481     -415.08054      0              12.426571      31.138         21.471905      33.413242      22339.832      2297.818      -969.62648     -1290.9118     -429.30028      592.58899      1283.4513    
 195496000   245.97855     -412.02896     -329.64754     -412.01443      0              900.04059      31.138         21.471905      33.663152      22506.92       1310.9292      90.110154      1299.0824      942.29927      435.29951      525.83989    
 195498000   252.78686     -417.28889     -332.62728     -417.27413      0              1598.1762      31.138         21.471905      33.494367      22394.071      185.07254      1676.1266      2933.3295      455.76323      1432.5696      1435.2259    
 195500000   241.86097     -416.16949     -335.16709     -416.15511      0              1799.8037      31.138         21.471905      33.407         22335.659      1770.231       1851.6212      1777.5588     -262.00103     -543.33092      44.203186    
 195502000   246.14092     -416.87413     -334.43833     -416.85908      0              4540.4093      31.138         21.471905      33.489511      22390.825      5640.6266      4241.6204      3738.9807     -1972.4943      914.93858     -412.47635    
 195504000   254.9517      -414.82402     -329.43737     -414.80961      0              4345.3179      31.138         21.471905      33.431548      22352.072      5170.186       4700.8004      3164.9674     -763.08524      34.848391      1507.863     
 195506000   259.04807     -413.17385     -326.41528     -413.15947      0              3767.5971      31.138         21.471905      33.40772       22336.14       3860.0143      3859.0462      3583.7308     -230.51577     -387.51234      1956.3943    
 195508000   252.14535     -417.64508     -333.19831     -417.63029      0              2430.1441      31.138         21.471905      33.440828      22358.276      1928.8284      2029.3723      3332.2315      338.51158      348.32059     -115.12958    
 195510000   251.2791      -411.64654     -327.48989     -411.6328       0              1956.6484      31.138         21.471905      33.328878      22283.427      1019.256       3463.0672      1387.6219      282.34691      192.42394      328.68313    
 195512000   249.31753     -414.00275     -330.50306     -413.98792      0              2695.6723      31.138         21.471905      33.384014      22320.291      2937.7688      1768.3389      3380.9093      1566.251       2770.8725     -750.95567    
 195514000   251.13017     -416.05767     -331.9509      -416.044        0              339.91473      31.138         21.471905      33.455066      22367.796      664.01533      2584.0505     -2228.3217     -86.476436      362.65198     -511.16609    
 195516000   249.13591     -413.0455      -329.60664     -413.03069      0              4785.0647      31.138         21.471905      33.266803      22241.924      4024.3257      5764.2175      4566.6509      1079.0354     -275.40392      1340.8574    
 195518000   245.27406     -413.41633     -331.27085     -413.40268      0              2821.0458      31.138         21.471905      33.235825      22221.212      2981.7594      2606.1245      2875.2535      989.5158      -43.994566      787.36868    
 195520000   259.58812     -415.90553     -328.96608     -415.89032      0              3329.3598      31.138         21.471905      33.542412      22426.195      5247.6132      2655.6923      2084.7739     -226.09723     -571.82972     -239.87284    
 195522000   250.04216     -415.09672     -331.35434     -415.08302      0              2580.9171      31.138         21.471905      33.309748      22270.637      3090.3489      931.13771      3721.2647     -1080.4494      921.3347      -872.65644    
 195524000   249.62665     -413.25363     -329.65041     -413.23998      0              1999.1889      31.138         21.471905      33.269186      22243.518     -783.45606      2936.5928      3844.43        825.65365     -464.17479     -300.33356    
 195526000   252.06289     -413.37121     -328.95207     -413.35637      0              3551.6113      31.138         21.471905      33.376731      22315.421      1287.5445      5663.6403      3703.649      -420.22304      204.24698     -1326.6991    
 195528000   250.26629     -414.44276     -330.62531     -414.42763      0              1988.7241      31.138         21.471905      33.41692       22342.291      1543.7026      1402.3186      3020.1512      1161.7654     -66.883316      1910.8235    
 195530000   256.48075     -414.98355     -329.08481     -414.96834      0              3800.6281      31.138         21.471905      33.429976      22351.021      2467.013       3413.5611      5521.3101      1591.9323     -267.88733     -641.74434    
 195532000   244.53046     -413.57576     -331.67933     -413.56045      0              2895.3747      31.138         21.471905      33.55923       22437.439      3941.0801      1934.8         2810.2441     -441.89085      52.571453     -351.27134    
 195534000   251.83109     -414.88916     -330.54764     -414.87378      0              1725.4103      31.138         21.471905      33.458317      22369.969      2184.549      -653.43289      3645.1149     -1162.3361     -967.43655      504.25191    
 195536000   251.82502     -413.51657     -329.17709     -413.50279      0              1837.6372      31.138         21.471905      33.341334      22291.755      2031.1805      1367.1646      2114.5665     -510.88816     -959.35849      693.54046    
 195538000   245.65959     -413.42403     -331.14944     -413.40872      0              3067.1077      31.138         21.471905      33.418797      22343.546      3398.2548      3448.7862      2354.282       2519.5836     -239.1161      -391.40623    
 195540000   251.00835     -413.14716     -329.08119     -413.13244      0              3626.9895      31.138         21.471905      33.40205       22332.35       5325.1625      4112.3518      1443.4544     -716.48684     -1170.2251     -53.227977    
 195542000   251.08486     -412.57194     -328.48035     -412.55761      0              5099.3412      31.138         21.471905      33.246595      22228.414      5495.3103      5713.2283      4089.4851      986.8096      -2144.1781      420.98298    
 195544000   250.80317     -411.46157     -327.46432     -411.44813      0              4404.5827      31.138         21.471905      33.331202      22284.981      2814.1485      6429.1953      3970.4044      1072.5555     -277.8792       516.54808    
 195546000   242.15123     -413.23109     -332.13148     -413.21647      0              3438.0637      31.138         21.471905      33.307226      22268.951      3962.4532      4898.5505      1453.1873      51.523803      579.8984      -354.73899    
 195548000   257.49421     -414.73846     -328.50029     -414.72344      0              3715.4962      31.138         21.471905      33.270638      22244.489      3227.0567      3389.1446      4530.2872     -151.36673     -1200.5774     -1210.8654    
 195550000   246.84474     -412.21409     -329.54257     -412.19871      0              4064.3344      31.138         21.471905      33.253452      22232.998      5231.482       2965.3455      3996.1758     -324.23718     -981.62226      429.61711    
 195552000   253.9383      -413.56339     -328.51614     -413.54824      0              3185.9243      31.138         21.471905      33.281978      22252.07       4838.5502      3857.2944      861.92826     -367.39669     -21.987842     -1350.9168    
 195554000   251.43367     -411.32491     -327.11649     -411.30981      0              3723.2144      31.138         21.471905      33.352923      22299.503      5128.4125      2414.6934      3626.5372     -1058.8104     -639.67904     -1311.3384    
 195556000   245.98482     -414.80319     -332.41966     -414.78809      0              2756.3089      31.138         21.471905      33.359147      22303.665      4227.2378      2305.7568      1735.9321     -1421.6039     -738.08827     -135.54183    
 195558000   245.57314     -414.18529     -331.93964     -414.17125      0              3578.73        31.138         21.471905      33.303728      22266.612      3886.3562      2687.8246      4162.0092     -956.49617      849.11091      794.69959    
 195560000   251.60446     -412.88563     -328.62002     -412.87024      0              326.94055      31.138         21.471905      33.455549      22368.119      1296.0499     -2005.167       1689.9388     -1179.3226      21.439623      1533.6156    
 195562000   248.95557     -417.68339     -334.30492     -417.66809      0              1750.823       31.138         21.471905      33.346544      22295.239     -377.49684      2212.5297      3417.436       616.9864      -103.47709      1017.1428    
 195564000   246.17285     -415.09746     -332.65096     -415.08211      0              523.68824      31.138         21.471905      33.56441       22440.902      1637.6014      650.40924     -716.94587     -1774.8605     -1025.1193     -1692.1098    
 195566000   247.75534     -414.02359     -331.0471      -414.00821      0              1002.2985      31.138         21.471905      33.416411      22341.951      770.24418      1278.5275      958.12373      522.57576      862.87871      1151.7613    
 195568000   248.35245     -415.90719     -332.73072     -415.89342      0              4536.9077      31.138         21.471905      33.466148      22375.205      3983.1502      5303.5903      4323.9827      1706.3406      714.12437      1462.6013    
 195570000   246.93159     -417.54677     -334.84616     -417.53313      0             -356.69481      31.138         21.471905      33.489148      22390.582     -220.36573     -1650.6506      800.93187     -119.64562     -984.11445      265.30825    
 195572000   251.77105     -413.34496     -329.02355     -413.32974      0              4613.8882      31.138         21.471905      33.464075      22373.819      4873.0026      4276.7044      4691.9575      2408.1499      865.46481      864.24794    
 195574000   242.7198      -413.98433     -332.6943      -413.9864       0              2187.3822      31.138         21.471905      33.508796      22403.719      1543.9455      3492.2047      1525.9965     -535.68602      866.89951     -433.85288    
 195576000   256.53352     -414.72682     -328.8104      -414.71226      0              5696.4082      31.138         21.471905      33.500848      22398.405      5641.9807      5874.6045      5572.6395      658.08229      1585.6305      606.29735    
 195578000   253.30684     -413.51428     -328.67852     -413.50064      0              1315.4798      31.138         21.471905      33.311339      22271.701      1796.7629      545.57537      1604.101       691.03705     -760.53334     -932.92776    
 195580000   248.82375     -414.95887     -331.62455     -414.94516      0              3364.5242      31.138         21.471905      33.422332      22345.91       3537.9408      4106.5519      2449.0799      984.44899      829.06967      1178.2547    
 195582000   250.30447     -415.17577     -331.34553     -415.16148      0              3116.2179      31.138         21.471905      33.16387       22173.104      2935.8798      4043.6163      2369.1575      211.82982     -77.370324     -436.54772    
 195584000   248.84079     -414.47308     -331.13306     -414.45771      0              4200.1695      31.138         21.471905      33.231068      22218.032      4441.7364      3180.6539      4978.1181     -1283.7864      932.75042      1887.8359    
 195586000   245.95815     -417.1463      -334.77171     -417.13129      0              4568.6223      31.138         21.471905      33.278485      22249.735      4942.0192      2759.324       6004.5239      1510.3123     -1208.3898      508.46079    
 195588000   253.16346     -418.26688     -333.47914     -418.25165      0              3627.9343      31.138         21.471905      33.421487      22345.345      2994.5063      2312.0364      5577.2601     -290.74163      222.94635      2554.8148    
 195590000   246.71754     -412.78565     -330.15672     -412.77032      0              1309.1452      31.138         21.471905      33.306713      22268.607      985.55555      913.67091      2028.2091      1190.156      -103.29806      534.9184     
 195592000   260.70325     -415.82088     -328.50796     -415.80584      0              3686.115       31.138         21.471905      33.355086      22300.949      4994.6667      1899.5412      4164.1373      684.7808      -871.97783     -798.7111     
 195594000   245.99254     -412.76476     -330.37865     -412.75019      0              3711.508       31.138         21.471905      33.31765       22275.92       1997.6853      4369.857       4766.9818      1341.2181      667.66225      458.02329    
 195596000   248.39854     -415.5052      -332.3133      -415.49004      0              1600.8814      31.138         21.471905      33.3176        22275.887      4736.1113     -1077.005       1143.538      -645.40694     -1781.7054     -26.507951    
 195598000   244.61724     -415.1586      -333.23309     -415.14352      0              2638.6478      31.138         21.471905      33.298616      22263.194      2158.2296      2776.918       2980.7959      1109.0664     -1541.7327     -233.63373    
 195600000   249.45292     -412.68242     -329.13739     -412.7276       0              2681.1519      31.138         21.471905      33.489535      22390.841      4477.5596      2985.8947      580.00148     -64.103253     -539.34635     -390.86224    
 195602000   246.54404     -413.27524     -330.70443     -413.2599       0              4048.2471      31.138         21.471905      33.275352      22247.64       3952.1263      2192.2554      6000.3595     -1949.281       576.69895      37.11684     
 195604000   259.94352     -414.02555     -326.96708     -414.0104       0              3299.1355      31.138         21.471905      33.236128      22221.415      4703.5427      1611.8683      3581.9955      211.74492     -3128.6388      161.5235     
 195606000   253.38817     -415.27757     -330.41457     -415.26354      0              3983.5559      31.138         21.471905      33.300448      22264.419      5080.9179      5668.9398      1200.8099      207.69833     -192.90424     -242.50376    
 195608000   245.92736     -415.12836     -332.76408     -415.1146       0              2939.0264      31.138         21.471905      33.428861      22350.275      3571.5981      2751.9603      2493.5206      681.28974     -137.94403      833.73974    
 195610000   251.1559      -414.97562     -330.86023     -414.96062      0              2150.8519      31.138         21.471905      33.502949      22399.81       1279.5146      2505.5558      2667.4853     -905.38454     -855.04514      90.969057    
 195612000   257.3041      -414.44394     -328.26944     -414.44517      0              2648.0118      31.138         21.471905      33.587087      22456.064      2623.8703      4089.3575      1230.8078      358.27798      714.2359      -594.52378    
 195614000   245.23014     -415.26113     -333.13036     -415.24576      0              4282.9805      31.138         21.471905      33.487543      22389.509      2326.421       5183.2943      5339.2263     -1236.8801     -1756.6947     -72.57808     
 195616000   254.91274     -414.256       -328.88241     -414.24599      0              4004.6305      31.138         21.471905      33.476767      22382.304      4282.9675      3436.1075      4294.8166     -1080.1939      1087.084      -1514.7254    
 195618000   246.51314     -414.27977     -331.7193      -414.26443      0              4436.3906      31.138         21.471905      33.51899       22410.535      4147.1329      5447.604       3714.4348     -2858.0654      1042.5609     -235.08498    
 195620000   255.44804     -416.91364     -331.36076     -416.89828      0              2735.1421      31.138         21.471905      33.408066      22336.372      1037.6512      3881.7301      3286.0451      1257.6241     -367.20073      1163.0318    
 195622000   246.52821     -415.65115     -333.08564     -415.63865      0              3793.2129      31.138         21.471905      33.36676       22308.755      3340.6466      5964.0189      2074.9731      27.200737     -2104.1475     -517.9469     
 195624000   243.99055     -413.87576     -332.16015     -413.86588      0              3575.4885      31.138         21.471905      33.321067      22278.205      3847.0308      4982.284       1897.1508     -762.94169     -1270.7485      1010.7804    
 195626000   253.65436     -418.57695     -333.6248      -418.56166      0              3086.8983      31.138         21.471905      33.286277      22254.944      2939.7314      2926.2885      3394.675       200.66066      505.07396      283.703      
 195628000   254.08319     -414.0853      -328.98952     -414.07007      0              1920.0519      31.138         21.471905      33.459555      22370.797      2775.2012     -455.78502      3440.7397     -470.34889     -1002.0065      1153.0683    
 195630000   251.23966     -416.47586     -332.33242     -416.46058      0              2470.8234      31.138         21.471905      33.510102      22404.592      1945.3946      3736.86        1730.2157     -507.26023     -37.466572     -111.86879    
 195632000   247.77768     -414.38093     -331.39696     -414.36594      0              3992.3398      31.138         21.471905      33.4