LAMMPS (23 Jun 2022)
include procedure.lmp
echo both
include		in.partitions
variable        pid world 0
include		in.temp
variable	temperature equal 250
variable        tempDamp equal 0.100 # this is 0.1 ps
include		in.pressure
variable        pressure equal 3039.75
variable        pressureDamp equal 1.0 #this is 1ps

variable	barostat string	   tri
variable	direction string   z
variable	direction_x_bool equal 0
variable	direction_y_bool equal 0
variable	direction_z_bool equal 1

include		in.seed
variable        seed world 745823

units           metal
atom_style	full
box tilt large
read_restart 	restart.lmp.${pid}
read_restart 	restart.lmp.0
Reading restart file ...
  restart file = 23 Jun 2022, LAMMPS = 23 Jun 2022
  restoring atom style full from restart
  triclinic box = (0 0 -0.54140453) to (31.138 21.471905 32.737244) with tilt (-9.185133 -8.9992598 10.756205)
WARNING: Triclinic box skew is large (../domain.cpp:224)
  2 by 1 by 2 MPI processor grid
Summary of lammps deepmd module ...
  >>> Info of deepmd-kit:
  installed to:       /u/sigbjobo/software/DEEPMD_FROM_SOURCE/deepmd-kit/install
  source:             v2.1.3
  source branch:       master
  source commit:      5a32c49
  source commit at:   2022-07-01 09:52:58 +0800
  surpport model ver.:1.1 
  build float prec:   double
  build with tf inc:  /u/sigbjobo/software/DEEPMD_FROM_SOURCE/tensorflow/install/include;/u/sigbjobo/software/DEEPMD_FROM_SOURCE/tensorflow/install/include
  build with tf lib:  /u/sigbjobo/software/DEEPMD_FROM_SOURCE/tensorflow/install/lib/libtensorflow_cc.so;/u/sigbjobo/software/DEEPMD_FROM_SOURCE/tensorflow/install/lib/libtensorflow_framework.so
  set tf intra_op_parallelism_threads: 0
  set tf inter_op_parallelism_threads: 0
  >>> Info of lammps module:
  use deepmd-kit at:  /u/sigbjobo/software/DEEPMD_FROM_SOURCE/deepmd-kit/install
  source:             v2.1.3
  source branch:      master
  source commit:      5a32c49
  source commit at:   2022-07-01 09:52:58 +0800
  build float prec:   double
  build with tf inc:  /u/sigbjobo/software/DEEPMD_FROM_SOURCE/tensorflow/install/include;/u/sigbjobo/software/DEEPMD_FROM_SOURCE/tensorflow/install/include
  build with tf lib:  /u/sigbjobo/software/DEEPMD_FROM_SOURCE/tensorflow/install/lib/libtensorflow_cc.so;/u/sigbjobo/software/DEEPMD_FROM_SOURCE/tensorflow/install/lib/libtensorflow_framework.so
  restoring pair style deepmd from restart
  2592 atoms
Finding 1-2 1-3 1-4 neighbors ...
  special bond factors lj:    0        0        0       
  special bond factors coul:  0        0        0       
     0 = max # of 1-2 neighbors
     0 = max # of 1-3 neighbors
     0 = max # of 1-4 neighbors
     1 = max # of special neighbors
  special bonds CPU = 0.000 seconds
  read_restart CPU = 0.009 seconds
include 	in.setup
variable	out_freq equal 2000
variable	out_freq2 equal 2000

timestep        0.0005

neigh_modify    delay 7 every 1

include         in.deepmd
# This is deepMD model

# create groups ###
#group ox type 2
#group hy type 1

mass 2 15.999
mass 1 1.008

pair_style      deepmd ../graph.pb
pair_coeff      * *

bond_style      none
angle_style     none
dihedral_style  none
improper_style  none
neigh_modify exclude none


neighbor        2.0 bin
neigh_modify    every 50 delay 0 check no

thermo          ${out_freq}
thermo          2000
thermo_style 	custom step temp pe etotal epair emol press lx ly lz vol pxx pyy pzz pxy pxz pyz

restart 	${out_freq} restart.lmp.${pid} restart2.lmp.${pid}
restart 	2000 restart.lmp.${pid} restart2.lmp.${pid}
restart 	2000 restart.lmp.0 restart2.lmp.${pid}
restart 	2000 restart.lmp.0 restart2.lmp.0


timer           timeout 23:50:00 every 1000
New timer settings: style=normal  mode=nosync  timeout=23:50:00


# Set number of time steps
variable 	nsteps_wall		equal	 6000000
variable 	nsteps_enhanced_coex    equal	100000000

variable     nsteps_enhanced_coex_upto equal (${nsteps_wall}+${nsteps_enhanced_coex})
variable     nsteps_enhanced_coex_upto equal (6000000+${nsteps_enhanced_coex})
variable     nsteps_enhanced_coex_upto equal (6000000+100000000)


# Set temperature for first step
if "$(step) < 1  " then    "velocity 	all create ${temperature} ${seed} dist gaussian"


# Always run thermo and barostat


######################################
# Run simulation with wall potential #
######################################
if " $(step) < ${nsteps_wall} " then    "fix             3 all plumed plumedfile plumed.equil.dat outfile plumed.equil.out"   "fix             1 all nph ${direction} ${pressure} ${pressure} ${pressureDamp}"   "fix             2 all temp/csvr ${temperature} ${temperature} ${tempDamp} ${seed}"   "run             ${nsteps_wall} upto"
if " $(step) == ${nsteps_wall} " then    "unfix 3"   "unfix 1"   "unfix 2"


############################
# Run enhanced coesistence #
############################
if "$(step) == ${nsteps_wall}" then    "fix             3 all plumed plumedfile plumed.start.dat outfile plumed.out" else    "fix             3 all plumed plumedfile plumed.dat outfile plumed.out"
fix             3 all plumed plumedfile plumed.dat outfile plumed.out

if "$(step) < ${nsteps_enhanced_coex_upto} && $(step) >= ${nsteps_wall} " then    "include         in.dump"    "fix             1 all nph ${direction} ${pressure} ${pressure} ${pressureDamp}"   "fix             2 all temp/csvr ${temperature} ${temperature} ${tempDamp} ${seed}"   "run             ${nsteps_enhanced_coex_upto} upto"    "unfix 3"   "unfix 1"   "unfix 2"
include         in.dump
dump            myDump all atom ${out_freq2} dump.water.${pid}
dump            myDump all atom 2000 dump.water.${pid}
dump            myDump all atom 2000 dump.water.0
dump            myDump2 all dcd ${out_freq2} dump.${pid}.dcd
dump            myDump2 all dcd 2000 dump.${pid}.dcd
dump            myDump2 all dcd 2000 dump.0.dcd
dump_modify     myDump append yes
dump_modify     myDump2 append yes

fix             1 all nph ${direction} ${pressure} ${pressure} ${pressureDamp}
fix             1 all nph z ${pressure} ${pressure} ${pressureDamp}
fix             1 all nph z 3039.75 ${pressure} ${pressureDamp}
fix             1 all nph z 3039.75 3039.75 ${pressureDamp}
fix             1 all nph z 3039.75 3039.75 1
fix             2 all temp/csvr ${temperature} ${temperature} ${tempDamp} ${seed}
fix             2 all temp/csvr 250 ${temperature} ${tempDamp} ${seed}
fix             2 all temp/csvr 250 250 ${tempDamp} ${seed}
fix             2 all temp/csvr 250 250 0.1 ${seed}
fix             2 all temp/csvr 250 250 0.1 745823
run             ${nsteps_enhanced_coex_upto} upto
run             106000000 upto

CITE-CITE-CITE-CITE-CITE-CITE-CITE-CITE-CITE-CITE-CITE-CITE-CITE

Your simulation uses code contributions which should be cited:

- USER-DEEPMD package:

@article{Wang_ComputPhysCommun_2018_v228_p178,
  author = {Wang, Han and Zhang, Linfeng and Han, Jiequn and E, Weinan},
  doi = {10.1016/j.cpc.2018.03.016},
  url = {https://doi.org/10.1016/j.cpc.2018.03.016},
  year = 2018,
  month = {jul},
  publisher = {Elsevier {BV}},
  volume = 228,
  journal = {Comput. Phys. Commun.},
  title = {{DeePMD-kit: A deep learning package for many-body potential energy representation and molecular dynamics}},
  pages = {178--184}
}

CITE-CITE-CITE-CITE-CITE-CITE-CITE-CITE-CITE-CITE-CITE-CITE-CITE

Generated 0 of 1 mixed pair_coeff terms from geometric mixing rule
Neighbor list info ...
  update every 50 steps, delay 0 steps, check no
  max neighbors/atom: 2000, page size: 100000
  master list distance cutoff = 8
  ghost atom cutoff = 8
  binsize = 4, bins = 13 9 9
  1 neighbor lists, perpetual/occasional/extra = 1 0 0
  (1) pair deepmd, perpetual
      attributes: full, newton on
      pair build: full/bin
      stencil: full/bin/3d
      bin: standard
Per MPI rank memory allocation (min/avg/max) = 6.23 | 6.231 | 6.232 Mbytes
   Step          Temp          PotEng         TotEng         E_pair         E_mol          Press            Lx             Ly             Lz           Volume          Pxx            Pyy            Pzz            Pxy            Pxz            Pyz      
  80985000   248.9422      -415.82109     -332.4471      -415.82109      0              4462.8121      31.138         21.471905      33.278648      22249.844      3558.955       4996.2222      4833.2591      1173.4998     -778.37967     -990.45553    
  80986000   252.09054     -416.99075     -332.56234     -416.9785       0              3685.2096      31.138         21.471905      33.394204      22327.103      2997.78        4384.1238      3673.7249     -797.28664      152.35672     -713.91825    
  80988000   253.95638     -416.36128     -331.30798     -416.35055      0              3508.4841      31.138         21.471905      33.398855      22330.213      3073.0966      4195.0017      3257.3539      528.86298     -164.16928     -658.13493    
  80990000   246.28455     -415.34696     -332.86306     -415.33624      0              3969.2301      31.138         21.471905      33.34927       22297.061      3434.4741      4538.6833      3934.5328      1948.1241      180.11426     -21.232323    
  80992000   253.02783     -416.2405      -331.49818     -416.228        0              3495.5869      31.138         21.471905      33.321487      22278.486      3809.3521      4994.8015      1682.607      -984.61639     -57.196661     -1846.0516    
  80994000   256.15032     -415.62202     -329.83394     -415.62184      0              3191.9369      31.138         21.471905      33.317959      22276.127      3870.34        4203.8863      1501.5843     -1808.3989      266.54449      266.06634    
  80996000   245.16445     -414.19404     -332.08527     -414.1771       0              2212.6166      31.138         21.471905      33.414735      22340.83       2122.1128      2644.0264      1871.7106      1680.0719     -913.68617      1066.3414    
  80998000   253.88561     -415.73202     -330.70242     -415.72371      0              4820.1567      31.138         21.471905      33.325145      22280.931      4812.1068      5483.1198      4165.2434     -1516.9575     -318.51598     -407.97229    
  81000000   250.89692     -416.17177     -332.14313     -416.17046      0              3479.4691      31.138         21.471905      33.289609      22257.172      3878.8794      4165.4979      2394.0301      2431.7529      492.94186      1576.4039    
  81002000   250.5907      -417.06166     -333.13556     -417.04975      0              2645.7716      31.138         21.471905      33.400875      22331.564      4102.6622      1878.5798      1956.0729     -877.50469      2288.9632     -99.496361    
  81004000   248.30362     -415.96448     -332.80436     -415.9521       0              2696.0628      31.138         21.471905      33.469072      22377.16       2436.3954      3457.1312      2194.6618     -8.5676695      772.45091      1373.5913    
  81006000   242.88846     -417.09763     -335.75112     -417.09596      0              4219.3292      31.138         21.471905      33.51443       22407.486      3774.159       4210.6868      4673.142      -596.67311      449.58844      1425.0893    
  81008000   244.25675     -417.54917     -335.7444      -417.53867      0              3028.4811      31.138         21.471905      33.373563      22313.303      2297.7681      3370.9096      3416.7655      1336.9645      322.48466      613.72928    
  81010000   257.25023     -414.57657     -328.42012     -414.56015      0              2921.7097      31.138         21.471905      33.527087      22415.948      2586.7487      3730.355       2448.0255      307.68337      1380.2949      577.69808    
  81012000   257.49962     -418.17614     -331.93616     -418.17006      0              1265.9685      31.138         21.471905      33.440005      22357.726      158.82612      1754.3616      1884.7177      1435.3964      1054.1403     -1092.8202    
  81014000   248.45264     -418.29506     -335.08503     -418.29524      0              2361.5036      31.138         21.471905      33.245023      22227.362      349.24647      1486.557       5248.7074      911.64935      112.67516      2153.121     
  81016000   252.29523     -414.22806     -329.7311      -414.21263      0              2258.4781      31.138         21.471905      33.293563      22259.816      3486.451       1605.4651      1683.5182     -375.19774      703.79766     -293.91199    
  81018000   257.30985     -418.14972     -331.9733      -418.15292      0              3263.1515      31.138         21.471905      33.166214      22174.672      3773.1794      3015.9507      3000.3245     -554.95885     -1541.4044     -1623.429     
  81020000   245.74438     -418.46386     -336.16086     -418.4616       0              3709.5106      31.138         21.471905      33.146032      22161.178      3122.1793      2388.3664      5617.9863      436.59061     -506.59598      599.63041    
  81022000   246.25872     -417.47702     -335.00177     -417.47332      0              3852.9349      31.138         21.471905      33.267917      22242.669      2222.3185      4072.6473      5263.8387      712.66764     -285.22788      1251.2561    
  81024000   253.75058     -418.67919     -333.69481     -418.67446      0              2555.1555      31.138         21.471905      33.34079       22291.392      1868.3566      1155.6922      4641.4178     -1097.6476      917.61475      768.18822    
  81026000   244.69576     -418.52312     -336.57132     -418.51875      0              2856.7539      31.138         21.471905      33.19365       22193.015      3362.2337      1202.659       4005.3692      820.68521     -1056.86       -198.85063    
  81028000   246.79819     -416.37931     -333.72338     -416.37213      0              4484.2859      31.138         21.471905      33.197125      22195.338      4455.8588      3777.5709      5219.4282      1404.4294     -442.46026      69.120628    
  81030000   247.06809     -419.17823     -336.4319      -419.17848      0              3285.1773      31.138         21.471905      33.342269      22292.38       3482.1227      4334.2634      2039.1458     -614.03136      157.86967     -384.07435    
  81032000   251.72423     -417.61109     -333.30536     -417.60847      0              4974.7742      31.138         21.471905      33.301594      22265.186      4039.5488      6706.2848      4178.4891     -646.56107     -294.23288     -1966.2034    
  81034000   253.36158     -415.38766     -330.53357     -415.38454      0              3783.5236      31.138         21.471905      33.208808      22203.149      5705.912       2418.3171      3226.3418     -1503.8341     -1160.9246     -30.667901    
  81036000   258.2424      -417.11008     -330.62133     -417.10026      0              2709.4432      31.138         21.471905      33.602232      22466.189      4105.0621      3435.3477      587.91977     -682.04055     -1086.1562     -936.8777     
  81038000   248.72349     -417.92982     -334.62908     -417.92273      0              3516.3252      31.138         21.471905      33.312557      22272.515      3911.4367      3234.2943      3403.2444     -1076.4774     -233.20055     -10.875239    
  81040000   256.3319      -418.95429     -333.10539     -418.94645      0              790.44989      31.138         21.471905      33.342911      22292.809      1071.2756      181.95379      1118.1203      387.4783      -72.577243     -1120.2759    
  81042000   244.77017     -419.204       -337.22728     -419.19395      0              4426.2441      31.138         21.471905      33.400917      22331.592      4083.671       3582.9657      5612.0957      47.036872      419.10429      2382.7285    
  81044000   247.3691      -417.3508      -334.50367     -417.34748      0              2493.9597      31.138         21.471905      33.365916      22308.191      3563.4528      814.42958      3103.9966     -1356.275       67.364097     -820.66941    
  81046000   251.18455     -419.64731     -335.52233     -419.64994      0              1286.181       31.138         21.471905      33.16541       22174.134      200.96423      2760.2375      897.34143     -770.81487      102.29918     -1351.7638    
  81048000   256.16759     -416.04804     -330.25417     -416.03823      0              5569.0254      31.138         21.471905      33.077398      22115.289      5584.4406      5669.3707      5453.265       796.1298       1109.8511      940.47016    
  81050000   249.09141     -421.44574     -338.02178     -421.44411      0              3168.9842      31.138         21.471905      33.079306      22116.565      6114.1768      2652.8199      739.95578     -109.5571      -238.60778     -486.02629    
  81052000   253.15145     -419.15549     -334.37177     -419.14906      0              1454.4264      31.138         21.471905      33.053007      22098.982      2795.4865      1757.577      -189.78424     -155.4684       788.28597      60.137599    
  81054000   244.74889     -418.79968     -336.83008     -418.8116       0              5711.4308      31.138         21.471905      33.195151      22194.019      4789.4921      6895.4531      5449.3472      284.31838      645.76636      364.59683    
  81056000   238.55382     -416.7112      -336.81641     -416.70577      0              3466.1527      31.138         21.471905      33.180809      22184.429      3054.5324      3658.1667      3685.759      -184.1029       1208.9103     -702.84096    
  81058000   250.46992     -418.69843     -334.81278     -418.72572      0              4333.8178      31.138         21.471905      32.958586      22035.853      5224.6958      3919.2878      3857.4697     -387.66041     -287.1846       324.50307    
  81060000   250.44259     -416.45505     -332.57856     -416.44782      0              2179.7007      31.138         21.471905      33.143414      22159.427      3660.9255      1809.1416      1069.035       438.93634     -467.05799      1720.2243    
  81062000   244.62146     -419.02507     -337.09816     -419.01458      0              3496.5636      31.138         21.471905      33.179716      22183.699      2975.7399      3514.8495      3999.1013      585.30799     -408.03503     -210.32589    
  81064000   242.87317     -418.79596     -337.45457     -418.79573      0              4170.6465      31.138         21.471905      33.100581      22130.79       6504.5427      3977.9419      2029.4549     -623.16739     -538.99765     -160.54967    
  81066000   246.54755     -417.14959     -334.5776      -417.14909      0              1560.4746      31.138         21.471905      33.147022      22161.84       306.19271      2480.3729      1894.8582      373.28072     -71.837159     -1086.0125    
  81068000   252.25216     -416.14163     -331.6591      -416.1379       0              1918.0082      31.138         21.471905      33.183679      22186.348      1988.3674      2135.6605      1629.9969      571.64748     -739.30725      1810.1504    
  81070000   248.51612     -416.83784     -333.60655     -416.83864      0              1751.1333      31.138         21.471905      33.244703      22227.148      1749.4507      1503.8911      2000.0581     -124.49872      362.86027      71.785424    
  81072000   250.55779     -417.3138      -333.39873     -417.30601      0              1486.1791      31.138         21.471905      33.322081      22278.882      1766.7422      1485.7939      1206.0013     -158.71783     -1624.1114      1117.2833    
  81074000   244.11514     -420.37817     -338.62083     -420.37928      0              2532.0607      31.138         21.471905      33.120749      22144.274      2032.6662      3022.4708      2541.0452      641.15968     -640.92704     -1469.6197    
  81076000   251.66599     -418.52961     -334.24339     -418.52356      0              2168.3187      31.138         21.471905      33.148758      22163          1814.9461      3085.8851      1604.1249      22.720155      1075.0378     -130.13418    
  81078000   251.01063     -416.52613     -332.4594      -416.51478      0              4780.6689      31.138         21.471905      33.053349      22099.211      4630.0448      6214.3989      3497.5629      612.91118     -209.28509     -1067.7387    
  81080000   245.2642      -417.00554     -334.86336     -416.99753      0              3329.9697      31.138         21.471905      33.181597      22184.956      4118.146       2939.2827      2932.4803     -382.08712     -421.87703      897.21034    
  81082000   253.30507     -419.42596     -334.59079     -419.42355      0              3177.6058      31.138         21.471905      33.116067      22141.143      3738.8089      2097.8598      3696.1486      1430.2267     -1308.4655     -223.21645    
  81084000   243.2252      -415.39293     -333.93364     -415.376        0              1059.9068      31.138         21.471905      33.267014      22242.065      2430.1916      1476.5281     -726.99931      2199.394      -1594.2821     -157.31158    
  81086000   250.89188     -417.94544     -333.91848     -417.93338      0              4321.4989      31.138         21.471905      33.171059      22177.911      4796.4172      4317.9045      3850.175      -570.1492      -559.17487      218.25393    
  81088000   246.00176     -417.50655     -335.11735     -417.49959      0              4235.7466      31.138         21.471905      33.160559      22170.89       5051.648       4907.2121      2748.3796     -38.338381     -225.50517     -1771.408     
  81090000   247.94032     -416.97782     -333.93937     -416.96521      0              3186.0112      31.138         21.471905      33.142413      22158.758      1271.8816      3928.6586      4357.4935     -268.09233     -539.16888      288.35867    
  81092000   251.90416     -417.88615     -333.52016     -417.87679      0              2798.197       31.138         21.471905      33.295695      22261.242      3266.6987      2501.1173      2626.7751     -1366.5656      804.70124      1282.2192    
  81094000   252.72784     -417.68313     -333.04128     -417.67096      0              165.13473      31.138         21.471905      33.30447       22267.108     -2054.4092      3626.7163     -1076.903      -882.558        1786.3686     -395.20344    
  81096000   251.54976     -418.33088     -334.08359     -418.32824      0              4460.4163      31.138         21.471905      33.068391      22109.267      4044.0495      4544.2075      4792.992       357.31387      603.96382     -1312.5055    
  81098000   252.89893     -419.40532     -334.70617     -419.40647      0              2445.1253      31.138         21.471905      33.056558      22101.356      2878.0561      1912.2395      2545.0802      374.97732      495.9558       1469.5518    
  81100000   255.80686     -418.63439     -332.96133     -418.6289       0              4819.518       31.138         21.471905      32.937952      22022.057      3888.3687      6383.8394      4186.346      -504.32612     -889.42244      1230.1725    
  81102000   250.50464     -420.37411     -336.47684     -420.37374      0              3248.616       31.138         21.471905      32.972329      22045.041      2217.574       4893.1368      2635.137      -144.22256      1448.7076     -688.72396    
  81104000   254.69371     -418.21837     -332.91813     -418.20781      0              2451.9401      31.138         21.471905      33.127475      22148.771      3154.833       1534.8066      2666.1807      768.94433      759.00112     -462.82703    
  81106000   256.38741     -419.88569     -334.0182      -419.88634      0              2799.4498      31.138         21.471905      32.942241      22024.925      2494.5127      2525.274       3378.5628     -263.33342     -884.54675      609.78813    
  81108000   241.05147     -417.55766     -336.82638     -417.55073      0              3328.216       31.138         21.471905      33.312815      22272.688      2432.2725      4759.0509      2793.3245      486.45843      582.64         446.55603    
  81110000   256.53336     -416.75675     -330.84038     -416.7574       0              2578.1413      31.138         21.471905      33.178009      22182.557      1820.1272      2922.794       2991.5027      1809.0789     -1379.7805      336.97751    
  81112000   245.32904     -415.76454     -333.60065     -415.75175      0              1725.1894      31.138         21.471905      33.259293      22236.903      2369.9841      165.0291       2640.5551     -1806.3283      487.8345       344.57179    
  81114000   246.65384     -415.6825      -333.07491     -415.67566      0              2571.6693      31.138         21.471905      33.137608      22155.545      2185.0278      2366.3315      3163.6486     -459.8313       838.53948      154.24657    
  81116000   243.14462     -419.056       -337.6237      -419.04808      0              3337.838       31.138         21.471905      33.102311      22131.946      3443.214       3118.1903      3452.1096     -603.80453     -1068.6373     -82.279656    
  81118000   250.67248     -414.94634     -330.99286     -414.93702      0              1918.3179      31.138         21.471905      33.207697      22202.406      1696.0739      2683.4455      1375.4344     -1405.1576      173.25135     -86.925533    
  81120000   248.24726     -417.2778      -334.13656     -417.27614      0              1889.758       31.138         21.471905      33.220602      22211.035      2505.8202      488.82278      2674.631       740.00469      227.46418      559.95838    
  81122000   248.19446     -415.8811      -332.75754     -415.87221      0              3105.7695      31.138         21.471905      33.324552      22280.535      1931.0806      3891.0652      3495.1628      533.63252      1487.4098     -459.98982    
  81124000   239.83272     -418.84858     -338.52548     -418.84498      0              3963.3637      31.138         21.471905      33.192914      22192.523      3754.8769      4313.0053      3822.2088      825.78137      713.36101      64.370911    
  81126000   246.9654      -416.7832      -334.07127     -416.77184      0              2845.7331      31.138         21.471905      33.108096      22135.814      4097.0275      2880.6879      1559.4838      422.65405      1078.0095      1150.6868    
  81128000   252.02795     -417.97553     -333.56808     -417.96383      0              2988.7534      31.138         21.471905      33.363184      22306.364      4024.2882      1985.0862      2956.8857     -800.64728     -448.32979     -509.88297    
  81130000   249.09446     -416.0973      -332.67232     -416.08079      0              3039.0519      31.138         21.471905      33.176442      22181.509      2495.1597      3283.3604      3338.6357     -2629.0018      1157.0026      515.94624    
  81132000   244.34091     -416.55933     -334.72637     -416.54303      0              2524.9308      31.138         21.471905      33.126501      22148.119      916.89007      2318.9172      4338.9852      12.491045     -397.21679      2817.1464    
  81134000   257.66827     -416.55168     -330.25522     -416.54176      0              5131.5601      31.138         21.471905      32.904084      21999.413      4728.084       5019.2822      5647.314       887.75498     -938.84435     -268.68442    
  81136000   247.8419      -417.06333     -334.05785     -417.05761      0              3064.3681      31.138         21.471905      32.983882      22052.766      3416.2413      4536.1162      1240.7467      661.30537      662.44903     -1188.8688    
  81138000   247.59177     -418.27657     -335.35486     -418.26831      0              3810.4442      31.138         21.471905      32.988626      22055.937      4927.5195      3467.2148      3036.5983     -95.216351      985.29672     -1118.2869    
  81140000   253.33363     -419.0605      -334.21576     -419.05828      0              3939.4555      31.138         21.471905      33.113953      22139.73       3714.0534      4272.7654      3831.5478     -802.67361     -679.70799     -1218.85      
  81142000   248.15969     -420.00014     -336.88822     -420.00903      0              4104.7139      31.138         21.471905      33.024383      22079.844      4851.2631      3664.7209      3798.1578      1970.5038     -1457.8028      1080.6809    
  81144000   251.06693     -418.04016     -333.95458     -418.02616      0              3285.8051      31.138         21.471905      33.092838      22125.613      2118.2122      4728.1736      3011.0296      1087.1798     -1104.7524      1281.36      
  81146000   245.38701     -417.69819     -335.51488     -417.68043      0              3026.8167      31.138         21.471905      33.250583      22231.079      2180.9566      3842.6658      3056.8276      1702.5204     -119.62922      1521.3129    
  81148000   245.5009      -416.8192      -334.59775     -416.81555      0              2688.6047      31.138         21.471905      33.166795      22175.06       3447.1626      3120.4767      1498.1749     -139.51136      788.6771       1157.3222    
  81150000   257.09984     -418.40064     -332.29456     -418.39248      0              1466.2708      31.138         21.471905      33.119762      22143.614      1138.7299      3082.7505      177.33187     -360.58753     -434.70072      46.014547    
  81152000   244.4545      -418.51149     -336.64049     -418.50265      0              4546.3494      31.138         21.471905      33.174152      22179.979      4914.1418      3417.6385      5307.2679      865.22951     -326.27723      1250.6068    
  81154000   246.54339     -414.68309     -332.1125      -414.66587      0              2813.0398      31.138         21.471905      33.073742      22112.845      2828.8932      3104.0877      2506.1385      193.97636     -429.47821     -799.7498     
  81156000   246.05689     -417.79952     -335.39186     -417.78702      0              4039.9994      31.138         21.471905      32.970575      22043.869      2167.9269      5325.3069      4626.7643     -2025.0687     -113.24416     -207.83849    
  81158000   254.38145     -417.62081     -332.42514     -417.61487      0              4986.1733      31.138         21.471905      33.105055      22133.781      5779.099       5223.4957      3955.9251     -1980.2566     -683.56528     -282.72008    
  81160000   248.81523     -417.20435     -333.87288     -417.19799      0              3249.3513      31.138         21.471905      33.073909      22112.957      3593.4933      3658.6432      2495.9175     -405.31038     -1274.5484     -101.36594    
  81162000   253.27897     -418.77904     -333.95261     -418.76714      0              1910.2889      31.138         21.471905      33.144237      22159.977     -325.03502      3671.4888      2384.413      -72.537278     -253.33476      903.75054    
  81164000   251.67372     -419.03518     -334.74637     -419.02632      0              3867.2342      31.138         21.471905      33.099714      22130.21       4292.0561      4378.8452      2930.8012      485.89958     -823.47049      1119.5202    
  81166000   248.32794     -417.6404      -334.47214     -417.62939      0              1841.1525      31.138         21.471905      32.919273      22009.568      2694.9773      2445.7436      382.73664      111.25789     -1237.3581      830.09994    
  81168000   254.97791     -416.79591     -331.40049     -416.77844      0              5378.4789      31.138         21.471905      32.971031      22044.173      5504.5864      6878.7803      3752.07        69.386644     -401.82804      171.10151    
  81170000   247.75703     -417.79068     -334.81362     -417.78281      0              5065.2188      31.138         21.471905      32.932076      22018.129      5884.3682      4033.0633      5278.2248      1154.2665     -507.98324      86.042362    
  81172000   249.08348     -419.44284     -336.02153     -419.42509      0              2976.7142      31.138         21.471905      32.993838      22059.422      2287.9341      1354.8943      5287.3142      463.02416      906.33786     -26.08417     
  81174000   247.02719     -419.4556      -336.72298     -419.45157      0              1738.8099      31.138         21.471905      32.93341       22019.02       878.184        1998.9567      2339.289       687.02417      506.48056      1012.844     
  81176000   255.52464     -416.65514     -331.07661     -416.64978      0              3204.3214      31.138         21.471905      33.119874      22143.689      3677.3675      2604.7001      3330.8966      772.02423      0.50637973     1060.4891    
  81178000   245.64503     -415.12049     -332.85076     -415.10925      0              3197.5013      31.138         21.471905      33.128549      22149.489      4084.5602      3423.4888      2084.4548      158.6871      -849.28431     -1938.7802    
  81180000   250.21755     -416.19859     -332.39747     -416.18608      0              2797.8558      31.138         21.471905      33.390229      22324.446      3336.3943      5094.395      -37.221926     -137.11445      780.17742      1878.6266    
  81182000   253.12489     -417.11205     -332.33723     -417.0999       0              2281.6007      31.138         21.471905      33.168231      22176.02       3015.8784      1644.8746      2184.049      -458.739       -2453.6982     -98.75934     
  81184000   253.4185      -416.05388     -331.18072     -416.03799      0              3999.7155      31.138         21.471905      33.191559      22191.617      5643.4909      2450.4797      3905.176       938.39638      231.65714      1064.4291    
  81186000   250.8313      -416.45233     -332.44566     -416.44122      0              4045.0013      31.138         21.471905      33.177529      22182.237      4161.0514      4299.9273      3674.0253     -646.98916     -346.65909      660.05577    
  81188000   243.21616     -419.80192     -338.34566     -419.79966      0              3959.1195      31.138         21.471905      33.211011      22204.622      1939.0516      5463.2246      4475.0824      1076.6471      707.06106     -802.48854    
  81190000   246.46815     -419.26299     -336.71759     -419.26121      0              2504.8442      31.138         21.471905      33.183542      22186.257      1383.2145      2116.3916      4014.9264     -1411.4974      1653.4015      481.29782    
  81192000   250.39358     -416.41613     -332.55605     -416.41461      0              3834.586       31.138         21.471905      32.923811      22012.602      4646.3784      4343.938       2513.4415      735.70002     -1193.7078     -827.85466    
  81194000   250.49413     -418.40267     -334.50892     -418.40194      0              3333.7991      31.138         21.471905      33.230373      22217.568      3855.9301      3635.3594      2510.1079      105.32408     -132.51948      496.23881    
  81196000   251.50933     -418.29632     -334.06257     -418.30257      0              1884.5689      31.138         21.471905      33.250995      22231.355      2701.0209      1127.9909      1824.6948      828.46371     -540.1366       223.37352    
  81198000   251.53487     -416.0057      -331.76339     -415.99899      0              3791.4685      31.138         21.471905      33.240527      22224.356      4458.6369      4228.0419      2687.7266      1745.4211     -320.10408     -1949.2244    
  81200000   245.38188     -419.58689     -337.4053      -419.57782      0              4224.1207      31.138         21.471905      33.317703      22275.955      5288.4328      5070.0957      2313.8336      1162.6288      729.15285     -1955.8568    
  81202000   253.03448     -416.54438     -331.79983     -416.5374       0              2595.5543      31.138         21.471905      33.276783      22248.597      3340.2482      1866.5146      2579.9001     -1007.7934      1506.2521     -545.80866    
  81204000   253.25154     -418.47182     -333.65458     -418.46035      0              2300.4109      31.138         21.471905      33.351         22298.218      1705.0991      1001.4079      4194.7256     -728.29797     -516.63933     -820.99233    
  81206000   247.61504     -417.49652     -334.56701     -417.48726      0              2547.7981      31.138         21.471905      33.342732      22292.69       2546.0688      1664.827       3432.4985      1251.2773      143.04979      434.09474    
  81208000   246.28296     -415.87679     -333.39342     -415.86432      0              2049.9674      31.138         21.471905      33.510581      22404.913      2709.9316      1221.7267      2218.244       461.73234     -389.23581      1941.0397    
  81210000   254.56014     -418.34201     -333.0865      -418.33438      0              4435.5553      31.138         21.471905      33.266387      22241.646      6759.9583      2378.4119      4168.2955      871.6456      -421.23591     -133.52941    
  81212000   246.77764     -415.20888     -332.55984     -415.19238      0              2467.3838      31.138         21.471905      33.361837      22305.463      4097.634       2108.9924      1195.5249     -134.88182      1001.5543      954.0321     
  81214000   248.30797     -414.98889     -331.82731     -414.97304      0              2305.8602      31.138         21.471905      33.602524      22466.385      3331.7776      1552.456       2033.3469     -203.43443     -156.80899     -646.15961    
  81216000   251.83127     -414.94146     -330.59989     -414.9253       0              4468.2634      31.138         21.471905      33.462676      22372.884      5504.4648      4141.3897      3758.9355     -68.089671      1284.911      -245.57589    
  81218000   247.32889     -416.07151     -333.23784     -416.06116      0              4681.4911      31.138         21.471905      33.39426       22327.141      5343.9975      6425.6998      2274.776       2246.7311      1536.6387     -934.92016    
  81220000   244.90937     -416.98877     -334.96543     -416.98332      0              1324.7913      31.138         21.471905      33.151721      22164.982      1665.6149     -532.71607      2841.4751      100.44619     -120.3679      -338.08469    
  81222000   246.03193     -417.03921     -334.63991     -417.02146      0              4251.3142      31.138         21.471905      33.365253      22307.747      4869.9769      3859.5949      4024.3708      205.7339      -1865.2044      589.00241    
  81224000   248.12409     -417.60744     -334.50744     -417.60597      0              4863.4457      31.138         21.471905      33.279699      22250.546      5407.391       2986.1873      6196.7587     -1063.1611      1408.3894      855.77453    
  81226000   251.08687     -416.46053     -332.36826     -416.44809      0              4120.2198      31.138         21.471905      33.06939       22109.936      4370.8258      3355.6139      4634.2195      458.32385     -1252.628       485.79836    
  81228000   251.42657     -414.99511     -330.78907     -414.97893      0              3678.1854      31.138         21.471905      33.200151      22197.361      4491.5415      3933.8809      2609.1339     -1082.4393     -849.57032     -1596.9264    
  81230000   255.96108     -415.80093     -330.07623     -415.78569      0              3256.2741      31.138         21.471905      33.235381      22220.916      2820.9196      2381.4684      4566.4343     -554.41489      353.50148      142.14901    
  81232000   256.92466     -418.42287     -332.37546     -418.41253      0              3380.5218      31.138         21.471905      33.091804      22124.921      3195.4218      3648.2303      3297.9133     -767.2717      -61.521747     -706.07304    
  81234000   249.03885     -418.5626      -335.15624     -418.55691      0              3159.0899      31.138         21.471905      33.119337      22143.33       2963.8366      1881.026       4632.4071     -141.04229      521.90037     -136.53897    
  81236000   252.30878     -413.9637      -329.4622      -413.95613      0              3323.0196      31.138         21.471905      32.864095      21972.677      3718.5515      3280.525       2969.9822      1348.7127     -2196.246      -210.12737    
  81238000   252.86103     -418.43445     -333.74799     -418.42306      0              2392.7147      31.138         21.471905      33.180249      22184.055      3516.3478      2867.5451      794.25129     -1864.9441     -242.68351     -543.10204    
  81240000   258.29272     -418.3693      -331.8637      -418.36713      0              3120.2387      31.138         21.471905      33.268057      22242.763      3620.1098      4014.0218      1726.5846      139.99086      333.32099      127.90603    
  81242000   246.48912     -415.48884     -332.93643     -415.47475      0              3430.1557      31.138         21.471905      33.208094      22202.672      2581.8395      4225.189       3483.4387      284.50232     -1383.4401      1339.0001    
  81244000   248.99919     -418.20807     -334.81499     -418.20631      0              4475.6818      31.138         21.471905      33.12137       22144.689      4451.6515      3362.8087      5612.5854      359.89764     -959.68444      235.3476     
  81246000   243.18003     -414.50657     -333.0624      -414.49102      0              582.88214      31.138         21.471905      33.276432      22248.362     -118.48662      341.91062      1525.2224      1505.2029     -443.27532      771.0166     
  81248000   249.59666     -412.11146     -328.51828     -412.09806      0              3024.6705      31.138         21.471905      33.198992      22196.586      2576.2788      3678.1198      2819.6129     -1090.8761     -1470.4289      1216.8262    
  81250000   248.43805     -416.41558     -333.21044     -416.39872      0              2835.1343      31.138         21.471905      33.153298      22166.036      3509.9277      1210.6813      3784.794      -1423.2584     -1649.5395      654.00402    
  81252000   251.60019     -414.43258     -330.1684      -414.42571      0              2264.3374      31.138         21.471905      33.187982      22189.225      2591.6537      3830.5577      370.80074      248.81916     -259.76826     -1995.0236    
  81254000   243.45827     -417.16609     -335.62874     -417.15331      0              2401.827       31.138         21.471905      33.043642      22092.721      3065.6345      337.04663      3802.7998      345.89146     -899.23251     -269.07969    
  81256000   245.18318     -417.34342     -335.22837     -417.33773      0              3616.6557      31.138         21.471905      33.113187      22139.218      5090.1492      3663.8239      2095.9939      656.12349      391.35773     -694.54663    
  81258000   250.74917     -415.3694      -331.39024     -415.36299      0              2641.521       31.138         21.471905      33.030266      22083.777      4489.9304      2437.8373      996.79516      870.01748      200.33298      796.26613    
  81260000   255.09082     -416.7763      -331.34306     -416.7735       0              3742.1253      31.138         21.471905      33.078252      22115.86       4519.8812      2167.6711      4538.8238     -733.84557     -321.93971      1402.0624    
  81262000   251.97918     -416.39644     -332.00533     -416.37949      0              3353.5182      31.138         21.471905      32.992939      22058.821      4948.2139      1822.429       3289.9118     -1567.7132     -1709.3575     -85.965584    
  81264000   258.70744     -416.31727     -329.67278     -416.308        0              3317.1522      31.138         21.471905      33.124401      22146.716      4692.1106      2780.843       2478.5031      1379.2502     -856.50719     -269.70909    
  81266000   249.34598     -414.86508     -331.35586     -414.86165      0              2773.252       31.138         21.471905      33.041298      22091.153      4407.0286      2610.594       1302.1334     -392.78336     -1216.2007     -1871.1334    
  81268000   246.26728     -412.23001     -329.75189     -412.22599      0              4736.2792      31.138         21.471905      33.007934      22068.846      2889.0594      3459.3978      7860.3803      137.52978     -882.00115      2538.9681    
  81270000   251.58603     -416.28206     -332.02262     -416.28271      0              3594.7888      31.138         21.471905      33.287348      22255.66       3264.247       4169.9874      3350.1321     -1806.927       1654.6227     -128.05833    
  81272000   246.97717     -417.70474     -334.98886     -417.70105      0              1751.4072      31.138         21.471905      33.24815       22229.453      716.41822      1746.8555      2790.948       2323.8601      1715.476       632.0416     
  81274000   251.1281      -414.68754     -330.58147     -414.69029      0              2950.9019      31.138         21.471905      33.185337      22187.457      4211.5027      3375.3616      1265.8415      200.63948      264.6544      -923.9256     
  81276000   256.61738     -415.17479     -329.23028     -415.16821      0              4186.2567      31.138         21.471905      33.126083      22147.84       4066.6392      3565.6955      4926.4355      696.1815       68.238982      1277.3718    
  81278000   250.10419     -418.28827     -334.52512     -418.28797      0              1620.0641      31.138         21.471905      33.274143      22246.832      3225.5043      228.75692      1405.9311      983.38781      182.08428      1898.319     
  81280000   254.83255     -413.84192     -328.49518     -413.82939      0              1592.9402      31.138         21.471905      33.568119      22443.382      131.12113      2814.1644      1833.5351      959.62772      601.58448     -307.58401    
  81282000   249.54677     -417.30303     -333.72656     -417.2935       0              2360.234       31.138         21.471905      33.398282      22329.83       645.84461      3528.4629      2906.3946      709.48404      614.60198      324.24503    
  81284000   245.07969     -415.03025     -332.94987     -415.02783      0              3352.0247      31.138         21.471905      33.330834      22284.735      2997.754       3661.3803      3396.9399      388.22542     -383.03432     -394.64681    
  81286000   250.15661     -415.63259     -331.85188     -415.62286      0              2861.2965      31.138         21.471905      33.400573      22331.362      5133.3428      2404.783       1045.7638      119.67546      583.67426      632.11198    
  81288000   245.24711     -415.9703      -333.83385     -415.96107      0              3752.2696      31.138         21.471905      33.220757      22211.138      1670.3417      5677.7002      3908.7668      596.66553     -384.99509      990.1457     
  81290000   250.84919     -416.51742     -332.50476     -416.51455      0              4306.358       31.138         21.471905      33.003619      22065.961      5163.1168      2902.2712      4853.6859      1506.2944     -354.59807     -58.216362    
  81292000   255.78558     -416.7678      -331.10187     -416.76152      0              3681.5236      31.138         21.471905      33.110976      22137.74       3176.3686      2672.3127      5195.8894      478.00408      236.57968      1205.2817    
  81294000   247.99511     -416.10385     -333.04705     -416.0983       0              828.69773      31.138         21.471905      33.175532      22180.901      1359.7255      450.14903      676.2186       682.74241     -1390.308      -864.48646    
  81296000   252.40721     -416.20637     -331.6719      -416.20365      0              3416.2916      31.138         21.471905      33.107724      22135.565      3442.7731      1677.119       5128.9827      491.75327     -243.93072      662.77279    
  81298000   243.87635     -415.88537     -334.208       -415.87106      0              4689.2139      31.138         21.471905      33.117014      22141.777      5682.9896      3461.8948      4922.7573      379.57502     -818.55102      704.92087    
  81300000   248.23584     -416.98798     -333.85056     -416.9762       0              2061.632       31.138         21.471905      33.180044      22183.918      1973.7558      1753.2406      2457.8996      568.18181     -529.92365      1236.3951    
  81302000   252.48007     -417.70363     -333.14477     -417.70422      0              3589.3318      31.138         21.471905      33.139296      22156.674      4051.4842      2415.1169      4301.3943      1262.1474     -1210.1528      617.32667    
  81304000   252.24793     -414.87632     -330.3952      -414.85851      0              2160.9718      31.138         21.471905      33.344684      22293.995      2276.9993      1890.2217      2315.6944     -864.29099     -1607.6301      381.12787    
  81306000   249.59165     -417.75322     -334.16172     -417.73859      0              3310.3943      31.138         21.471905      33.261485      22238.369      2918.6415      3279.9768      3732.5646      699.57748      1143.6836     -1486.3071    
  81308000   251.35705     -416.62075     -332.438       -416.60505      0              3722.3594      31.138         21.471905      33.195501      22194.252      5196.2524      3161.5593      2809.2666     -219.79687     -1119.9555      1359.9231    
  81310000   254.8127      -416.71083     -331.37073     -416.69511      0              3642.6511      31.138         21.471905      33.216733      22208.448      4158.2486      3964.6835      2805.0211     -410.03777      60.818708     -582.53111    
  81312000   244.61487     -414.76954     -332.84483     -414.76385      0              2357.8164      31.138         21.471905      33.356543      22301.924      3069.288       2284.2299      1719.9311     -80.858361      4.5868311     -691.32284    
  81314000   251.90622     -417.21283     -332.84615     -417.20707      0              3315.4194      31.138         21.471905      33.274736      22247.228      2481.6065      2706.7374      4757.9143     -374.67143      101.11797      335.86225    
  81316000   247.46591     -415.96253     -333.08297     -415.94541      0              3125.5657      31.138         21.471905      33.122268      22145.289      2544.326       2328.6732      4503.6978      1339.0147      358.74775      3157.6849    
  81318000   253.48492     -414.80274     -329.90733     -414.78609      0              1136.2994      31.138         21.471905      33.312382      22272.398      618.07124      324.50402      2466.323       270.88791      870.19074     -158.18883    
  81320000   246.93455     -418.54095     -335.83935     -418.53909      0              5932.6596      31.138         21.471905      33.011288      22071.089      6290.9582      6889.9679      4617.0526     -131.9433       1064.8303      478.75932    
  81322000   250.63523     -416.44438     -332.50338     -416.43792      0              4785.685       31.138         21.471905      33.151077      22164.551      5321.1853      4263.7058      4772.1639      237.12291     -187.26827      1397.7429    
  81324000   247.11252     -413.51574     -330.75453     -413.50332      0              3803.9585      31.138         21.471905      33.182557      22185.598      3082.7494      4076.6882      4252.4378      1470.5485      558.80146      477.13095    
  81326000   249.7534      -414.88477     -331.23911     -414.86776      0              3728.4027      31.138         21.471905      33.148189      22162.62       2543.622       4847.4647      3794.1213      2192.2682     -68.572151      990.13966    
  81328000   249.4487      -416.65808     -333.11445     -416.6518       0              3236.5092      31.138         21.471905      33.215139      22207.382      4148.4562      2620.8061      2940.2654      984.66255      32.606496      670.65083    
  81330000   253.36023     -418.06478     -333.21114     -418.04966      0              2914.8502      31.138         21.471905      33.335193      22287.649      2256.121       4880.375       1608.0547      1284.3759      21.355887     -1263.9497    
  81332000   253.87264     -419.61174     -334.58648     -419.60552      0              2001.2796      31.138         21.471905      33.298195      22262.913      3058.6657      2092.9178      852.25531     -646.78158     -409.37672     -211.60344    
  81334000   249.4234      -418.5729      -335.03775     -418.55551      0              2134.6095      31.138         21.471905      33.332545      22285.879      3854.7174      1505.312       1043.7992     -849.86739      107.28195      1516.52      
  81336000   252.46485     -417.331       -332.77723     -417.31482      0              2398.1526      31.138         21.471905      33.355322      22301.107      2845.2237      1999.8484      2349.3856     -680.99123     -1185.5457     -1565.8757    
  81338000   242.73746     -418.52395     -337.22801     -418.50803      0              3595.0573      31.138         21.471905      33.36685       22308.815      3544.5832      4666.7172      2573.8714      150.49648      1025.6116     -262.24058    
  81340000   248.31243     -413.98005     -330.81698     -413.96234      0              2046.2156      31.138         21.471905      33.461675      22372.214      3597.8768      2801.4773     -260.7074       86.332157     -578.24539     -542.21642    
  81342000   247.9117      -415.2172      -332.18834     -415.20386      0              4170.3504      31.138         21.471905      33.347592      22295.939      5961.6778      4336.7167      2212.6567      770.80052     -544.63927     -531.05215    
  81344000   247.84262     -414.92699     -331.92127     -414.92073      0              2139.4415      31.138         21.471905      33.277803      22249.279      2711.2155      2264.1513      1442.9577     -374.501       -944.32821      241.11174    
  81346000   249.28806     -415.51016     -332.02034     -415.50123      0              4128.196       31.138         21.471905      33.236931      22221.952      2231.0651      3904.879       6248.6439     -499.64979      467.65343      1074.3017    
  81348000   251.86462     -416.70206     -332.34931     -416.70017      0              4132.0869      31.138         21.471905      33.09882       22129.612      2851.1709      1967.1588      7577.9309     -682.13         160.87883      847.39266    
  81350000   250.5243      -414.63871     -330.73486     -414.62819      0              4418.516       31.138         21.471905      33.144893      22160.416      4081.1593      6655.4521      2518.9366     -1114.402       60.954474     -401.2906     
  81352000   246.98106     -417.45225     -334.73508     -417.44007      0              3086.3855      31.138         21.471905      33.347222      22295.692      2467.2407      3910.3932      2881.5225     -1118.2072     -1335.6859      104.95584    
  81354000   251.45915     -417.17904     -332.9621      -417.16198      0              3401.7698      31.138         21.471905      33.424441      22347.32       3174.8437      3961.9427      3068.5231     -1077.66       -447.70173     -279.78301    
  81356000   242.79426     -417.2755      -335.96054     -417.25841      0              2499.9431      31.138         21.471905      33.456573      22368.803      3076.8823      2585.4993      1837.4476     -773.67751      798.32475     -852.04981    
  81358000   246.02631     -420.70431     -338.30689     -420.69849      0              3771.7219      31.138         21.471905      33.340028      22290.882      4449.7073      4485.1068      2380.3516      442.74908     -1477.1245      499.23927    
  81360000   251.14593     -416.56763     -332.45558     -416.54988      0              3608.3102      31.138         21.471905      33.577597      22449.719      4107.8967      4089.0343      2627.9996     -305.71463     -572.03399      331.53609    
  81362000   244.21433     -416.89032     -335.09976     -416.87478      0              3493.0997      31.138         21.471905      33.449238      22363.899      3408.6043      3147.5633      3923.1316      446.03126     -599.01597      71.451257    
  81364000   249.04349     -417.56992     -334.16201     -417.55661      0              3917.8084      31.138         21.471905      33.569266      22444.148      5154.3209      4144.1219      2454.9824     -1489.2956     -1054.0494      58.611219    
  81366000   250.23301     -416.7841      -332.9778      -416.77336      0              4838.3915      31.138         21.471905      33.464879      22374.357      5309.896       5513.4745      3691.8041      666.18898      577.39463      201.71268    
  81368000   253.99977     -414.74252     -329.67468     -414.72544      0              1978.5864      31.138         21.471905      33.467967      22376.421      1336.003       2299.9983      2299.758      -224.82354      950.95329     -91.421348    
  81370000   248.16081     -419.91641     -336.80412     -419.89956      0              1532.9106      31.138         21.471905      33.562139      22439.383      1337.6193      3370.0739     -108.96151      302.73437     -974.29169     -361.11943    
  81372000   251.72973     -418.54788     -334.24031     -418.5338       0              2644.5211      31.138         21.471905      33.589091      22457.404      2315.0613      3027.8242      2590.6778     -994.07988     -38.526269     -397.8917     
  81374000   247.06372     -419.97064     -337.22578     -419.95888      0              5135.8186      31.138         21.471905      33.425064      22347.736      4369.2252      5624.2301      5414.0005      418.60996     -665.57604      367.20958    
  81376000   251.49323     -419.08781     -334.85945     -419.08417      0              2997.6446      31.138         21.471905      33.405249      22334.488      3000.2721      4737.3949      1255.267       848.68552     -1700.8226     -389.64714    
  81378000   248.63773     -417.15689     -333.88488     -417.13995      0              2761.5537      31.138         21.471905      33.400415      22331.256      2340.6379      3815.604       2128.4193      1025.4867      185.07872     -1928.7479    
  81380000   251.86692     -418.93751     -334.58399     -418.92289      0              4210.6162      31.138         21.471905      33.312338      22272.369      4900.1822      3873.7056      3857.9606     -696.55077     -1469.913      -922.77901    
  81382000   251.66767     -420.47299     -336.18621     -420.46678      0              2526.9757      31.138         21.471905      33.422832      22346.244      3091.6851      3969.3773      519.86459     -405.42869     -17.360695     -1785.1601    
  81384000   246.45197     -421.76246     -339.22249     -421.74884      0              4022.2237      31.138         21.471905      33.249189      22230.148      4504.5004      2941.6896      4620.4813     -284.84775     -167.85183     -439.96371    
  81386000   250.50199     -417.69376     -333.79738     -417.67648      0              3694.3646      31.138         21.471905      33.289745      22257.263      4246.1053      2438.6006      4398.3878      1170.4692      1267.528       299.91274    
  81388000   248.32654     -417.96615     -334.79835     -417.9542       0              4446.2698      31.138         21.471905      33.299821      22264          3852.3383      4393.4877      5092.9833     -1518.4368      1063.829      -202.58694    
  81390000   247.98645     -417.20404     -334.15015     -417.19333      0              4342.962       31.138         21.471905      33.289849      22257.333      3629.4188      4119.5012      5279.9659     -192.31948      454.74266      719.21199    
  81392000   251.37487     -418.20922     -334.0205      -418.19876      0              3683.1875      31.138         21.471905      33.359072      22303.615      1927.8403      4591.2827      4530.4394     -1161.3678      312.46651      368.53347    
  81394000   254.56616     -415.31745     -330.05992     -415.30588      0              2984.9632      31.138         21.471905      33.424911      22347.634      2134.4135      3056.9863      3763.4896      1159.6142     -158.84344     -776.66424    
  81396000   256.66016     -416.08833     -330.12949     -416.08755      0              4078.1405      31.138         21.471905      33.296841      22262.007      2122.6589      5398.8141      4712.9487      1965.4484      437.73588      677.03286    
  81398000   247.20229     -420.44488     -337.65361     -420.44883      0              2554.5388      31.138         21.471905      33.261359      22238.284      1878.0738      4344.3377      1441.205      -1150.2082     -380.06649      361.66663    
  81400000   246.71385     -418.74234     -336.11465     -418.73249      0              3045.1038      31.138         21.471905      33.491681      22392.276      1821.3849      5251.5185      2062.4078      483.61965      665.1649      -395.43217    
  81402000   249.8587      -417.74688     -334.06594     -417.74128      0              3208.2079      31.138         21.471905      33.477909      22383.068      4844.2546      2598.6093      2181.7598     -226.5041       652.399       -1.7243311    
  81404000   251.56536     -415.7051      -331.45258     -415.69629      0              2281.6192      31.138         21.471905      33.611658      22472.492      1291.5749      3631.9424      1921.3402      1173.3158     -359.61845      1370.7223    
  81406000   253.79364     -417.71928     -332.72048     -417.71334      0              1075.9501      31.138         21.471905      33.571975      22445.96       804.63145      935.16866      1488.05       -9.5550377     -455.65799     -1666.9891    
  81408000   252.01022     -415.77538     -331.37387     -415.76553      0              2855.1629      31.138         21.471905      33.445518      22361.412      2159.6889      3059.8607      3345.9392      304.20553     -873.32066      514.59523    
  81410000   249.49345     -417.18073     -333.62212     -417.17482      0              1762.5863      31.138         21.471905      33.690732      22525.36       1099.1624      2901.1903      1287.4064      579.04501      1129.3713     -494.96162    
  81412000   246.29379     -418.62444     -336.13744     -418.62004      0              2951.9198      31.138         21.471905      33.661511      22505.823      3815.935       3456.9054      1582.9191      1026.7587      974.2705      -1675.6375    
  81414000   251.88776     -417.76857     -333.40808     -417.76468      0              2769.8653      31.138         21.471905      33.532045      22419.263      5136.0952      1388.6229      1784.8777      1784.72       -1208.6937     -1867.6508    
  81416000   247.43191     -417.81994     -334.95177     -417.82307      0              1986.0178      31.138         21.471905      33.575813      22448.526      1978.3488      1768.8432      2210.8615     -674.03399      655.7726      -173.71797    
  81418000   248.25029     -416.55432     -333.41206     -416.54559      0              1396.6436      31.138         21.471905      33.466177      22375.224      2436.2444      219.01452      1534.6719      488.98083      1306.844       667.39905    
  81420000   247.99003     -419.21416     -336.15907     -419.22116      0              3419.789       31.138         21.471905      33.339949      22290.829      3231.6199      3968.0273      3059.7198     -81.039925      441.48335      162.64502    
  81422000   250.31126     -419.67115     -335.83864     -419.67341      0              3685.4872      31.138         21.471905      33.447528      22362.755      3641.3247      5000.4277      2414.7092      1568.0577      1071.9673      323.62432    
  81424000   259.27407     -417.49305     -330.65878     -417.48448      0              2081.6094      31.138         21.471905      33.586585      22455.728      1361.0498      3395.4781      1488.3002      443.2822      -491.87182      1405.0465    
  81426000   245.47168     -420.21381     -338.00214     -420.21439      0              3694.3504      31.138         21.471905      33.736939      22556.253      3665.5077      4532.3011      2885.2423     -1215.9825      1736.2781     -803.67795    
  81428000   243.09378     -415.74588     -334.3306      -415.74539      0              741.62674      31.138         21.471905      33.839851      22625.06      -24.619631     -486.84439      2736.3443     -514.71355      1817.3771      255.65709    
  81430000   251.34424     -419.46674     -335.28828     -419.46696      0              3383.6682      31.138         21.471905      33.428616      22350.111      2741.856       2525.8591      4883.2894      307.80808      618.64759     -878.01696    
  81432000   248.1022      -414.97386     -331.8812      -414.95759      0              2986.4178      31.138         21.471905      33.695016      22528.224      1866.9355      4640.2572      2452.0606      2155.8841     -822.95782     -57.648446    
  81434000   247.81788     -418.84598     -335.84854     -418.84512      0              2766.5491      31.138         21.471905      33.662356      22506.388      4125.107       390.80695      3783.7333     -1034.3656     -597.47224     -174.50121    
  81436000   242.09408     -417.71765     -336.63718     -417.71352      0              2548.9688      31.138         21.471905      33.380032      22317.628      172.80272      3886.1839      3587.9198      352.72065      381.39796      731.86056    
  81438000   255.61456     -421.16912     -335.56047     -421.17519      0              1578.1305      31.138         21.471905      33.392814      22326.174      61.350323      2587.9445      2085.0966      649.98378      1794.471      -736.0584     
  81440000   257.00608     -417.2008      -331.12611     -417.19459      0              3980.7856      31.138         21.471905      33.408023      22336.343      4374.1822      2745.749       4822.4256     -658.9237       1064.2262      507.88854    
  81442000   249.82985     -420.67049     -336.99922     -420.66998      0              4639.1039      31.138         21.471905      33.620851      22478.638      5145.102       2892.4726      5879.7372     -1001.901      -108.38403     -467.66819    
  81444000   248.09724     -418.36292     -335.27192     -418.35452      0              3759.8738      31.138         21.471905      33.571015      22445.318      3328.7505      4501.1867      3449.6842      966.48413      1202.3556     -244.17104    
  81446000   245.5987      -415.3057      -333.05149     -415.29956      0              915.38997      31.138         21.471905      33.502205      22399.313      527.3544       1882.4348      336.38075      1124.5886      3.9508202     -444.83463    
  81448000   246.35311     -413.99627     -331.4894      -413.98837      0              3354.6553      31.138         21.471905      33.600858      22465.271      2575.4678      3207.6696      4280.8286     -1274.8727      588.47258      389.41608    
  81450000   252.7456      -418.23545     -333.58766     -418.23593      0              1632.1203      31.138         21.471905      33.371219      22311.736      3121.2453      1244.1537      530.96178     -165.20387      1092.7243     -1371.3181    
  81452000   261.72494     -417.21286     -329.55777     -417.20656      0              4141.5393      31.138         21.471905      33.291979      22258.757      3083.4656      3257.3802      6083.7722      492.53288      195.87391      417.05973    
  81454000   253.73947     -417.19323     -332.21258     -417.18523      0              2022.5437      31.138         21.471905      33.281656      22251.855      2168.5767      3230.5743      668.48024     -442.85091     -279.95603     -688.14056    
  81456000   258.29251     -418.59431     -332.08878     -418.5933       0              3173.4375      31.138         21.471905      33.376522      22315.282      2116.0065      4430.5683      2973.7376     -456.84034      2473.3739     -201.90421    
  81458000   246.89161     -415.81123     -333.12401     -415.80652      0              2068.8271      31.138         21.471905      33.334576      22287.237      2216.3213      2543.6661      1446.4939     -834.68092      1302.4515      1166.1756    
  81460000   251.20699     -417.23554     -333.10305     -417.22341      0              2891.6995      31.138         21.471905      33.607201      22469.512      2371.4035      2974.3506      3329.3445     -473.15631      306.13064     -1472.1888    
  81462000   249.3775      -417.07668     -333.55691     -417.07801      0              2958.0811      31.138         21.471905      33.488544      22390.179      3215.2915      3112.5037      2546.448      -793.95941      1502.6179     -1059.2545    
  81464000   246.14405     -418.15355     -335.7167      -418.14517      0              2401.6183      31.138         21.471905      33.42407       22347.072      1481.0934      2232.5266      3491.235       1024.3619     -146.30576      1605.4891    
  81466000   248.0392      -420.12118     -337.04962     -420.17471      0              4971.9135      31.138         21.471905      33.322877      22279.415      4106.2344      5925.2447      4884.2614     -235.47255      47.194392      211.41792    
  81468000   248.49883     -419.58381     -336.35832     -419.57892      0              1777.7884      31.138         21.471905      33.388573      22323.339      1213.0984      1024.305       3095.9619      1331.2778      366.03987      1212.438     
  81470000   251.2089      -416.83808     -332.70495     -416.83562      0              2957.7071      31.138         21.471905      33.500558      22398.211      3160.215       2075.2336      3637.6726     -643.68039      2526.9764      955.9975     
  81472000   249.22748     -419.13042     -335.66089     -419.12504      0              2816.3234      31.138         21.471905      33.569239      22444.131      2548.2149      1976.7405      3924.0147     -1428.9435      497.27083     -749.27113    
  81474000   247.69552     -416.90813     -333.95167     -416.90956      0              2502.9814      31.138         21.471905      33.572071      22446.024      2695.8343      1171.1355      3641.9744     -977.3255       377.85369     -1462.2185    
  81476000   257.04102     -416.32807     -330.24168     -416.31217      0              4447.5659      31.138         21.471905      33.545893      22428.522      4768.6253      2963.0431      5611.0292     -478.02476     -415.88085     -258.25959    
  81478000   247.31577     -418.7624      -335.93312     -418.76289      0              2922.4774      31.138         21.471905      33.55963       22437.706      2812.7078      1636.8608      4317.8637     -402.76108      1953.0309     -858.14172    
  81480000   247.85587     -416.16738     -333.15722     -416.15675      0              943.94944      31.138         21.471905      33.651672      22499.245      2096.5115      1365.1468     -629.81002      1385.9154     -21.932906      109.27796    
  81482000   242.54536     -417.49218     -336.26058     -417.49314      0              1051.8821      31.138         21.471905      33.455114      22367.828      28.064589      1685.2678      1442.314       285.96795     -170.51393      750.16735    
  81484000   250.64975     -415.26407     -331.3182      -415.25724      0              2279.3657      31.138         21.471905      33.461953      22372.4        884.47821      4003.2998      1950.3189     -516.95198      854.36332      433.06125    
  81486000   254.30856     -414.4787      -329.30745     -414.48335      0              2755.793       31.138         21.471905      33.511351      22405.427      2987.15        3514.7193      1765.5096     -45.706065      1070.4236     -913.11643    
  81488000   246.36001     -415.78919     -333.28002     -415.7722       0              1418.7166      31.138         21.471905      33.472598      22379.517      913.8918       313.71452      3028.5434      41.024191      744.92862     -290.61768    
  81490000   249.28816     -416.00563     -332.51578     -415.99547      0              4232.2983      31.138         21.471905      33.298157      22262.887      5540.359       2226.855       4929.6809      948.29852     -231.12951      865.38642    
  81492000   246.78397     -417.47903     -334.82786     -417.47249      0              2927.8779      31.138         21.471905      33.326378      22281.755      5256.2643      1984.1884      1543.1809      215.34446      392.41456      706.01149    
  81494000   248.61464     -414.12091     -330.85662     -414.11423      0              4619.2304      31.138         21.471905      33.25777       22235.885      3840.0502      5276.6388      4741.0021     -215.14674      661.26505      331.59021    
  81496000   249.3279      -418.03594     -334.53278     -418.03558      0              3820.4365      31.138         21.471905      33.380317      22317.819      4121.6743      4310.7174      3028.9177     -715.26453     -126.02917     -804.26187    
  81498000   251.71754     -417.47351     -333.17003     -417.47441      0              1927.6039      31.138         21.471905      33.307071      22268.847      1711.4555      3058.0392      1013.317       1567.3625      234.21767     -292.87979    
  81500000   244.80443     -417.09999     -335.1118      -417.09422      0              2078.2112      31.138         21.471905      33.310674      22271.256      1113.1935      2518.5247      2602.9154      380.11859     -939.83206      126.74419    
  81502000   253.96648     -416.41534     -331.35865     -416.41413      0              2591.1913      31.138         21.471905      33.29304       22259.466      3433.8198      3404.1618      935.59213      1835.6626      870.45719     -597.70556    
  81504000   247.77074     -414.68802     -331.70636     -414.70803      0              4644.5754      31.138         21.471905      33.174827      22180.43       3222.4228      3653.6487      7057.6548      1376.3382      1632.634       1031.9527    
  81506000   249.61534     -414.8402      -331.24077     -414.84258      0              1314.479       31.138         21.471905      33.230259      22217.491      1141.465       1898.0622      903.9096       527.43438     -834.28068      78.886561    
  81508000   251.93279     -416.16911     -331.79353     -416.17257      0              2929.8473      31.138         21.471905      33.256561      22235.077      2203.6004      1562.3071      5023.6343      1459.1363      342.03801      714.9236     
  81510000   242.29992     -414.9783      -333.8289      -414.97269      0              3291.5415      31.138         21.471905      33.270976      22244.714      3034.0242      4259.7629      2580.8374     -605.36993      218.55822      473.86841    
  81512000   259.05219     -417.38662     -330.62667     -417.39114      0              3890.4689      31.138         21.471905      33.421025      22345.036      2573.2075      6412.9048      2685.2943      589.35262      370.69168     -519.40931    
  81514000   252.29746     -417.07826     -332.58055     -417.06351      0              1238.3845      31.138         21.471905      33.516595      22408.933      665.86949      168.7942       2880.4897     -549.92274     -920.86302     -1246.8369    
  81516000   254.21858     -416.79031     -331.64919     -416.79009      0              2967.9441      31.138         21.471905      33.558407      22436.889      1616.2873      3721.1993      3566.3455      1499.904       1409.8278     -281.11524    
  81518000   240.12913     -418.11076     -337.68838     -418.1071       0              1671.0943      31.138         21.471905      33.440806      22358.261      2375.4605      2394.3414      243.48093     -225.80231      342.61242      313.33441    
  81520000   248.42897     -417.25005     -334.04795     -417.23836      0              4897.2588      31.138         21.471905      33.429121      22350.449      6924.1869      2901.7025      4865.887      -856.99609     -1402.4277      1047.7567    
  81522000   249.53201     -413.50205     -329.93053     -413.49126      0              4998.701       31.138         21.471905      33.473304      22379.989      5401.289       3669.0135      5925.8005      1009.2139      215.0028       785.34005    
  81524000   253.54183     -414.91901     -330.00455     -414.91801      0              3493.6016      31.138         21.471905      33.267628      22242.476      3350.2998      2670.7109      4459.7941      336.80205     -337.77092     -487.45444    
  81526000   258.92831     -417.04362     -330.32516     -417.03868      0              2701.5756      31.138         21.471905      33.254392      22233.626      2776.8696      2796.9529      2530.9043     -809.82418      129.71066     -485.24795    
  81528000   248.83786     -417.68518     -334.34614     -417.69175      0              1861.905       31.138         21.471905      33.344995      22294.203      1180.7584      4372.9721      31.984649     -657.46794      407.28944     -19.703501    
  81530000   255.53274     -415.31491     -329.73366     -415.31416      0              3461.0826      31.138         21.471905      33.222923      22212.586      4079.9723      2894.0507      3409.2249      616.81578      384.61634      967.36692    
  81532000   254.51678     -416.56157     -331.32058     -416.54542      0              3093.9085      31.138         21.471905      33.209988      22203.938      2441.9014      4140.4029      2699.4211      1160.5688     -364.06307      809.29436    
  81534000   259.60239     -417.01902     -330.07479     -417.01765      0              3508.824       31.138         21.471905      33.224641      22213.735      3225.3565      3700.33        3600.7853     -233.19633      564.31469      821.40525    
  81536000   251.88206     -417.84821     -333.48963     -417.85171      0              2197.1884      31.138         21.471905      33.288547      22256.462      1210.4446      3486.522       1894.5985     -199.95743      1349.824       107.58213    
  81538000   249.84938     -417.33325     -333.65543     -417.32847      0              3908.3997      31.138         21.471905      33.401615      22332.058      3133.2088      5473.2413      3118.7491     -1047.0192      247.75587     -478.87933    
  81540000   254.35688     -417.93445     -332.74701     -417.91964      0              2853.1658      31.138         21.471905      33.344228      22293.69       4302.2678      2002.7099      2254.5197     -843.89647     -753.00975     -600.55934    
  81542000   255.6742      -417.11564     -331.48702     -417.10576      0              1403.0656      31.138         21.471905      33.359234      22303.723      1316.1668      2305.2605      587.76938      675.60519      931.66522      317.55047    
  81544000   251.17589     -419.86379     -335.74171     -419.86799      0              4290.2655      31.138         21.471905      33.363702      22306.71       5867.9643      3225.9941      3776.8382     -759.47299     -808.93331     -911.2791     
  81546000   251.60327     -416.1999      -331.93469     -416.1834       0              2476.9742      31.138         21.471905      33.443335      22359.952      1360.1118      3268.4136      2802.3973      638.91988      391.83738      871.90858    
  81548000   248.77436     -413.84302     -330.52525     -413.83474      0              3577.3029      31.138         21.471905      33.649058      22497.497      1677.8266      5344.9916      3709.0907     -601.74932     -377.33501     -632.79572    
  81550000   255.39867     -417.90718     -332.37084     -417.90317      0              2100.6926      31.138         21.471905      33.646971      22496.102      2617.4627      2431.8308      1252.7843      745.41469     -57.755957     -638.3699     
  81552000   245.7917      -416.11384     -333.795       -416.10514      0              3697.0102      31.138         21.471905      33.352545      22299.251      3874.0147      3783.6099      3433.4061      94.617123     -251.04178      83.398781    
[...]
  88470000   250.03964     -417.58696     -333.84543     -417.57514      0              4218.5635      31.138         21.471905      33.287967      22256.074      4319.0347      5111.1483      3225.5074      873.24226      66.325924     -772.71811    
  88472000   251.27217     -416.03768     -331.88336     -416.02419      0              2664.3838      31.138         21.471905      33.139406      22156.748      2130.6603      3205.7896      2656.7014      284.6935       222.52187     -658.96757    
  88474000   248.65568     -412.98061     -329.70258     -412.96654      0              3233.4195      31.138         21.471905      33.257988      22236.031      1976.4778      3866.5537      3857.2269     -1166.4955     -506.9221       237.23715    
  88476000   249.71478     -416.82546     -333.19272     -416.81949      0              3219.1031      31.138         21.471905      33.231943      22218.617      3569.3962      3413.1065      2674.8065      207.96045      715.19949     -14.082188    
  88478000   252.64172     -415.91655     -331.30355     -415.90749      0              2372.6232      31.138         21.471905      33.393176      22326.416      3645.5782      3051.3573      420.93404     -46.087742      51.683049     -600.72299    
  88480000   242.21207     -417.80947     -336.68949     -417.80147      0              4566.4471      31.138         21.471905      33.142263      22158.658      4023.0731      3248.5949      6427.6735      364.60645     -383.90841     -431.07608    
  88482000   251.47478     -415.14207     -330.91989     -415.12789      0              3625.6768      31.138         21.471905      33.257746      22235.869      4654.6742      4080.593       2141.7632      115.35308      900.46233      1347.7044    
  88484000   245.30056     -415.33468     -333.18032     -415.32249      0              1583.4041      31.138         21.471905      33.317414      22275.762      1959.5358      1592.069       1198.6074      478.48142     -111.82502     -31.628449    
  88486000   254.79695     -417.17441     -331.83959     -417.16129      0              2612.9329      31.138         21.471905      33.474963      22381.098      3643.992       2725.0121      1469.7946      126.62186     -251.37833      2047.4646    
  88488000   248.44802     -415.18        -331.97152     -415.16885      0              2072.9929      31.138         21.471905      33.415479      22341.328      1864.3289      3528.8403      825.8095      -622.96361      1755.6619     -612.56504    
  88490000   250.60618     -417.78408     -333.85281     -417.76987      0              3379.5577      31.138         21.471905      33.55054       22431.628      2987.6129      2686.1771      4464.8831      313.8733       1511.2733      31.07029     
  88492000   252.08452     -415.90658     -331.48019     -415.89241      0              1514.0041      31.138         21.471905      33.564823      22441.178      2739.0985      1009.7816      793.13226      323.83579      1734.2553      78.299762    
  88494000   250.70363     -413.80648     -329.84256     -413.79232      0              4912.4294      31.138         21.471905      33.315533      22274.505      6329.1023      3770.6494      4637.5364     -177.07288     -833.67721      1994.0534    
  88496000   247.31007     -413.59974     -330.77238     -413.58778      0              2480.7696      31.138         21.471905      33.650235      22498.284      2591.7571      3091.9559      1758.5957      622.25004     -252.09608      353.06812    
  88498000   258.32354     -414.24103     -327.72511     -414.22699      0              2935.5767      31.138         21.471905      33.535947      22421.872      3807.4101      2430.6169      2568.703       504.69096      2663.9318     -1162.3469    
  88500000   252.40142     -416.08455     -331.55203     -416.07066      0              1663.1638      31.138         21.471905      33.341661      22291.974      2083.5212      2564.5236      341.44668      1511.2567      453.79229     -285.53176    
  88502000   249.21423     -416.77042     -333.30533     -416.75625      0              2885.7604      31.138         21.471905      33.314515      22273.824      2176.7385      1148.3558      5332.1868     -333.57591      284.65679      1913.2692    
  88504000   251.33601     -415.62524     -331.44953     -415.6133       0              5031.4027      31.138         21.471905      33.269497      22243.726      5015.4495      3828.8402      6249.9183     -933.42689      1355.9754     -369.42274    
  88506000   249.33566     -414.98326     -331.47749     -414.96912      0              3191.1079      31.138         21.471905      33.426172      22348.477      3031.8943      3848.7231      2692.7064     -74.749442      959.52542     -1150.7888    
  88508000   252.3636      -414.38559     -329.86573     -414.37168      0              3469.9408      31.138         21.471905      33.342729      22292.688      3308.9953      2837.0463      4263.7807      1120.7631     -2078.5129      685.32855    
  88510000   254.20243     -416.47677     -331.34106     -416.46267      0              3766.0592      31.138         21.471905      33.238569      22223.047      4472.3183      3400.9787      3424.8806      213.02552      807.05445      722.08298    
  88512000   251.1377      -415.78545     -331.67616     -415.77133      0              4563.446       31.138         21.471905      33.269871      22243.976      4252.2073      4452.1548      4985.9757     -1480.8945     -1264.4934     -2149.6271    
  88514000   243.77459     -415.05497     -333.41169     -415.04096      0              3574.4109      31.138         21.471905      33.367788      22309.442      4037.5021      3332.5681      3353.1624     -82.809507     -901.62609     -457.83068    
  88516000   253.04144     -418.54081     -333.79393     -418.53289      0              1932.8397      31.138         21.471905      33.097371      22128.643      2855.6897      659.89701      2282.9323      410.47518     -580.81448      591.99121    
  88518000   244.25145     -418.19988     -336.39688     -418.18606      0              3962.7217      31.138         21.471905      33.145274      22160.671      4023.4209      3827.0711      4037.6732      1707.2194      185.70047      208.49369    
  88520000   250.76527     -419.16968     -335.18512     -419.15636      0              3428.0543      31.138         21.471905      33.187938      22189.196      4820.9886      2161.477       3301.6973      66.107428     -2189.528       1101.185     
  88522000   255.51427     -413.14038     -327.56532     -413.13028      0              3595.4802      31.138         21.471905      33.378712      22316.745      4231.7269      3682.2543      2872.4595      853.30849      232.34796     -104.15775    
  88524000   241.93284     -417.20979     -336.18333     -417.19628      0              2478.3286      31.138         21.471905      33.54798       22429.917      2446.8126      3374.0132      1614.16        1143.7051      976.62115      418.16347    
  88526000   251.37497     -413.10665     -328.91789     -413.09406      0              1470.6         31.138         21.471905      33.754821      22568.209      2003.3527      1196.8237      1211.6236     -319.40481     -1308.9613     -1624.7148    
  88528000   249.18405     -418.15703     -334.70205     -418.14295      0              2252.9798      31.138         21.471905      33.636556      22489.139      2246.7478      2696.8043      1815.3874      878.77645     -223.57138     -243.88985    
  88530000   249.08276     -418.6867      -335.26564     -418.67806      0              2565.3593      31.138         21.471905      33.428233      22349.855      2390.0579      2287.7447      3018.2752     -195.14913     -673.09258      808.42712    
  88532000   249.57044     -415.83449     -332.2501      -415.8246       0              3875.5276      31.138         21.471905      33.47372       22380.267      3621.4658      4432.1355      3572.9817     -211.66172     -1844.6275      1213.7327    
  88534000   250.52061     -415.40879     -331.50617     -415.39488      0              3094.846       31.138         21.471905      33.628898      22484.018      4502.2633      2937.166       1845.1088     -2471.5203     -346.31991     -854.87281    
  88536000   251.89442     -416.00048     -331.63775     -415.98649      0              2643.9202      31.138         21.471905      33.512114      22405.937      1179.8927      3335.9925      3415.8752     -700.30509      31.780065      484.99184    
  88538000   247.5164      -415.30044     -332.40397     -415.28868      0              3878.7082      31.138         21.471905      33.490361      22391.393      1478.999       5787.8946      4369.2311      354.14145     -80.65966       1602.5995    
  88540000   246.25597     -416.22782     -333.75348     -416.21377      0              1873.316       31.138         21.471905      33.416138      22341.768      1716.8951      2052.5661      1850.4869     -991.85971     -143.27341      38.885662    
  88542000   253.48705     -416.55546     -331.65934     -416.54434      0              2468.1553      31.138         21.471905      33.636237      22488.925      3120.1915      1733.4445      2550.83        490.05695      34.112404     -162.16294    
  88544000   251.45712     -417.23252     -333.01625     -417.21895      0              4796.838       31.138         21.471905      33.438155      22356.489      4175.0049      5256.1851      4959.3242      536.97018      1144.2507      249.32402    
  88546000   250.58159     -418.28303     -334.35998     -418.26922      0              2344.8685      31.138         21.471905      33.541762      22425.76       1056.6534      2383.1758      3594.7764     -273.87406      60.864712     -758.6539     
  88548000   251.6598      -417.32664     -333.0425      -417.31257      0              3577.3267      31.138         21.471905      33.468807      22376.983      2171.1148      5000.0519      3560.8135      2623.5175      513.56632     -44.351422    
  88550000   254.80621     -415.75507     -330.41715     -415.74127      0              4719.715       31.138         21.471905      33.537771      22423.092      3833.1172      4945.6373      5380.3904      462.06698      540.50867     -812.14747    
  88552000   249.73711     -418.07357     -334.43336     -418.05973      0              2992.3513      31.138         21.471905      33.649559      22497.832      2685.2458      4272.9172      2018.8909      626.01431     -514.18565      1262.6041    
  88554000   255.84381     -417.21054     -331.52511     -417.19887      0              3021.3014      31.138         21.471905      33.632435      22486.383      1389.9046      4268.877       3405.1227     -441.55004      63.958821      917.00334    
  88556000   254.72352     -417.80388     -332.49365     -417.78994      0              1250.6876      31.138         21.471905      33.531737      22419.057      264.46911      1721.6123      1765.9814     -104.55137     -1710.3529      1073.7341    
  88558000   246.0598      -417.48455     -335.07591     -417.47083      0              1447.0751      31.138         21.471905      33.648901      22497.392      1498.0495      971.3642       1871.8115      421.64479     -281.52919     -679.57884    
  88560000   253.71293     -416.41555     -331.44378     -416.40159      0              5344.8263      31.138         21.471905      33.575102      22448.051      4115.4426      4960.1511      6958.8853     -457.27661      20.627824      1405.3707    
  88562000   251.18652     -414.89688     -330.77124     -414.8828       0              2494.0332      31.138         21.471905      33.457769      22369.602      1905.5513      1801.1762      3775.3723      2521.7563      913.49832     -756.75557    
  88564000   254.81189     -417.07582     -331.736       -417.06673      0              698.49058      31.138         21.471905      33.540925      22425.2        823.11286     -292.56         1564.9189      41.513603     -157.09691     -1799.9816    
  88566000   248.01177     -418.77306     -335.71069     -418.76152      0              2985.0771      31.138         21.471905      33.597301      22462.892      3003.8592      3394.5297      2556.8424      705.46782     -728.5453      -208.69124    
  88568000   252.4676      -415.60427     -331.04958     -415.59152      0              4205.6926      31.138         21.471905      33.391494      22325.292      5795.5156      2666.2015      4155.3607     -689.56396      233.0567      -972.84149    
  88570000   252.89726     -417.69906     -333.00047     -417.69336      0              3720.3389      31.138         21.471905      33.459291      22370.62       3508.7716      3789.7514      3862.4936      1476.9819      159.94841     -597.38969    
  88572000   251.31415     -416.98307     -332.81469     -416.98054      0              3151.9384      31.138         21.471905      33.362288      22305.765      2327.1328      3519.5825      3609.0998     -135.66699     -121.45924     -1549.9592    
  88574000   257.80858     -413.56122     -327.21776     -413.5487       0              2331.7559      31.138         21.471905      33.570491      22444.967      1456.3252      1015.4351      4523.5075      357.87302      1218.1588      758.36149    
  88576000   251.37427     -417.02479     -332.83627     -417.01598      0              3860.39        31.138         21.471905      33.42131       22345.227      5206.981       2478.0628      3896.126       145.2966       941.19027     -1496.4005    
  88578000   254.40624     -417.67305     -332.46908     -417.65926      0              1747.7251      31.138         21.471905      33.506863      22402.427      1413.3433      2557.6293      1272.2029      104.18356     -552.60674     -1726.3858    
  88580000   245.59236     -413.33595     -331.08387     -413.33453      0              3211.3778      31.138         21.471905      33.561705      22439.093      4461.7875      2995.4053      2176.9406     -42.228197      1004.8113     -142.56924    
  88582000   244.6367      -418.31645     -336.38443     -418.30241      0              3957.4517      31.138         21.471905      33.574199      22447.447      4882.1506      3183.9175      3806.2869     -374.7165      -515.91956     -404.47889    
  88584000   257.26095     -414.78305     -328.623       -414.77538      0              1579.6298      31.138         21.471905      33.709844      22538.138      2284.9409      2104.1489      349.79945      169.61436     -393.77415     -860.77947    
  88586000   246.46922     -415.15615     -332.6104      -415.1443       0              3641.0137      31.138         21.471905      33.567687      22443.093      2536.3786      4909.8381      3476.8244      1916.4138      1062.3069     -1169.7812    
  88588000   244.61167     -416.04599     -334.12235     -416.03211      0              3235.8038      31.138         21.471905      33.637556      22489.807      3247.3436      4791.1791      1668.8887      387.72087      189.41951     -2580.65      
  88590000   247.20304     -413.70503     -330.91351     -413.69102      0              4618.9146      31.138         21.471905      33.707704      22536.707      5858.9315      3907.1959      4090.6163     -1555.5305      1144.5615     -953.31934    
  88592000   249.32549     -417.21498     -333.71263     -417.20233      0              1086.1725      31.138         21.471905      33.677945      22516.81       1860.5348      135.22452      1262.7581      402.84384      811.0188       200.88775    
  88594000   247.01772     -417.81474     -335.08528     -417.80694      0              1869.9466      31.138         21.471905      33.778458      22584.013      1238.3827      3046.9417      1324.5154     -1748.3007      2622.9845      769.71971    
  88596000   241.37032     -417.29853     -336.46046     -417.28916      0              1620.3294      31.138         21.471905      33.559099      22437.351      2732.3647      1944.8201      183.80346      257.26297      223.68058      908.54644    
  88598000   245.81178     -416.86697     -334.5414      -416.85654      0              3449.0632      31.138         21.471905      33.475819      22381.671      5501.5253      1459.0896      3386.5748     -1312.4914     -1228.3968      41.371374    
  88600000   248.03536     -416.22909     -333.15881     -416.21932      0              2489.0959      31.138         21.471905      33.600301      22464.898      2905.7915      2158.6367      2402.8594     -833.25572      1436.4658      1405.3253    
  88602000   247.4896      -415.76491     -332.87741     -415.751        0              3873.5397      31.138         21.471905      33.545089      22427.984      3600.6857      5564.3959      2455.5374      381.69973     -536.59734      793.37786    
  88604000   252.27037     -413.97678     -329.48814     -413.9629       0              1752.8246      31.138         21.471905      33.736384      22555.883      1031.6789      2832.4836      1394.3114      1097.8038     -813.18046     -782.34257    
  88606000   251.95604     -415.5739      -331.19053     -415.56025      0              2618.9985      31.138         21.471905      33.559875      22437.87       1852.855       3085.712       2918.4286      975.49613      1018.4794     -1994.4025    
  88608000   250.91528     -413.99901     -329.96421     -413.99035      0              2608.3704      31.138         21.471905      33.411929      22338.955      1784.9693      2959.8389      3080.303       327.07838      2409.3684     -1185.7711    
  88610000   254.97559     -415.19601     -329.80137     -415.18887      0              3920.1362      31.138         21.471905      33.246145      22228.113      3980.1079      2945.7676      4834.5332      818.89037     -2071.4152      1896.2532    
  88612000   252.13276     -415.59826     -331.15571     -415.5843       0              4599.8372      31.138         21.471905      33.252028      22232.046      4411.1859      5006.8717      4381.4541     -939.45103     -34.195027      51.599801    
WARNING: Wall time limit reached (../timer.cpp:193)
Loop time of 85798.8 on 4 procs for 7627000 steps with 2592 atoms

Performance: 3.840 ns/day, 6.250 hours/ns, 88.894 timesteps/s
1461.7% CPU use with 4 MPI tasks x no OpenMP threads

MPI task timing breakdown:
Section |  min time  |  avg time  |  max time  |%varavg| %total
---------------------------------------------------------------
Pair    | 21230      | 21426      | 21599      |  96.3 | 24.97
Bond    | 0.73809    | 0.78288    | 0.83275    |   3.9 |  0.00
Neigh   | 637.06     | 649.05     | 664.11     |  44.3 |  0.76
Comm    | 2455.2     | 2628.6     | 2832.8     | 286.0 |  3.06
Output  | 5084.2     | 5084.2     | 5084.4     |   0.1 |  5.93
Modify  | 55983      | 55989      | 55994      |   1.9 | 65.26
Other   |            | 21.01      |            |       |  0.02

Nlocal:            648 ave         660 max         634 min
Histogram: 1 0 1 0 0 0 0 0 0 2
Nghost:           4160 ave        4180 max        4145 min
Histogram: 1 0 0 2 0 0 0 0 0 1
Neighs:              0 ave           0 max           0 min
Histogram: 4 0 0 0 0 0 0 0 0 0
FullNghs:       161902 ave      167093 max      155464 min
Histogram: 1 0 1 0 0 0 0 0 0 2

Total # of neighbors = 647608
Ave neighs/atom = 249.84877
Ave special neighs/atom = 0
Neighbor list builds = 152540
Dangerous builds not checked
unfix 3
unfix 1
unfix 2


# Finalize simulation
write_restart	restart.lmp.${pid}
write_restart	restart.lmp.0
System init for write_restart ...
Generated 0 of 1 mixed pair_coeff terms from geometric mixing rule
write_data	data.final.${pid} nocoeff
write_data	data.final.0 nocoeff
System init for write_data ...
Generated 0 of 1 mixed pair_coeff terms from geometric mixing rule
Total wall time: 23:50:14
