LAMMPS (23 Jun 2022)
include procedure.lmp
echo both
include		in.partitions
variable        pid world 0
include		in.temp
variable	temperature equal 250
variable        tempDamp equal 0.100 # this is 0.1 ps
include		in.pressure
variable        pressure equal 3039.75
variable        pressureDamp equal 1.0 #this is 1ps

variable	barostat string	   tri
variable	direction string   z
variable	direction_x_bool equal 0
variable	direction_y_bool equal 0
variable	direction_z_bool equal 1

include		in.seed
variable        seed world 745823

units           metal
atom_style	full
box tilt large
read_restart 	restart.lmp.${pid}
read_restart 	restart.lmp.0
Reading restart file ...
  restart file = 23 Jun 2022, LAMMPS = 23 Jun 2022
  restoring atom style full from restart
  triclinic box = (0 0 -0.56465707) to (31.138 21.471905 32.760496) with tilt (-9.185133 -9.0118358 10.771236)
WARNING: Triclinic box skew is large (../domain.cpp:224)
  2 by 1 by 2 MPI processor grid
Summary of lammps deepmd module ...
  >>> Info of deepmd-kit:
  installed to:       /u/sigbjobo/software/DEEPMD_FROM_SOURCE/deepmd-kit/install
  source:             v2.1.3
  source branch:       master
  source commit:      5a32c49
  source commit at:   2022-07-01 09:52:58 +0800
  surpport model ver.:1.1 
  build float prec:   double
  build with tf inc:  /u/sigbjobo/software/DEEPMD_FROM_SOURCE/tensorflow/install/include;/u/sigbjobo/software/DEEPMD_FROM_SOURCE/tensorflow/install/include
  build with tf lib:  /u/sigbjobo/software/DEEPMD_FROM_SOURCE/tensorflow/install/lib/libtensorflow_cc.so;/u/sigbjobo/software/DEEPMD_FROM_SOURCE/tensorflow/install/lib/libtensorflow_framework.so
  set tf intra_op_parallelism_threads: 0
  set tf inter_op_parallelism_threads: 0
  >>> Info of lammps module:
  use deepmd-kit at:  /u/sigbjobo/software/DEEPMD_FROM_SOURCE/deepmd-kit/install
  source:             v2.1.3
  source branch:      master
  source commit:      5a32c49
  source commit at:   2022-07-01 09:52:58 +0800
  build float prec:   double
  build with tf inc:  /u/sigbjobo/software/DEEPMD_FROM_SOURCE/tensorflow/install/include;/u/sigbjobo/software/DEEPMD_FROM_SOURCE/tensorflow/install/include
  build with tf lib:  /u/sigbjobo/software/DEEPMD_FROM_SOURCE/tensorflow/install/lib/libtensorflow_cc.so;/u/sigbjobo/software/DEEPMD_FROM_SOURCE/tensorflow/install/lib/libtensorflow_framework.so
  restoring pair style deepmd from restart
  2592 atoms
Finding 1-2 1-3 1-4 neighbors ...
  special bond factors lj:    0        0        0       
  special bond factors coul:  0        0        0       
     0 = max # of 1-2 neighbors
     0 = max # of 1-3 neighbors
     0 = max # of 1-4 neighbors
     1 = max # of special neighbors
  special bonds CPU = 0.000 seconds
  read_restart CPU = 0.008 seconds
include 	in.setup
variable	out_freq equal 2000
variable	out_freq2 equal 2000

timestep        0.0005

neigh_modify    delay 7 every 1

include         in.deepmd
# This is deepMD model

# create groups ###
#group ox type 2
#group hy type 1

mass 2 15.999
mass 1 1.008

pair_style      deepmd ../graph.pb
pair_coeff      * *

bond_style      none
angle_style     none
dihedral_style  none
improper_style  none
neigh_modify exclude none


neighbor        2.0 bin
neigh_modify    every 50 delay 0 check no

thermo          ${out_freq}
thermo          2000
thermo_style 	custom step temp pe etotal epair emol press lx ly lz vol pxx pyy pzz pxy pxz pyz

restart 	${out_freq} restart.lmp.${pid} restart2.lmp.${pid}
restart 	2000 restart.lmp.${pid} restart2.lmp.${pid}
restart 	2000 restart.lmp.0 restart2.lmp.${pid}
restart 	2000 restart.lmp.0 restart2.lmp.0


timer           timeout 23:50:00 every 1000
New timer settings: style=normal  mode=nosync  timeout=23:50:00


# Set number of time steps
variable 	nsteps_wall		equal	 6000000
variable 	nsteps_enhanced_coex    equal	300000000

variable     nsteps_enhanced_coex_upto equal (${nsteps_wall}+${nsteps_enhanced_coex})
variable     nsteps_enhanced_coex_upto equal (6000000+${nsteps_enhanced_coex})
variable     nsteps_enhanced_coex_upto equal (6000000+300000000)


# Set temperature for first step
if "$(step) < 1  " then    "velocity 	all create ${temperature} ${seed} dist gaussian"


# Always run thermo and barostat


######################################
# Run simulation with wall potential #
######################################
if " $(step) < ${nsteps_wall} " then    "fix             3 all plumed plumedfile plumed.equil.dat outfile plumed.equil.out"   "fix             1 all nph ${direction} ${pressure} ${pressure} ${pressureDamp}"   "fix             2 all temp/csvr ${temperature} ${temperature} ${tempDamp} ${seed}"   "run             ${nsteps_wall} upto"
if " $(step) == ${nsteps_wall} " then    "unfix 3"   "unfix 1"   "unfix 2"


############################
# Run enhanced coesistence #
############################
if "$(step) == ${nsteps_wall}" then    "fix             3 all plumed plumedfile plumed.start.dat outfile plumed.out" else    "fix             3 all plumed plumedfile plumed.dat outfile plumed.out"
fix             3 all plumed plumedfile plumed.dat outfile plumed.out

if "$(step) < ${nsteps_enhanced_coex_upto} && $(step) >= ${nsteps_wall} " then    "include         in.dump"    "fix             1 all nph ${direction} ${pressure} ${pressure} ${pressureDamp}"   "fix             2 all temp/csvr ${temperature} ${temperature} ${tempDamp} ${seed}"   "run             ${nsteps_enhanced_coex_upto} upto"    "unfix 3"   "unfix 1"   "unfix 2"
include         in.dump
dump            myDump all atom ${out_freq2} dump.water.${pid}
dump            myDump all atom 2000 dump.water.${pid}
dump            myDump all atom 2000 dump.water.0
dump            myDump2 all dcd ${out_freq2} dump.${pid}.dcd
dump            myDump2 all dcd 2000 dump.${pid}.dcd
dump            myDump2 all dcd 2000 dump.0.dcd
dump_modify     myDump append yes
dump_modify     myDump2 append yes

fix             1 all nph ${direction} ${pressure} ${pressure} ${pressureDamp}
fix             1 all nph z ${pressure} ${pressure} ${pressureDamp}
fix             1 all nph z 3039.75 ${pressure} ${pressureDamp}
fix             1 all nph z 3039.75 3039.75 ${pressureDamp}
fix             1 all nph z 3039.75 3039.75 1
fix             2 all temp/csvr ${temperature} ${temperature} ${tempDamp} ${seed}
fix             2 all temp/csvr 250 ${temperature} ${tempDamp} ${seed}
fix             2 all temp/csvr 250 250 ${tempDamp} ${seed}
fix             2 all temp/csvr 250 250 0.1 ${seed}
fix             2 all temp/csvr 250 250 0.1 745823
run             ${nsteps_enhanced_coex_upto} upto
run             306000000 upto

CITE-CITE-CITE-CITE-CITE-CITE-CITE-CITE-CITE-CITE-CITE-CITE-CITE

Your simulation uses code contributions which should be cited:

- USER-DEEPMD package:

@article{Wang_ComputPhysCommun_2018_v228_p178,
  author = {Wang, Han and Zhang, Linfeng and Han, Jiequn and E, Weinan},
  doi = {10.1016/j.cpc.2018.03.016},
  url = {https://doi.org/10.1016/j.cpc.2018.03.016},
  year = 2018,
  month = {jul},
  publisher = {Elsevier {BV}},
  volume = 228,
  journal = {Comput. Phys. Commun.},
  title = {{DeePMD-kit: A deep learning package for many-body potential energy representation and molecular dynamics}},
  pages = {178--184}
}

CITE-CITE-CITE-CITE-CITE-CITE-CITE-CITE-CITE-CITE-CITE-CITE-CITE

Generated 0 of 1 mixed pair_coeff terms from geometric mixing rule
Neighbor list info ...
  update every 50 steps, delay 0 steps, check no
  max neighbors/atom: 2000, page size: 100000
  master list distance cutoff = 8
  ghost atom cutoff = 8
  binsize = 4, bins = 13 9 9
  1 neighbor lists, perpetual/occasional/extra = 1 0 0
  (1) pair deepmd, perpetual
      attributes: full, newton on
      pair build: full/bin
      stencil: full/bin/3d
      bin: standard
Per MPI rank memory allocation (min/avg/max) = 7.299 | 7.301 | 7.302 Mbytes
   Step          Temp          PotEng         TotEng         E_pair         E_mol          Press            Lx             Ly             Lz           Volume          Pxx            Pyy            Pzz            Pxy            Pxz            Pyz      
 147458000   249.83308     -417.57095     -333.8986      -417.57095      0              3052.7939      31.138         21.471905      33.325153      22280.937      2796.8676      3658.8512      2702.6629      1279.2261     -316.51137      992.38853    
 147460000   255.12827     -418.06857     -332.62279     -418.06331      0              5408.5897      31.138         21.471905      33.101229      22131.223      7473.9903      3633.0356      5118.7431     -367.01988     -938.94144     -62.907925    
 147462000   248.65652     -419.76667     -336.48836     -419.75138      0              3013.8168      31.138         21.471905      33.389417      22323.903      960.51351      4944.6426      3136.2943     -414.41466     -792.8563      -1802.3498    
 147464000   255.48459     -421.07573     -335.51061     -421.07362      0              2962.0848      31.138         21.471905      33.372675      22312.709      4308.5072      3286.2263      1291.5209     -837.14041     -558.89551     -788.77632    
 147466000   244.7734      -417.6633      -335.6855      -417.65264      0              3640.7139      31.138         21.471905      33.196011      22194.593      2201.4499      3377.3273      5343.3646     -406.76597     -1041.7801      973.6685     
 147468000   253.08648     -416.52033     -331.75836     -416.51473      0              4457.3496      31.138         21.471905      33.24288       22225.929      5556.2361      2951.4637      4864.349       114.62257     -622.06156     -186.10304    
 147470000   252.71963     -417.93859     -333.29949     -417.93269      0              2098.5394      31.138         21.471905      33.298202      22262.917      405.04442      3912.0475      1978.5264      467.51703     -378.48601     -881.80574    
 147472000   247.31141     -419.67835     -336.85053     -419.67203      0              3273.042       31.138         21.471905      33.346572      22295.257      2630.8408      3761.4517      3426.8336      243.58918     -584.63899     -1789.8041    
 147474000   252.10008     -419.6549      -335.2233      -419.65949      0              109.06795      31.138         21.471905      33.509588      22404.248      284.76855      249.70927     -207.27398      273.81583     -1286.6969      5.5375986    
 147476000   249.34512     -419.92561     -336.41668     -419.93006      0              3216.7924      31.138         21.471905      33.426827      22348.915      3346.5005      1382.4811      4921.3955     -484.5431       178.00237     -299.02354    
 147478000   244.83158     -419.11637     -337.11908     -419.11602      0              2347.8036      31.138         21.471905      33.501287      22398.699      1814.8582      2973.563       2254.9896     -1000.0355      1108.2612     -601.23953    
 147480000   247.3529      -418.84964     -336.00793     -418.85236      0              2876.3812      31.138         21.471905      33.31483       22274.035      3706.3943      3474.182       1448.5674      79.693647     -1301.4218      90.877496    
 147482000   253.39501     -417.5001      -332.63481     -417.50361      0              3844.5732      31.138         21.471905      33.376444      22315.229      3019.9273      3912.4996      4601.2927      1079.9684     -591.9114       17.477964    
 147484000   260.20533     -418.04448     -330.89832     -418.04876      0              3834.3665      31.138         21.471905      33.360878      22304.822      2614.6003      4237.9388      4650.5604     -1036.5142     -1007.936       246.61776    
 147486000   246.56825     -417.81901     -335.24009     -417.8152       0              2501.7432      31.138         21.471905      33.15915       22169.948      3392.6363      937.97023      3174.623      -1809.7667     -968.03863      745.63593    
 147488000   259.46728     -414.59733     -327.69836     -414.58142      0              3345.4287      31.138         21.471905      33.213267      22206.131      2953.6156      2940.6983      4141.9723     -651.38066      370.01982      471.42702    
 147490000   251.43775     -418.58924     -334.37946     -418.58456      0              4849.8016      31.138         21.471905      33.197138      22195.347      2488.4465      4319.113       7741.8452      1276.2156      404.68474      882.9922     
 147492000   249.90925     -420.19222     -336.49436     -420.19426      0              4053.6069      31.138         21.471905      33.143625      22159.568      4115.5511      3401.2185      4644.051       472.89329      1495.4446     -1059.3967    
 147494000   248.80797     -417.39659     -334.06756     -417.38499      0              3460.2704      31.138         21.471905      33.134418      22153.413      3831.1932      849.17958      5700.4386     -1297.0035     -1585.4125      79.587989    
 147496000   253.65085     -416.04186     -331.09088     -416.03803      0              1410.7583      31.138         21.471905      33.356763      22302.071      1212.1785      678.63989      2341.4565     -525.58326      372.7069      -770.84763    
 147498000   251.50004     -418.78514     -334.5545      -418.78715      0              2248.5829      31.138         21.471905      33.386309      22321.825      3385.1076      2499.943       860.6982       7.4281321      634.26605     -922.59508    
 147500000   248.31362     -415.30385     -332.14038     -415.30046      0              3388.5194      31.138         21.471905      33.309897      22270.737      4342.4171      2471.5875      3351.5537      1474.3651     -185.75257     -7.0189649    
 147502000   246.14596     -418.84771     -336.41022     -418.84198      0              2515.0802      31.138         21.471905      33.333338      22286.409      2776.3673      2324.0695      2444.8038      723.91464     -117.97834      1047.5453    
 147504000   251.55372     -418.1348      -333.88618     -418.13167      0              995.74848      31.138         21.471905      33.399561      22330.685     -451.82299      1406.1547      2032.9137      928.00788      101.77169     -263.79867    
 147506000   253.3878      -419.10107     -334.23819     -419.09732      0              2465.2293      31.138         21.471905      33.206077      22201.323      1622.7829      3321.9941      2450.9111     -386.1624       1842.713      -1821.3911    
 147508000   254.33003     -416.6185      -331.44006     -416.62247      0              2714.0326      31.138         21.471905      33.28565       22254.525      2548.6845      1964.0352      3629.3781      1407.379      -121.88397      1080.943     
 147510000   249.96125     -418.73587     -335.02059     -418.73538      0              2246.8799      31.138         21.471905      33.200996      22197.926      3068.0766      232.40277      3440.1603     -786.69167     -1065.1793      952.21063    
 147512000   254.43457     -416.36372     -331.15026     -416.36124      0              5144.1915      31.138         21.471905      33.124742      22146.943      5306.793       4565.0433      5560.7383      1164.4783     -490.24666      621.62926    
 147514000   249.9263      -415.59332     -331.88974     -415.587        0              4313.1248      31.138         21.471905      33.402603      22332.719      4063.8675      5915.8133      2959.6936     -1814.3965     -692.84889     -37.955342    
 147516000   243.95967     -417.78896     -336.08369     -417.78313      0              3992.3283      31.138         21.471905      33.30187       22265.37       2171.8642      4672.5194      5132.6015     -810.83283      1342.8059      472.09844    
 147518000   250.22206     -418.95507     -335.15244     -418.97892      0              5165.668       31.138         21.471905      33.236243      22221.492      5602.0532      6268.0492      3626.9015      1379.3561     -926.28107      386.15409    
 147520000   250.84866     -417.86549     -333.85301     -417.86663      0              3729.7647      31.138         21.471905      33.171938      22178.498      2739.5217      3594.2656      4855.5068      424.89887      641.36249      171.76045    
 147522000   248.21495     -414.8476      -331.71717     -414.82973      0              2635.4428      31.138         21.471905      33.461488      22372.089      2117.6119      2877.0043      2911.712       1100.8385      528.32455     -1065.0864    
 147524000   253.35792     -415.97814     -331.12527     -415.97479      0              3802.1863      31.138         21.471905      33.255747      22234.532      3760.3863      3639.1642      4007.0086     -76.305592      2498.6052      2042.8063    
 147526000   245.4372      -419.31413     -337.11401     -419.3144       0              2291.5685      31.138         21.471905      33.225137      22214.067      1877.6085      3691.5018      1305.5952     -136.732       -195.99683     -175.90463    
 147528000   249.91855     -418.87826     -335.17728     -418.87774      0              2693.0385      31.138         21.471905      33.21441       22206.895      3466.3935      3287.893       1324.8289      196.64574      1199.1673      1733.4406    
 147530000   256.44236     -416.2402      -330.35431     -416.2379       0              1506.5202      31.138         21.471905      33.233922      22219.94       2167.7332      955.56949      1396.2577      1014.3239      1454.8004      898.21482    
 147532000   250.48332     -417.44012     -333.54999     -417.44432      0              2178.1378      31.138         21.471905      33.302738      22265.95       3580.3677      2353.3904      600.65533      65.330319     -616.73013     -291.1242     
 147534000   248.97382     -418.88716     -335.50258     -418.89049      0              1879.4093      31.138         21.471905      33.228327      22216.2        2793.2815      1015.6525      1829.2939      511.11644     -119.10339      1444.1042    
 147536000   257.39506     -418.26671     -332.06175     -418.27137      0              3771.4294      31.138         21.471905      33.276865      22248.652      4918.3008      3681.8915      2714.0959      2068.5898     -204.3063       1163.299     
 147538000   256.34747     -420.19417     -334.34006     -420.21257      0              1673.7096      31.138         21.471905      33.308127      22269.553      2457.3187      2790.0069     -226.19675      751.85723      762.71297      1040.7518    
 147540000   245.70089     -418.45861     -336.17018     -418.45456      0              5234.8624      31.138         21.471905      33.253327      22232.914      7079.4349      3118.4607      5506.6916      1261.8762      133.07788     -380.64444    
 147542000   255.06304     -418.31684     -332.89291     -418.30631      0              2300.2921      31.138         21.471905      33.356723      22302.044      2806.6333      4174.4563     -80.213274     -1535.2384      636.17305     -1732.2463    
 147544000   248.96549     -418.55217     -335.17038     -418.54918      0              2912.486       31.138         21.471905      33.371973      22312.24       5431.1698      966.29414      2339.9942      483.28881      157.54903      342.18318    
 147546000   245.53924     -416.31028     -334.07599     -416.31116      0              2250.1879      31.138         21.471905      33.362972      22306.222      1461.9182      3498.3114      1790.3342     -890.80952      906.60341     -504.34457    
 147548000   241.4268      -419.02078     -338.1638      -419.0136       0              1703.346       31.138         21.471905      33.338842      22290.089      138.62672      2845.508       2125.9032     -961.58039      2180.8233     -378.96416    
 147550000   253.33173     -418.68321     -333.83911     -418.6762       0              3561.1778      31.138         21.471905      33.434434      22354.001      4666.1846      3952.2516      2065.097      -194.33961      431.13972      145.03782    
 147552000   249.18881     -419.18445     -335.72787     -419.18756      0              3622.0133      31.138         21.471905      33.185521      22187.58       4663.7928      2736.4632      3465.7839      1455.1918      1009.7983     -1205.0095    
 147554000   249.13439     -419.65859     -336.22023     -419.71046      0              5603.4412      31.138         21.471905      33.231421      22218.268      5871.966       6769.0215      4169.3363      2867.1736      20.536595      320.20851    
 147556000   248.45471     -419.71172     -336.501       -419.72325      0              2542.3889      31.138         21.471905      33.407724      22336.143      2935.5134      2350.0156      2341.6377      233.9692      -1578.8999     -1510.4818    
 147558000   249.27453     -417.13942     -333.65413     -417.14581      0              3025.4022      31.138         21.471905      33.22077       22211.147      3946.0182      2873.0504      2257.138       990.36608     -1171.7182      1453.0457    
 147560000   250.40748     -419.51441     -335.64968     -419.5128       0              2746.5645      31.138         21.471905      33.179325      22183.437      3210.0503      4262.0407      767.60256     -688.68633     -1174.5767     -113.94348    
 147562000   251.74277     -420.00857     -335.69663     -420.00608      0              2745.6783      31.138         21.471905      33.262437      22239.005      1980.3612      3481.433       2775.2406      65.312423      1686.4045     -1354.6842    
 147564000   253.11277     -419.06152     -334.29075     -419.05829      0              3715.8167      31.138         21.471905      33.302605      22265.861      5710.9386      3500.6264      1935.8852     -1092.5538     -294.583       -1237.3266    
 147566000   252.40344     -418.3859      -333.8527      -418.38126      0              3770.0273      31.138         21.471905      33.380707      22318.079      2088.6502      4718.6827      4502.749       1781.4424     -1674.2771     -1145.5031    
 147568000   251.19111     -417.95461     -333.82743     -417.94187      0              1887.6023      31.138         21.471905      33.367154      22309.018      2169.1035      2827.2105      666.49301      355.28899      452.90272     -1136.5039    
 147570000   244.93271     -418.79648     -336.76532     -418.79666      0              5900.4418      31.138         21.471905      33.376707      22315.405      7615.874       5257.1695      4828.282       279.78091      439.40859     -474.50803    
 147572000   251.779       -417.86513     -333.54106     -417.86561      0              2810.7375      31.138         21.471905      33.262133      22238.802      3082.6032      2570.9321      2778.6773     -1367.6582      1256.0348      1172.337     
 147574000   248.36107     -420.32051     -337.14115     -420.31845      0              3349.287       31.138         21.471905      33.298566      22263.161      2315.564       4353.2735      3379.0236      1054.8245      87.247043     -734.91614    
 147576000   248.4478      -419.18461     -335.9762      -419.18137      0              3309.5727      31.138         21.471905      33.191296      22191.441      1432.5717      4793.282       3702.8645      106.95818      884.25215     -161.4028     
 147578000   249.55405     -417.82554     -334.24663     -417.82511      0              3683.9919      31.138         21.471905      33.207504      22202.277      3126.5271      3799.9932      4125.4555      1231.843       1608.3397     -511.61626    
 147580000   248.40597     -416.01991     -332.82551     -416.02008      0              4372.002       31.138         21.471905      33.245688      22227.807      4361.7108      5549.2948      3205.0005      537.87961      693.2177      -876.84635    
 147582000   253.77491     -417.49619     -332.50367     -417.4981       0              3703.2976      31.138         21.471905      33.180456      22184.193      2317.1759      4200.8896      4591.8274     -978.60489      1496.9789      242.19169    
 147584000   250.73523     -416.34798     -332.37348     -416.36375      0              4366.3137      31.138         21.471905      33.241749      22225.174      4132.8611      4815.4908      4150.589       170.89773      750.71858      487.79327    
 147586000   246.13132     -416.4502      -334.01762     -416.44962      0              4004.4113      31.138         21.471905      33.387002      22322.288      4418.7544      4138.2239      3456.2557     -1045.3627     -526.17681     -773.88084    
 147588000   254.14263     -420.10667     -334.99099     -420.11442      0              3741.2403      31.138         21.471905      33.443956      22360.367      3463.991       4446.015       3313.7149     -602.95882      752.83046     -1297.1668    
 147590000   247.62422     -417.13862     -334.20604     -417.14206      0              3063.0281      31.138         21.471905      33.397075      22329.023      1855.0748      3714.8904      3619.1192      469.2402       1558.2682      1498.4222    
 147592000   248.53815     -416.33444     -333.09577     -416.33316      0              3885.3957      31.138         21.471905      33.339196      22290.326      3323.0367      4943.7973      3389.3531     -578.04026      220.94584      585.64158    
 147594000   244.27732     -416.13454     -334.32288     -416.12737      0              3601.3832      31.138         21.471905      33.551426      22432.221      3933.9499      3966.1234      2904.0763     -534.2035       489.70821      579.07871    
 147596000   252.18311     -416.91104     -332.45163     -416.90909      0              1771.2631      31.138         21.471905      33.393677      22326.751      533.95292      3805.9756      973.86091     -244.56598      1442.2774     -357.9924     
 147598000   252.75924     -415.27112     -330.61876     -415.26125      0              3463.1886      31.138         21.471905      33.232942      22219.285      2737.0575      3692.3235      3960.1847      236.36611      553.70305     -1289.2362    
 147600000   255.43841     -418.67166     -333.12201     -418.67471      0              3554.3667      31.138         21.471905      33.272385      22245.656      4731.5962      2899.3802      3032.1238     -20.297385     -953.52908     -108.90131    
 147602000   252.33439     -416.91038     -332.4003      -416.9166       0              3368.7656      31.138         21.471905      33.155119      22167.253      2238.7849      3455.6684      4411.8435      623.44506      928.05734     -430.17672    
 147604000   247.3284      -416.97306     -334.13956     -416.97706      0              2947.1488      31.138         21.471905      33.21562       22207.704      1006.7556      3620.1121      4214.5788      450.42845     -263.0546       530.35032    
 147606000   246.55856     -416.79747     -334.2218      -416.81281      0              3796.29        31.138         21.471905      33.133107      22152.536      2936.4653      4007.2719      4445.1326     -314.23093     -177.08222     -1632.5048    
 147608000   248.18306     -418.85483     -335.73509     -418.91206      0              3544.1792      31.138         21.471905      33.177581      22182.271      2820.717       6146.5449      1665.2757      187.86172      425.5523      -83.321706    
 147610000   247.25278     -417.79955     -334.99137     -417.79909      0              3737.2266      31.138         21.471905      33.300379      22264.373      4055.3417      2788.0783      4368.2598      2217.5657     -2459.1046      1327.7757    
 147612000   251.67765     -418.12185     -333.83173     -418.12307      0              2928.6326      31.138         21.471905      33.270227      22244.213      2456.0964      3573.9625      2755.839      -1067.7718     -1963.2007     -393.03251    
 147614000   244.38847     -420.33667     -338.48779     -420.39403      0              4456.5684      31.138         21.471905      33.250955      22231.328      4047.4144      4476.7885      4845.5023      1027.1097      62.028498      883.3222     
 147616000   241.75778     -418.24437     -337.27654     -418.24515      0              1445.3136      31.138         21.471905      33.414744      22340.836      245.22276      2367.0162      1723.7018      1077.4226      95.617329      582.14037    
 147618000   248.87209     -416.79198     -333.44148     -416.79313      0              3375.5149      31.138         21.471905      33.446798      22362.268      4208.6113      829.01314      5088.9203      451.56151      1216.7655      1211.5721    
 147620000   251.38263     -419.23647     -335.04515     -419.24034      0              2728.4059      31.138         21.471905      33.289086      22256.822      1613.5727      4002.8764      2568.7685     -428.731       -1055.4547      1203.4903    
 147622000   251.46962     -416.87832     -332.65786     -416.87503      0              2908.0809      31.138         21.471905      33.395849      22328.204      2627.5179      3605.097       2491.6278     -313.30617     -877.85866     -609.46926    
 147624000   252.37904     -416.22168     -331.69664     -416.21284      0              4985.336       31.138         21.471905      33.219286      22210.155      5575.9449      3503.1079      5876.9552      30.336063     -518.48472      1633.1357    
 147626000   252.51403     -419.20343     -334.63319     -419.20219      0              3550.5612      31.138         21.471905      33.143978      22159.804      3452.8219      4426.53        2772.3318      1404.0264      9.4276489     -457.84243    
 147628000   250.21369     -418.34959     -334.54977     -418.35079      0              3495.3949      31.138         21.471905      33.402514      22332.66       3567.3506      2895.5077      4023.3264     -681.89793      856.00828     -2222.4123    
 147630000   247.38202     -418.4884      -335.63694     -418.48817      0              3241.634       31.138         21.471905      33.270048      22244.094      4437.1319      3156.8953      2130.8747      685.52929      360.77995     -91.366652    
 147632000   244.54339     -419.75204     -337.85127     -419.74989      0              3265.549       31.138         21.471905      33.230332      22217.54       3945.8407      2249.3125      3601.4939      1241.9159      403.90756      544.44312    
 147634000   245.56496     -420.70273     -338.45982     -420.71622      0              1805.6686      31.138         21.471905      33.216214      22208.101      1732.1839      1678.9196      2005.9025      242.13173     -197.80565      1128.9259    
 147636000   253.81395     -417.51388     -332.50828     -417.51329      0              3101.7854      31.138         21.471905      33.177163      22181.992      2369.7953      4313.2538      2622.3071     -460.06672      138.23214      1304.3165    
 147638000   247.87255     -418.00915     -334.99341     -418.00668      0              3409.2742      31.138         21.471905      33.246401      22228.284      3169.842       5031.9195      2026.0611     -1609.4292     -545.53055      213.47378    
 147640000   250.49528     -418.59434     -334.70021     -418.59215      0              2422.9099      31.138         21.471905      33.175258      22180.718      1901.9838      2278.5953      3088.1505     -639.15855      764.88522      1832.0105    
 147642000   252.83784     -417.31214     -332.63345     -417.31587      0              2570.7204      31.138         21.471905      33.186519      22188.247      3647.0197      2026.6988      2038.4428     -1563.7131      1599.6677      966.48348    
 147644000   255.64383     -417.4126      -331.79415     -417.42992      0              2781.3956      31.138         21.471905      33.267025      22242.073      781.34303      4350.4287      3212.415       682.73444      477.92103     -503.17512    
 147646000   251.80669     -418.86748     -334.53414     -418.86823      0              2421.281       31.138         21.471905      33.297067      22262.158      2915.7117      1042.7874      3305.3439     -1215.4147     -306.58349      1322.8105    
 147648000   253.03218     -416.78765     -332.04387     -416.78922      0              2232.2263      31.138         21.471905      33.256426      22234.986      1206.5184      2377.45        3112.7106      578.87042      48.565802      1270.1591    
 147650000   247.5317      -417.30612     -334.40452     -417.30712      0              1593.7043      31.138         21.471905      33.164049      22173.224      2070.8965      1041.5783      1668.6382      1314.9537     -549.4758       251.19808    
 147652000   248.61832     -419.12161     -335.85609     -419.11843      0              4313.6823      31.138         21.471905      33.250002      22230.691      4815.4799      5177.1469      2948.4202      482.46947      499.08796      647.8175     
 147654000   252.47604     -416.08423     -331.52672     -416.08338      0              989.27117      31.138         21.471905      33.35815       22302.998     -919.0586       3156.5062      730.36589      1806.1901      907.80803     -493.06165    
 147656000   249.73471     -417.19491     -333.5555      -417.18982      0              1778.2953      31.138         21.471905      33.345524      22294.557      859.40949      2847.1757      1628.3007      1477.1116      237.36367     -113.83799    
 147658000   248.18296     -417.10846     -333.98876     -417.11159      0              2729.6974      31.138         21.471905      33.363301      22306.442      2800.9341      3015.4818      2372.6763      1164.5713     -141.32636      370.44102    
 147660000   249.91351     -417.756       -334.0567      -417.75237      0              3992.3233      31.138         21.471905      33.194837      22193.809      3244.6138      3381.0526      5351.3036     -566.70897      212.92703      753.61733    
 147662000   244.47423     -417.82425     -335.94664     -417.82534      0              3117.3259      31.138         21.471905      33.080412      22117.305      2935.5601      3205.4394      3210.9782     -93.710861      1084.8336     -316.54037    
 147664000   241.64193     -418.59334     -337.6643      -418.58973      0              2862.66        31.138         21.471905      33.20163       22198.35       2714.7233      2559.0739      3314.1829     -472.09884      485.16311      776.17431    
 147666000   250.77062     -419.32177     -335.33543     -419.3245       0              3321.3627      31.138         21.471905      33.339093      22290.257      2831.7224      3593.1861      3539.1797      972.94557     -534.66537     -1094.0167    
 147668000   245.69861     -417.24462     -334.95695     -417.25878      0              3127.8931      31.138         21.471905      33.182204      22185.362      2077.4099      3630.9045      3675.3648      996.86668      531.31826      802.24438    
 147670000   243.54991     -419.7592      -338.19117     -419.76141      0              1417.7792      31.138         21.471905      33.053437      22099.269      1463.8904      40.942214      2748.5051      330.23082     -618.98223      1577.4583    
 147672000   249.5532      -416.20822     -332.6296      -416.2162       0              3921.8408      31.138         21.471905      33.214375      22206.871      1460.335       5675.651       4629.5363     -166.77724      2386.3918     -61.703708    
 147674000   250.61029     -421.3766      -337.44395     -421.37849      0              2629.0508      31.138         21.471905      33.341907      22292.138      3127.4538      4154.5922      605.10636      1047.6126      312.94067     -74.10253     
 147676000   253.67733     -419.60937     -334.64952     -419.60585      0              2104.5035      31.138         21.471905      33.315922      22274.765      132.24284      4687.1823      1494.0853     -994.31766     -263.42816     -1784.7872    
 147678000   250.0801      -420.9649      -337.20981     -420.97841      0              3251.2084      31.138         21.471905      33.344505      22293.875      1470.5009      4985.1675      3297.9569      1700.3191      1244.0888     -293.82563    
 147680000   244.0928      -421.81877     -340.06891     -421.82259      0              2547.132       31.138         21.471905      33.425591      22348.089      1189.6573      3636.6631      2815.0755     -189.3846      -51.992987     -362.02554    
 147682000   246.58729     -416.30465     -333.71935     -416.31453      0              3536.7637      31.138         21.471905      33.279172      22250.194      2859.9528      3008.009       4742.3292      1367.63       -1895.4547      1231.5053    
 147684000   244.28382     -419.15124     -337.33741     -419.15489      0              2639.5566      31.138         21.471905      33.204796      22200.467      1707.5394      2325.6837      3885.4466     -1395.4774     -701.27709      436.39723    
 147686000   254.95349     -417.955       -332.56776     -417.95942      0              5326.5562      31.138         21.471905      33.193707      22193.053      5259.2006      5897.2211      4823.2469     -985.39762      171.31363      1156.6148    
 147688000   247.50931     -418.91502     -336.02092     -418.91389      0              2510.6617      31.138         21.471905      33.261098      22238.11       812.01922      3434.5412      3285.4246     -253.48366      393.21002      1533.7536    
 147690000   247.33772     -418.29792     -335.46129     -418.29613      0              2608.195       31.138         21.471905      33.191092      22191.304      1247.8798      1523.6494      5053.0559      311.21959      1179.2957      1411.7634    
 147692000   247.73716     -417.33725     -334.36684     -417.34505      0              4473.667       31.138         21.471905      33.136232      22154.626      4851.5008      2208.5026      6360.9978      1497.8255     -81.355344     -1041.0939    
 147694000   249.35638     -421.05948     -337.54677     -421.07129      0              3717.3657      31.138         21.471905      33.222389      22212.23       4585.2275      3107.7963      3459.0735      1293.7525     -1423.9087     -726.03504    
 147696000   253.20502     -419.85417     -335.0525      -419.85432      0              2744.989       31.138         21.471905      33.25953       22237.062      2999.3719      2252.0943      2983.5009     -664.39171     -162.04158     -1080.0878    
 147698000   247.46016     -419.51076     -336.63312     -419.51056      0              1452.685       31.138         21.471905      33.305787      22267.989      3445.1444      474.52421      438.38639      529.83678      2497.6024      473.08888    
 147700000   251.59717     -417.69311     -333.42994     -417.68417      0              2249.9638      31.138         21.471905      33.451831      22365.633      1603.0239      3391.54        1755.3275     -1672.9649      879.21606     -101.63989    
 147702000   252.57707     -421.43757     -336.84622     -421.43479      0              3179.2635      31.138         21.471905      33.278702      22249.88       3370.2616      4322.2167      1845.3123      166.17042      620.81683     -49.296132    
 147704000   251.35703     -419.19315     -335.01041     -419.1963       0              2807.2947      31.138         21.471905      33.251442      22231.654      2248.5327      3181.9208      2991.4306      879.82813      605.55614      1138.3864    
 147706000   246.78582     -419.77443     -337.12264     -419.766        0              3073.6941      31.138         21.471905      33.374882      22314.185      4446.7866      2718.2331      2056.0626      1530.827      -1694.7636      957.68617    
 147708000   249.92339     -415.89285     -332.19025     -415.87651      0              1900.5232      31.138         21.471905      33.480118      22384.545      3165.6592      1103.0399      1432.8705     -879.35084      126.41782      2278.8012    
 147710000   248.51841     -421.81334     -338.58128     -421.81347      0              3178.0986      31.138         21.471905      33.350156      22297.653      4251.7281      2836.2809      2446.2867      326.55599     -778.46317      516.93408    
 147712000   249.23892     -418.25059     -334.77723     -418.25673      0              2788.7567      31.138         21.471905      33.372536      22312.617      1923.0189      2332.3892      4110.8619     -636.24012      1393.8841      633.08288    
 147714000   250.32771     -416.94395     -333.10593     -416.94508      0              2243.4661      31.138         21.471905      33.323282      22279.685      3001.8558      1634.8904      2093.6522      2060.193      -164.00067      962.24689    
 147716000   248.54005     -421.05756     -337.81825     -421.05949      0              2998.1914      31.138         21.471905      33.027857      22082.167      3131.2455      1927.7622      3935.5664     -2053.0185      679.74401      721.66298    
 147718000   245.38244     -421.57148     -339.3897      -421.56777      0              2197.3615      31.138         21.471905      33.228302      22216.183      2040.804       3134.9802      1416.3004      671.41797      571.31572      2189.7336    
 147720000   250.26342     -419.78909     -335.97261     -419.78891      0              3009.4908      31.138         21.471905      33.459599      22370.826      3533.7908      2036.8724      3457.8093      281.70394      928.05104     -804.72674    
 147722000   250.24452     -419.84272     -336.03257     -419.83799      0              2410.8706      31.138         21.471905      33.271228      22244.883      2522.7646      3028.5207      1681.3263      1390.7258      47.862212      473.85346    
 147724000   242.82616     -419.6694      -338.34375     -419.66822      0              2105.4998      31.138         21.471905      33.252231      22232.181      1846.4976      1967.331       2502.6707     -233.32577      1879.5493      107.51575    
 147726000   243.69757     -417.61418     -335.99669     -417.61923      0              4684.0707      31.138         21.471905      33.159058      22169.887      4933.395       3941.1433      5177.6737     -618.43365     -1350.9096      2188.8986    
 147728000   245.50996     -417.46459     -335.2401      -417.46008      0              3510.2532      31.138         21.471905      33.311195      22271.604      5420.9595      2176.4589      2933.3413      546.43552     -1850.4498      527.81822    
 147730000   252.46507     -416.36601     -331.81217     -416.36316      0              3327.1754      31.138         21.471905      33.373448      22313.226      1885.0547      2670.8296      5425.6419     -1940.0132      989.07452     -835.29688    
 147732000   252.77048     -415.88066     -331.22453     -415.88015      0              1894.5379      31.138         21.471905      33.237543      22222.362      959.99541      3953.4902      770.12809     -548.18877      149.78716     -865.74724    
 147734000   249.81661     -418.09702     -334.43018     -418.10035      0              3404.6539      31.138         21.471905      33.220565      22211.01       1795.5344      3420.5507      4997.8764      533.88516     -1067.1235      513.53434    
 147736000   244.8215      -417.14568     -335.15177     -417.13969      0              2881.3801      31.138         21.471905      33.316928      22275.438      2981.6346      3899.5079      1762.9977      201.91052     -671.97899      644.91389    
 147738000   259.07503     -418.74191     -331.97431     -418.73131      0              2035.5589      31.138         21.471905      33.402824      22332.867      2758.7598      885.74589      2462.1711     -806.75132     -226.59275      1585.0363    
 147740000   253.09063     -418.55091     -333.78755     -418.53497      0              113.57009      31.138         21.471905      33.401586      22332.039      903.96901      1048.034      -1611.2927     -241.6114       440.87068      846.12939    
 147742000   256.44095     -417.86421     -331.9788      -417.85366      0              3798.6454      31.138         21.471905      33.266749      22241.888      4130.0198      2950.8997      4315.0166      237.85644     -2578.0742     -721.2929     
 147744000   246.66799     -420.64038     -338.02806     -420.63173      0              3222.639       31.138         21.471905      33.332141      22285.609      2280.5543      5108.3652      2278.9975      1166.5199      365.04315      87.925055    
 147746000   245.48598     -421.2292      -339.01274     -421.23245      0              1856.6946      31.138         21.471905      33.355828      22301.446      1911.3731      2873.4878      785.22272      987.58284     -681.98897     -343.89834    
 147748000   253.77968     -418.09188     -333.09776     -418.0858       0              3203.8458      31.138         21.471905      33.3819        22318.877      3473.9087      2223.3811      3914.2475     -1100.8976     -209.20644     -159.23803    
 147750000   254.27886     -419.50182     -334.34051     -419.48841      0              1862.6346      31.138         21.471905      33.333558      22286.556      3228.7825      3135.0935     -775.97208     -667.84459     -626.18202      635.73141    
 147752000   245.52797     -417.16439     -334.93387     -417.15761      0              2312.0085      31.138         21.471905      33.37588       22314.853      824.81085      3645.3893      2465.8255      703.72587      1249.3565     -310.21729    
 147754000   253.62936     -419.096       -334.15222     -419.08978      0              4066.6008      31.138         21.471905      33.337824      22289.409      3408.2494      6169.7968      2621.7563      231.82842      996.56677      114.16457    
 147756000   245.06843     -418.27636     -336.19975     -418.26708      0              698.20435      31.138         21.471905      33.413913      22340.281     -873.82912      655.26997      2313.1722     -84.751092     -313.72591      1084.1111    
 147758000   253.49773     -417.73218     -332.83249     -417.72401      0              4506.0462      31.138         21.471905      33.343155      22292.973      4442.4248      5694.5336      3381.1801     -135.68368     -708.40606      237.86907    
 147760000   247.73336     -417.43347     -334.46434     -417.42436      0              3608.8773      31.138         21.471905      33.177419      22182.163      2799.397       3819.3213      4207.9136     -2422.0777      1002.8445      1106.3237    
 147762000   250.62969     -418.9219      -334.98275     -418.92064      0              3883.7246      31.138         21.471905      33.116122      22141.18       4192.1766      2786.9712      4672.026      -1838.1411      450.77903     -297.39434    
 147764000   250.38125     -418.2603      -334.40436     -418.26091      0              3693.4919      31.138         21.471905      33.110856      22137.659      3686.9015      3265.3017      4128.2726     -629.34199     -546.58598     -45.647951    
 147766000   245.08814     -417.34103     -335.25781     -417.3349       0              4806.704       31.138         21.471905      33.104709      22133.549      3908.0775      4321.6219      6190.4126     -566.35892      1937.7094      985.97379    
 147768000   252.33176     -418.01625     -333.50706     -418.02033      0              3961.3067      31.138         21.471905      33.086918      22121.655      1836.5961      3884.2802      6163.0438     -404.04371     -894.67517     -65.249223    
 147770000   249.74373     -418.92941     -335.28698     -418.93249      0              4048.7971      31.138         21.471905      33.048762      22096.144      3611.6199      4495.6778      4039.0938      681.88341      716.83864      303.45289    
 147772000   254.67629     -417.63322     -332.33881     -417.63792      0              2345.1768      31.138         21.471905      33.188885      22189.829      2291.2785      1560.2639      3183.9881     -1150.3295      1459.816       1056.4356    
 147774000   257.60943     -420.35222     -334.07546     -420.35185      0              1745.1332      31.138         21.471905      33.100147      22130.499      1043.3891      2099.0158      2092.9947      999.30321     -446.44496      134.26111    
 147776000   248.70726     -419.95066     -336.65535     -419.94839      0              4104.5573      31.138         21.471905      32.96449       22039.8        4855.6766      2516.6593      4941.3358     -588.22191      931.42444      1840.5779    
 147778000   253.90765     -420.81958     -335.7826      -420.8206       0              2197.6351      31.138         21.471905      33.06567       22107.449      1617.1556      2355.1878      2620.5619      817.21208      1975.741       305.86047    
 147780000   246.261       -418.42884     -335.95282     -418.43111      0              4238.1984      31.138         21.471905      33.10318       22132.527      4200.2247      3779.78        4734.5904      1585.4168     -838.77886     -472.26666    
 147782000   249.02638     -420.63032     -337.22814     -420.63113      0              4350.6853      31.138         21.471905      33.161565      22171.563      3655.3143      5522.0642      3874.6776     -414.57624      1105.7751     -784.6599     
 147784000   254.01743     -421.50928     -336.43553     -421.51363      0              2809.5906      31.138         21.471905      33.161246      22171.35       349.46119      3123.0181      4956.2926     -160.98053     -538.8319      -345.14346    
 147786000   251.42486     -419.87566     -335.67019     -419.87699      0              4989.8394      31.138         21.471905      33.168575      22176.25       3208.4617      3490.6839      8270.3726     -62.377768     -728.18242     -472.73373    
 147788000   248.42637     -415.69523     -332.494       -415.69165      0              5837.723       31.138         21.471905      32.975171      22046.941      6798.2852      4420.4752      6294.4086     -661.82959      822.035        173.97673    
 147790000   252.14155     -417.711       -333.26551     -417.71754      0              4288.6403      31.138         21.471905      32.991136      22057.616      3344.3072      4390.633       5130.9807     -85.997954      126.75535      1.1703326    
 147792000   256.48792     -420.01092     -334.10977     -420.01206      0              2232.7499      31.138         21.471905      33.157658      22168.951      3026.4043      3708.3561     -36.510907      856.59723      631.38526      50.911552    
 147794000   253.37914     -418.72011     -333.86013     -418.71204      0              957.9678       31.138         21.471905      33.223271      22212.819      1503.1904      800.50944      570.2035       460.33159      928.09148      463.4577     
 147796000   242.47976     -419.39002     -338.18039     -419.38827      0              4488.1617      31.138         21.471905      33.335519      22287.867      4112.96        4322.1414      5029.3836     -483.60087     -580.91682      120.56999    
 147798000   253.38281     -417.97167     -333.11046     -417.98358      0              2221.2377      31.138         21.471905      33.235461      22220.969      1599.378       2815.7308      2248.6043      536.61341      908.02424     -545.40202    
 147800000   250.54984     -418.38249     -334.47008     -418.37558      0              4016.4731      31.138         21.471905      33.034446      22086.572      3974.6631      3508.3349      4566.4214      617.31779     -420.40635      457.63657    
 147802000   243.58589     -419.97545     -338.39536     -419.96972      0              974.62619      31.138         21.471905      33.266953      22242.024      1986.8533      413.82315      523.20212      1052.3741      652.42476     -14.207577    
 147804000   245.67635     -420.36111     -338.0809      -420.36221      0              2816.4789      31.138         21.471905      33.331553      22285.216      3123.5261      4114.2577      1211.6528     -1773.7238     -878.22029     -1644.8686    
 147806000   247.95297     -421.97897     -338.93629     -421.9813       0              4168.2214      31.138         21.471905      33.225767      22214.488      4545.1696      4497.2145      3462.2801     -1812.8014      2202.2934     -581.16606    
 147808000   248.23023     -418.63846     -335.50292     -418.63184      0              550.27304      31.138         21.471905      33.297027      22262.132      752.94548      1677.1262     -779.2526       57.189095      217.77895     -681.37833    
 147810000   248.22697     -417.06362     -333.92917     -417.06155      0              3049.8904      31.138         21.471905      33.301589      22265.182      2700.2693      3741.7842      2707.6177      1466.461       989.9159      -195.21675    
 147812000   252.07589     -418.58665     -334.16314     -418.58423      0              3580.2848      31.138         21.471905      33.382164      22319.054      4792.031       2675.954       3272.8694     -422.18447      794.54881     -391.7863     
 147814000   247.33665     -418.17385     -335.33758     -418.15961      0              3306.5683      31.138         21.471905      33.463455      22373.404      2914.9076      3910.1272      3094.6702      929.77701      110.13295      8.4961178    
 147816000   247.16522     -419.5158      -336.73695     -419.50271      0              2114.2874      31.138         21.471905      33.305214      22267.606      3204.5337      1333.0837      1805.2448     -2340.0233      589.66169      385.09267    
 147818000   251.97132     -419.36999     -334.98151     -419.36426      0              674.57594      31.138         21.471905      33.443077      22359.779      2394.627      -1190.0025      819.10333     -344.9326      -1179.7455     -1415.1525    
 147820000   249.12912     -419.94949     -336.5129      -419.93715      0              2791.6235      31.138         21.471905      33.377891      22316.197      4008.712       2366.8306      1999.3277     -812.43784      608.97314     -650.81183    
 147822000   256.13699     -418.72205     -332.93843     -418.71746      0              3528.4907      31.138         21.471905      33.264314      22240.26       1611.0348      4060.7883      4913.6491      520.03235      142.09863      686.6276     
 147824000   255.0072      -417.89994     -332.4947      -417.89561      0              3047.1717      31.138         21.471905      33.375999      22314.932      2650.7168      3976.179       2514.6193     -386.34169      1051.4122      336.25053    
 147826000   250.61243     -417.16235     -333.22898     -417.15271      0              2826.7939      31.138         21.471905      33.230228      22217.47       3122.1141      2962.5291      2395.7384     -1562.1614     -121.73378      1617.0962    
 147828000   251.83826     -417.66345     -333.31953     -417.649        0              4388.9922      31.138         21.471905      33.419629      22344.102      3628.735       3818.948       5719.2936      1767.1109     -1659.8294     -1396.9435    
 147830000   251.58695     -417.66172     -333.40197     -417.64306      0              3391.0948      31.138         21.471905      33.411373      22338.582      4018.7466      3224.6231      2929.9148      523.22377     -343.79137     -1336.2138    
 147832000   252.27108     -418.34014     -333.85127     -418.3354       0              2567.0726      31.138         21.471905      33.282374      22252.335      1268.9546      2515.7444      3916.5188      796.12019      1396.9637      1088.8067    
 147834000   255.05978     -417.95049     -332.52764     -417.94119      0              3219.2825      31.138         21.471905      33.325901      22281.437      2282.131       4058.7436      3316.973       586.73704      1102.2542      199.11996    
 147836000   249.05411     -418.85632     -335.44486     -418.8441       0              4124.8032      31.138         21.471905      33.358424      22303.181      4029.8177      6078.1508      2266.4412      387.50304      283.20829      553.19401    
 147838000   244.11019     -420.40891     -338.65323     -420.40022      0              3542.1896      31.138         21.471905      33.59252       22459.696      3155.6524      4246.5815      3224.3348      1587.8622      686.93611      46.355403    
 147840000   256.73544     -420.09488     -334.11083     -420.08035      0              2432.2458      31.138         21.471905      33.588118      22456.753      3901.3724      3309.1526      86.21242      -2024.3676      779.42404     -1089.3367    
 147842000   248.72429     -419.58565     -336.28464     -419.57365      0              4616.0425      31.138         21.471905      33.661532      22505.837      5351.943       6193.7178      2302.4666      266.91852      60.355569     -1361.8503    
 147844000   253.26842     -418.84654     -334.02364     -418.88117      0              1576.9098      31.138         21.471905      33.502607      22399.581      2214.8021      1649.2425      866.68467     -216.87424     -1300.139       1728.2214    
 147846000   247.65732     -420.98563     -338.04197     -420.97992      0              3258.353       31.138         21.471905      33.372462      22312.567      3086.993       4246.8677      2441.1982     -1520.0668      1212.0609     -532.23032    
 147848000   240.95973     -420.48567     -339.78511     -420.47409      0              1485.7718      31.138         21.471905      33.327148      22282.271      1239.3059      2216.5645      1001.445      -1116.0004     -577.24053      1332.9465    
 147850000   246.12221     -418.16116     -335.73162     -418.15468      0              4551.1685      31.138         21.471905      33.342093      22292.263      2366.1798      5493.7487      5793.577       1389.557       679.4381      -469.60067    
 147852000   250.2449      -419.88548     -336.0752      -419.87269      0              2889.4176      31.138         21.471905      33.323215      22279.641      2991.9374      2646.861       3029.4544      89.104126      1586.8         1126.0822    
 147854000   247.99962     -419.69255     -336.63424     -419.69519      0              2329.9324      31.138         21.471905      33.28979       22257.293      2259.0483      3227.0784      1503.6706     -859.17275      849.92319      1095.2752    
 147856000   243.73912     -416.31853     -334.68712     -416.30929      0              3788.8649      31.138         21.471905      33.342521      22292.548      6301.0943      3430.6354      1634.865       166.327        562.67392      1317.4863    
 147858000   246.97183     -420.18995     -337.47586     -420.17955      0              3378.5752      31.138         21.471905      33.211295      22204.812      2050.2953      7039.0987      1046.3316      939.5417       994.3034       389.94235    
 147860000   248.38494     -418.06851     -334.88116     -418.06013      0              3139.162       31.138         21.471905      33.343061      22292.91       3578.9983      2263.8417      3574.646       160.68356      78.195249     -906.51892    
 147862000   245.909       -420.73262     -338.37449     -420.73593      0              2517.173       31.138         21.471905      33.487572      22389.529      2366.8452      3755.1422      1429.5316     -63.539478      1812.2358     -420.16128    
 147864000   254.24865     -418.41273     -333.26154     -418.40508      0              4136.9656      31.138         21.471905      33.440461      22358.03       2607.5168      5739.5454      4063.8347     -102.28159      285.36028     -1195.2016    
 147866000   252.8675      -416.93008     -332.24146     -416.92962      0              3062.4727      31.138         21.471905      33.239852      22223.905      3412.7793      2805.4471      2969.1919      728.29051      1176.3084      786.3367     
 147868000   253.04229     -419.65915     -334.91198     -419.64538      0              3592.8669      31.138         21.471905      33.331201      22284.98       3894.6696      4110.9692      2772.962       152.94931      1003.437       641.15947    
 147870000   249.43916     -416.78468     -333.24425     -416.78406      0              794.91533      31.138         21.471905      33.281074      22251.466     -0.42007531     1254.0766      1131.0894      580.9092      -61.270238      2162.441     
 147872000   248.13057     -419.22382     -336.12166     -419.22377      0              4257.1416      31.138         21.471905      33.197893      22195.852      2434.5997      4456.0686      5880.7566      615.28662     -510.47989     -1050.882     
 147874000   244.79763     -416.95889     -334.97297     -416.95763      0              1943.6889      31.138         21.471905      33.364461      22307.218      974.83833      2493.5053      2362.7232     -1255.864       167.66912     -2870.9555    
 147876000   248.47638     -418.06951     -334.85154     -418.05717      0              4013.1598      31.138         21.471905      33.252535      22232.385      3744.1129      5165.2087      3130.1578      582.26978     -491.34788     -329.70048    
 147878000   251.45851     -420.44607     -336.22934     -420.44844      0              877.94188      31.138         21.471905      33.327725      22282.656     -7.3461743     -185.98859      2827.1604     -758.14982     -854.1462      -405.09657    
 147880000   250.25712     -416.37792     -332.56355     -416.35987      0              2959.3889      31.138         21.471905      33.426595      22348.76       873.03804      4893.6639      3111.4646      1299.1932      2618.2609     -249.89024    
 147882000   247.33106     -419.95496     -337.12056     -419.9486       0              2480.299       31.138         21.471905      33.078278      22115.878      1952.8174      1883.9472      3604.1323      204.79102     -800.54476     -629.06969    
 147884000   247.58706     -417.02714     -334.107       -417.00988      0              3932.8135      31.138         21.471905      33.265353      22240.955      3429.7344      4249.1724      4119.5337      652.40129      907.33375     -1438.8386    
 147886000   248.47779     -418.13482     -334.91637     -418.12526      0              2654.8311      31.138         21.471905      33.280465      22251.059      1555.094       3656.7218      2752.6774      753.2293       863.11065     -1207.5491    
 147888000   250.62392     -419.50565     -335.56844     -419.50763      0              2554.9028      31.138         21.471905      33.300839      22264.68       3159.0254      2258.0312      2247.6519      1878.6686      686.84803     -736.81155    
 147890000   253.097       -418.80698     -334.0415      -418.79872      0              3706.2794      31.138         21.471905      33.565394      22441.56       3906.9497      5943.589       1268.2995     -484.69429      970.44829     -15.647035    
 147892000   252.14714     -419.13201     -334.68465     -419.13395      0              569.14329      31.138         21.471905      33.412819      22339.549      1257.2654      483.02878     -32.864327      414.76097     -806.21421     -540.64857    
 147894000   248.96281     -419.93139     -336.5505      -419.93016      0              2502.7601      31.138         21.471905      33.337104      22288.927      1485.42        3349.5364      2673.3239     -852.80473      537.0946      -374.77937    
 147896000   253.92806     -421.53062     -336.4868      -421.52649      0              2533.227       31.138         21.471905      33.265139      22240.812      1096.0563      2571.4795      3932.1451     -117.63737      1135.839      -1136.6936    
 147898000   246.72441     -418.61893     -335.98771     -418.61851      0              5732.3845      31.138         21.471905      33.264284      22240.24       5831.231       6480.352       4885.5705     -1493.5766      525.12138     -1027.6613    
 147900000   254.04272     -420.48956     -335.40734     -420.48367      0              3957.1264      31.138         21.471905      33.302603      22265.86       4125.649       1833.5889      5912.1414     -979.17233     -1674.3122      1393.5011    
 147902000   253.82853     -420.41917     -335.40868     -420.4288       0              3149.908       31.138         21.471905      33.301166      22264.899      4431.6765      2861.2255      2156.822       1519.0054      1193.8417      646.49083    
 147904000   250.97585     -417.62115     -333.56607     -417.62506      0              4756.4358      31.138         21.471905      33.364336      22307.134      5297.9088      4052.1505      4919.2481     -939.82746     -462.75716     -36.797208    
 147906000   249.32364     -417.28664     -333.7849      -417.27529      0              1805.59        31.138         21.471905      33.38331       22319.82       792.44362      4238.4545      385.87198     -600.02548     -1104.2209     -1698.086     
 147908000   248.83432     -417.17437     -333.83652     -417.17999      0              2416.3653      31.138         21.471905      33.324994      22280.831      1846.5947      4481.656       920.84523      423.46104      258.23084     -540.24523    
 147910000   251.87254     -419.17732     -334.82193     -419.18287      0              2831.3999      31.138         21.471905      33.137124      22155.222      4439.2626      1716.9036      2338.0334      421.10588     -426.46479      184.27444    
 147912000   254.31002     -416.36857     -331.19683     -416.37288      0              3347.9734      31.138         21.471905      33.209613      22203.687      1945.0843      3478.7961      4620.0397      1368.232       690.46145     -1082.8094    
 147914000   245.1614      -416.14916     -334.04142     -416.1442       0              4563.814       31.138         21.471905      33.062114      22105.07       3969.1621      5065.7663      4656.5135      1428.5947     -61.941355     -231.05808    
 147916000   247.86424     -420.127       -337.11403     -420.12874      0              3400.2188      31.138         21.471905      33.085889      22120.967      4577.7248      2671.3511      2951.5803      1263.822      -1075.7544     -196.22626    
 147918000   255.41239     -419.54379     -334.00285     -419.54264      0              2782.8899      31.138         21.471905      33.152091      22165.229      1556.8092      3454.5541      3337.3062      296.78949      602.66898     -14.528685    
 147920000   253.90138     -418.99253     -333.95765     -418.97986      0              4153.2733      31.138         21.471905      33.212746      22205.782      4716.3089      2510.4097      5233.1011     -302.44122     -1226.9339     -2.0271597    
 147922000   248.39096     -417.28408     -334.0947      -417.28253      0              3768.9656      31.138         21.471905      33.154312      22166.714      4450.1334      3269.091       3587.6723      613.65858      109.83033     -265.7084     
 147924000   254.09867     -419.86471     -334.76375     -419.86336      0              3633.0659      31.138         21.471905      33.10297       22132.387      3023.8101      4451.8316      3423.5559     -309.01498      756.31057     -309.77324    
 147926000   249.8328      -418.90921     -335.23695     -418.90958      0              2331.3762      31.138         21.471905      33.435082      22354.434      3254.6266      2517.8683      1221.6338     -962.95829     -1041.6381      560.40308    
 147928000   251.34183     -419.85235     -335.67469     -419.86677      0              4365.1902      31.138         21.471905      33.343485      22293.194      5552.649       6329.1264      1213.7952     -1262.4124     -866.45694     -2316.1222    
 147930000   252.64112     -418.32289     -333.71008     -418.31731      0              2738.9157      31.138         21.471905      33.206982      22201.928      3353.6976      2070.0735      2792.976      -765.69647     -236.56256      438.10865    
 147932000   252.76587     -421.31924     -336.66466     -421.31787      0              344.08303      31.138         21.471905      33.303155      22266.229     -1343.7411      1643.5526      732.43758      779.50319      996.60703     -196.56401    
 147934000   254.38975     -418.66654     -333.46809     -418.66691      0              4500.3592      31.138         21.471905      33.27117       22244.844      5328.1451      4744.4909      3428.4416      553.25729     -939.51123      241.84025    
 147936000   250.10834     -417.21001     -333.44546     -417.20552      0              3198.9917      31.138         21.471905      33.23244       22218.95       2761.2815      1666.2834      5169.4104     -499.37241      779.19895     -390.15243    
 147938000   246.16912     -417.79549     -335.35025     -417.79692      0              3892.5628      31.138         21.471905      33.142221      22158.63       3448.5799      2317.0539      5912.0547     -1660.5833     -344.6448       846.54626    
 147940000   245.04794     -421.14415     -339.0744      -421.14408      0              4208.303       31.138         21.471905      33.117597      22142.166      3090.4345      4816.602       4717.8725      1354.6061     -10.662899      19.752038    
 147942000   246.22342     -418.66808     -336.20465     -418.66392      0              4218.6736      31.138         21.471905      33.209091      22203.338      3354.9577      3832.1191      5468.9439     -390.14233      1301.6881     -647.51732    
 147944000   243.40289     -421.18084     -339.66204     -421.17543      0              1758.1704      31.138         21.471905      33.405498      22334.655      1978.1691      1163.3105      2133.0315      387.29923     -1705.6758     -623.03578    
 147946000   256.09221     -421.35118     -335.58256     -421.35336      0              3207.0544      31.138         21.471905      33.269397      22243.659      1697.7588      3158.6936      4764.7109      813.20856      1708.4579      458.351      
 147948000   255.36882     -419.37641     -333.85006     -419.3773       0              2047.3328      31.138         21.471905      33.429217      22350.513      1472.2183      3556.255       1113.5251     -196.22105      975.53998     -590.83505    
 147950000   251.41393     -419.1663      -334.9645      -419.16389      0              1823.2734      31.138         21.471905      33.335533      22287.877      180.00062      3506.4618      1783.3579      655.20371     -702.80488      40.075402    
 147952000   251.10785     -418.22215     -334.12286     -418.22724      0              2483.7466      31.138         21.471905      33.404064      22333.696      2194.2616      878.33538      4378.6428      123.79799      753.84163      392.25831    
 147954000   251.3939      -419.92069     -335.7256      -419.92309      0              1469.1673      31.138         21.471905      33.527051      22415.924      962.55358      1333.3853      2111.5632     -154.60884      1458.6746      238.02401    
 147956000   244.86606     -419.81693     -337.80809     -419.80766      0              2251.0301      31.138         21.471905      33.430191      22351.164      2999.8254      1082.5795      2670.6854     -871.53719      124.56167      362.23446    
 147958000   250.2048      -418.83472     -335.03787     -418.83747      0              3669.8007      31.138         21.471905      33.407433      22335.948      4465.9181      3443.4858      3099.9981     -435.83044     -119.43608      591.35367    
 147960000   249.7251      -419.33437     -335.69818     -419.33439      0              2022.6645      31.138         21.471905      33.282173      22252.2        4560.8023      1031.9932      475.19806     -147.97661      1.7581204     -916.43932    
 147962000   246.59545     -421.4923      -338.90427     -421.5009       0              2108.8108      31.138         21.471905      33.27902       22250.093      4535.0619      455.98885      1335.3818     -1124.0303     -1387.5726     -74.945293    
 147964000   251.22856     -418.72188     -334.58216     -418.7229       0              3979.3639      31.138         21.471905      33.276886      22248.666      4579.7582      3692.4965      3665.8369      745.74375      51.519632     -530.08328    
 147966000   255.71437     -417.53144     -331.88936     -417.5304       0              2594.9458      31.138         21.471905      33.34275       22292.702      3657.4976      3615.7982      511.54163      682.15563     -1356.7539     -1909.3537    
 147968000   247.53547     -418.31206     -335.4092      -418.30887      0              2982.5999      31.138         21.471905      33.366388      22308.506      3143.8669      4396.6126      1407.3201      901.99585      907.70305     -1631.5944    
 147970000   253.60682     -419.29353     -334.3573      -419.29595      0              1732.6638      31.138         21.471905      33.461277      22371.948      1374.1545      1577.341       2246.4958      2143.0845     -789.6184       1059.2998    
 147972000   258.26714     -418.5594      -332.06236     -418.56267      0              4279.382       31.138         21.471905      33.330601      22284.579      4395.3052      3813.5694      4629.2714     -1418.3526      484.54672     -686.53344    
 147974000   249.1458      -418.47768     -335.0355      -418.47504      0              3803.6677      31.138         21.471905      33.258011      22236.046      2851.6542      2255.8846      6303.4641     -22.791547      2064.0743      2206.3935    
 147976000   250.92401     -420.97215     -336.93443     -420.96447      0              3041.6858      31.138         21.471905      33.47233       22379.338      802.12358      3569.4622      4753.4716      825.11208      512.62182     -310.93719    
 147978000   256.97583     -419.48632     -333.42177     -419.48911      0              2628.833       31.138         21.471905      33.291877      22258.688      1823.8202      3630.2528      2432.4259     -763.60706     -133.04945     -54.257708    
 147980000   248.66055     -420.31443     -337.03477     -420.31834      0              4004.1318      31.138         21.471905      33.389521      22323.972      4750.796       4830.1894      2431.41        0.37361557    -3121.4319      296.59435    
 147982000   250.45849     -417.99221     -334.11039     -417.98022      0              4720.2067      31.138         21.471905      33.341856      22292.104      6396.9753      2773.0483      4990.5966     -758.79517      565.20158      1389.7984    
 147984000   244.70626     -419.2544      -337.29908     -419.2526       0              2022.5122      31.138         21.471905      33.391508      22325.301      1074.1206      1910.7594      3082.6567     -563.00481     -407.24056      1303.359     
 147986000   251.80031     -419.07624     -334.74504     -419.07126      0              3973.2882      31.138         21.471905      33.441313      22358.6        3985.4018      5177.7507      2756.7122     -1510.7649      538.95175     -734.8292     
 147988000   247.67232     -417.29103     -334.34234     -417.27944      0              2902.9855      31.138         21.471905      33.298951      22263.418      3237.5877      2841.3595      2630.0092      1238.2644     -2381.5482      607.42323    
 147990000   251.36045     -415.26687     -331.08298     -415.25598      0              2301.6283      31.138         21.471905      33.456535      22368.778      958.02826      2647.6499      3299.2066     -94.976906     -639.94763      499.794      
 147992000   252.9719      -417.09372     -332.37014     -417.08471      0              2347.8127      31.138         21.471905      33.522963      22413.191      1643.2677      3346.7869      2053.3835      1402.1967     -337.5551      -788.21556    
 147994000   251.61634     -421.48448     -337.21488     -421.48608      0              4680.2062      31.138         21.471905      33.468679      22376.897      6904.9578      3600.7716      3534.8893     -1039.0567      288.03227     -530.79157    
 147996000   250.38601     -416.73853     -332.88099     -416.72544      0              2963.1838      31.138         21.471905      33.482987      22386.464      3335.235       1972.9813      3581.335      -302.22144      1308.9212      1159.692     
 147998000   251.34105     -419.50108     -335.32369     -419.48745      0              1415.4426      31.138         21.471905      33.605248      22468.206      1659.2478      1489.225       1097.8549      1105.1982     -671.72453      955.60838    
 148000000   250.54099     -420.69899     -336.78954     -420.68914      0              3261.0831      31.138         21.471905      33.677963      22516.823      2281.2729      2565.639       4936.3375      280.44189     -899.10231      947.54355    
 148002000   244.93324     -417.71994     -335.68861     -417.7078       0              3515.6156      31.138         21.471905      33.63611       22488.84       4831.7144      4019.1393      1695.993      -1003.1311      685.9305       642.90398    
 148004000   248.71949     -417.55464     -334.25525     -417.54736      0              1909.4093      31.138         21.471905      33.581911      22452.603      2440.2634      2937.0246      350.93996     -1603.7002      1363.1832     -1204.5646    
 148006000   249.41616     -418.4214      -334.88868     -418.41741      0              3122.6452      31.138         21.471905      33.566008      22441.97       4826.2523      3220.4074      1321.276      -333.959       -1189.4954      80.039432    
 148008000   253.62802     -421.04775     -336.10442     -421.04277      0              2890.9746      31.138         21.471905      33.402531      22332.671      3047.6595      3196.558       2428.7064      196.34528      107.60058     -871.88058    
 148010000   245.26383     -419.81404     -337.67199     -419.80855      0              3318.5902      31.138         21.471905      33.637918      22490.049      2159.3644      3996.2156      3800.1907     -532.51894      1660.1413      1122.4475    
 148012000   247.7914      -416.93405     -333.94548     -416.93189      0              3783.0155      31.138         21.471905      33.480189      22384.592      4280.2799      3588.3276      3480.439      -1290.1813      676.99929      19.356221    
 148014000   248.16439     -420.32484     -337.21135     -420.32152      0              1952.5363      31.138         21.471905      33.533065      22419.945      2911.5015      2270.326       675.78133     -646.77781     -53.328798      749.03995    
 148016000   246.27598     -419.97096     -337.48992     -419.9703       0              2105.9887      31.138         21.471905      33.536066      22421.951      3042.8267      1974.274       1300.8653      318.59664      1124.3886      1678.298     
 148018000   255.32338     -419.37451     -333.86338     -419.37744      0              4261.6251      31.138         21.471905      33.383094      22319.676      4272.5781      5939.6223      2572.675       10.612747      1910.5595      1870.259     
 148020000   248.77825     -418.135       -334.81592     -418.13601      0              2857.926       31.138         21.471905      33.393106      22326.369      3434.3391      4136.2428      1003.1962     -1121.1511      1964.4535      308.74776    
 148022000   246.63829     -418.69895     -336.09657     -418.6904       0              2340.2994      31.138         21.471905      33.491695      22392.285      3211.7938      2302.2423      1506.862      -707.48892      125.7828       547.95837    
 148024000   248.75343     -416.36961     -333.05885     -416.36088      0              2778.7776      31.138         21.471905      33.592794      22459.88       1698.4827      4298.7881      2339.062      -94.937901      88.049659     -699.20093    
 148026000   248.72084     -417.53687     -334.23702     -417.52683      0              6155.1         31.138         21.471905      33.498627      22396.92       6079.2073      6420.0973      5965.9955     -97.459275     -1487.0722     -1347.7628    
[...]
 155438000   248.57905     -413.83833     -330.58597     -413.81986      0              2918.9954      31.138         21.471905      33.730553      22551.984      5089.4759      2035.6498      1631.8604      1409.3011      1095.2223     -517.03086    
 155440000   245.69537     -414.71493     -332.42835     -414.69891      0              2283.6019      31.138         21.471905      33.760118      22571.75       3153.8929      2102.0732      1594.8395      2218.2872     -1139.6851     -1123.8106    
 155442000   250.71319     -415.53055     -331.56344     -415.51229      0              1304.9797      31.138         21.471905      33.647619      22496.535      1962.0586      595.81899      1357.0617      1304.0534      1459.1448      337.43896    
 155444000   241.52859     -417.24531     -336.35423     -417.2268       0              2496.0912      31.138         21.471905      33.663897      22507.418      2224.8006      2873.0866      2390.3864     -636.44243      498.72015     -516.24721    
 155446000   257.3531      -417.16837     -330.97746     -417.14834      0              3407.4058      31.138         21.471905      33.610379      22471.636      4077.1288      3243.2548      2901.8338     -248.93041      446.71594      740.24393    
 155448000   253.4105      -415.8947      -331.02422     -415.87669      0              3311.6318      31.138         21.471905      33.461419      22372.043      3085.7192      3271.0763      3578.1        -184.93527     -902.42519     -539.40637    
 155450000   244.97838     -418.15207     -336.10562     -418.13282      0              5555.9895      31.138         21.471905      33.555638      22435.037      6082.0514      6045.0688      4540.8481     -69.188055      908.13806      571.997      
 155452000   250.52424     -414.8466      -330.94277     -414.8311       0              4019.3861      31.138         21.471905      33.531081      22418.618      2986.1339      5148.6743      3923.3501     -1139.5722      248.73836     -622.74288    
 155454000   249.52416     -417.12715     -333.55826     -417.10714      0              3134.9837      31.138         21.471905      33.409221      22337.144      3048.9755      2376.8667      3979.1088     -657.44651     -657.67764      932.98547    
 155456000   250.70176     -413.65074     -329.68746     -413.63105      0              3633.9555      31.138         21.471905      33.298728      22263.269      1587.6443      4713.5053      4600.717      -1250.1437     -37.417041      1405.8055    
 155458000   250.5566      -415.51257     -331.5979      -415.4927       0              1993.7401      31.138         21.471905      33.424485      22347.349      1615.0204      2177.3824      2188.8174      1082.4672     -823.99739      98.10798     
 155460000   246.43899     -414.48752     -331.95189     -414.46894      0              5174.8644      31.138         21.471905      33.273583      22246.457      5447.3905      4644.7165      5432.4863      789.80217     -657.24955     -1105.0552    
 155462000   250.98978     -417.69284     -333.63309     -417.6729       0              5035.2802      31.138         21.471905      33.305822      22268.012      5895.1226      4703.0817      4507.6363      818.54701     -1222.8269      1026.4734    
 155464000   247.81697     -415.58114     -332.58401     -415.56234      0              3852.6033      31.138         21.471905      33.20629       22201.466      4129.2973      4070.725       3357.7874      805.14305     -662.12728     -830.89283    
 155466000   248.41297     -415.21811     -332.02137     -415.19916      0              4315.9963      31.138         21.471905      33.39788       22329.561      5131.0067      2806.0155      5010.9667     -68.535495      899.49942      447.95723    
 155468000   249.46667     -417.31662     -333.76699     -417.29672      0              1817.301       31.138         21.471905      33.4633        22373.301      2907.2265      984.77345      1559.9031      440.27434      140.10252     -1160.2515    
 155470000   247.0274      -416.01419     -333.2815      -415.9953       0              4811.4704      31.138         21.471905      33.456056      22368.458      4825.9651      6180.3047      3428.1413      638.09447     -646.61592     -792.77836    
 155472000   250.00805     -413.90573     -330.17477     -413.88942      0              1731.5504      31.138         21.471905      33.458174      22369.873      1768.7831      1872.6361      1553.2319     -303.16739     -1065.0723      480.55834    
 155474000   249.46235     -414.94528     -331.39709     -414.9254       0              4161.5862      31.138         21.471905      33.341568      22291.911      2777.7554      4096.6418      5610.3615     -39.60495       950.54786     -752.1618     
 155476000   241.84368     -413.19562     -332.19901     -413.17986      0              1804.9729      31.138         21.471905      33.470529      22378.134      1768.7452      3174.7459      471.42748      1326.9795      1339.6184      514.51892    
 155478000   248.24495     -415.99693     -332.85646     -415.97794      0              1677.8373      31.138         21.471905      33.410766      22338.177      1660.2509      2143.6171      1229.644       628.35766      972.27425     -6.8337402    
 155480000   248.77463     -418.07621     -334.75834     -418.05621      0              3311.2166      31.138         21.471905      33.30263       22265.878      4218.9346      4238.2471      1476.4682     -1543.1378      126.29418     -436.29672    
 155482000   250.89082     -415.74744     -331.72084     -415.72816      0              4494.5376      31.138         21.471905      33.285323      22254.306      4871.9375      4740.7884      3870.8868      436.00524      671.98808      477.36998    
 155484000   254.1413      -413.74347     -328.62823     -413.72518      0              1591.4553      31.138         21.471905      33.340478      22291.183      283.38948      3569.2379      921.73854     -832.15194      34.06338       161.91525    
 155486000   249.21975     -413.72186     -330.25492     -413.70205      0              5771.4349      31.138         21.471905      33.090227      22123.867      4527.7973      5995.1445      6791.363       1023.0517      148.88683      638.50727    
 155488000   241.20884     -415.62841     -334.84442     -415.60977      0              3360.6528      31.138         21.471905      33.258193      22236.168      3780.0677      2970.8592      3331.0315      1028.5214      593.4859      -75.905906    
 155490000   248.37872     -416.55044     -333.36516     -416.53043      0              3873.5842      31.138         21.471905      33.155949      22167.808      3182.2665      4515.7231      3922.7629     -51.338473      166.33373      228.86409    
 155492000   248.33685     -413.12419     -329.95294     -413.10474      0              4938.2066      31.138         21.471905      33.093608      22126.127      4202.8097      5621.5711      4990.239       913.69462      819.90916      1112.7357    
 155494000   251.63055     -417.5625      -333.28815     -417.54307      0              4288.6766      31.138         21.471905      33.068061      22109.047      3849.76        6009.1129      3007.157      -48.201101     -420.90474      409.65048    
 155496000   257.90121     -414.59208     -328.21761     -414.5726       0              4962.6634      31.138         21.471905      33.159276      22170.032      5137.2473      4756.1238      4994.6192     -771.89398      2031.9114     -789.84221    
 155498000   255.16256     -415.73101     -330.27375     -415.71137      0              2663.1061      31.138         21.471905      33.314294      22273.676      2928.1403      2676.1355      2385.0425      25.224193      1132.3272     -946.13205    
 155500000   244.98273     -415.92017     -333.87227     -415.90023      0              2923.7556      31.138         21.471905      33.239977      22223.989      3058.4624      4123.5597      1589.2447      1142.3402      1636.9497     -783.3623     
 155502000   251.28679     -415.42201     -331.26279     -415.40393      0              2786.8539      31.138         21.471905      33.243673      22226.46       2972.6642      638.02801      4749.8695      2063.3824      1454.1631      539.84559    
 155504000   244.56205     -415.61475     -333.70774     -415.59566      0              1421.0491      31.138         21.471905      33.271026      22244.748      2491.9173      1528.3521      242.87779      4.9222184     -42.428602     -433.5241     
 155506000   247.31066     -415.82721     -332.99965     -415.81008      0              2642.5687      31.138         21.471905      33.345203      22294.342      2810.6572      2530.6877      2586.3614     -941.1724       168.61752      1333.1733    
 155508000   248.35612     -416.7059      -333.52819     -416.68659      0              859.29922      31.138         21.471905      33.435118      22354.458      1211.083       348.72548      1018.0892     -781.08849      528.92182      1437.872     
 155510000   248.76127     -415.13989     -331.8265      -415.1199       0              2930.8413      31.138         21.471905      33.38438       22320.535      1953.3554      2103.2754      4735.8931      153.01335     -153.04719      1070.7487    
 155512000   253.64459     -413.93505     -328.98617     -413.9152       0              2487.0815      31.138         21.471905      33.409292      22337.191      2540.4504      2491.7723      2429.0219     -1303.3979     -254.99928      1711.1903    
 155514000   247.13616     -414.69132     -331.92219     -414.67177      0              1948.477       31.138         21.471905      33.217553      22208.996      2006.7356      1232.2293      2606.4661     -580.65446     -1804.4411     -673.32802    
 155516000   243.6159      -415.60068     -334.01054     -415.58236      0              4703.9731      31.138         21.471905      33.150724      22164.315      4053.5781      5261.0662      4797.275       1022.9658      1070.8806      319.15486    
 155518000   252.26157     -414.23031     -329.74463     -414.21032      0              3426.9355      31.138         21.471905      33.319519      22277.169      3581.4         3219.1781      3480.2286     -1473.7797     -413.0028       515.80526    
 155520000   248.86074     -411.83179     -328.48508     -411.81305      0              4348.6225      31.138         21.471905      33.218224      22209.445      4573.0429      3226.1139      5246.7108      235.89014      1304.0446      252.98704    
 155522000   246.4297      -417.9387      -335.40619     -417.91905      0              1010.6021      31.138         21.471905      33.208642      22203.038      1348.405      -294.56231      1977.9636     -1377.3855     -1422.2813      1426.5708    
 155524000   244.85049     -414.28144     -332.27782     -414.2616       0              4304.7413      31.138         21.471905      33.267435      22242.347      5017.0087      4945.3777      2951.8376      801.89959     -534.51826     -942.30465    
 155526000   253.54462     -415.46562     -330.55023     -415.44576      0              2693.675       31.138         21.471905      33.414765      22340.85       5105.1715      2091.6707      884.18279     -569.67605     -1782.5825     -129.78986    
 155528000   245.59466     -413.48743     -331.23458     -413.46842      0              1316.9296      31.138         21.471905      33.360494      22304.566      2957.7784      2341.1759     -1348.1657      1957.8253     -523.96923     -901.1287     
 155530000   259.22598     -414.8826      -328.06444     -414.86287      0              3627.8191      31.138         21.471905      33.254599      22233.764      3074.8497      4282.2663      3526.3413     -1424.9319      570.60153      8.5829891    
 155532000   248.94279     -412.93153     -329.55735     -412.91195      0              2660.1717      31.138         21.471905      33.56552       22441.644      2172.5832      2629.979       3177.953       645.69349      215.26071     -1077.8623    
 155534000   244.00629     -415.25936     -333.53848     -415.23942      0              1878.6205      31.138         21.471905      33.497691      22396.294      2180.8208      1361.4824      2093.5583      767.63017      388.55316      256.64264    
 155536000   254.91374     -413.83815     -328.46422     -413.82136      0              2329.7973      31.138         21.471905      33.402048      22332.348      813.52599      1799.5847      4376.2811      1558.8385     -40.299709     -1307.5477    
 155538000   247.7154      -415.4757      -332.51259     -415.45712      0              4381.6867      31.138         21.471905      33.477502      22382.796      5740.4794      4352.4472      3052.1334     -1363.2525     -775.3723       533.73581    
 155540000   251.53983     -414.91388     -330.66991     -414.89393      0              2438.9619      31.138         21.471905      33.487566      22389.525      3329.9402      3817.9628      168.98271      1054.0691      620.32158      358.71609    
 155542000   244.54602     -416.42863     -334.52698     -416.40877      0              2226.3384      31.138         21.471905      33.477094      22382.523      2718.5723      2950.6498      1009.7931     -341.02703      287.10535     -927.38494    
 155544000   249.75075     -414.92523     -331.28045     -414.9056       0              2430.609       31.138         21.471905      33.426427      22348.648      2844.0275      1739.2986      2708.501      -326.87443      496.25138     -548.45287    
 155546000   253.3426      -417.54589     -332.69815     -417.52601      0              3192.8421      31.138         21.471905      33.508212      22403.328      4737.3371      2163.2229      2677.9664     -2666.7894     -770.12932     -354.41686    
 155548000   248.02453     -416.61923     -333.55258     -416.60156      0              2081.7811      31.138         21.471905      33.361898      22305.504      1757.2048      2879.6975      1608.441       386.57213     -1037.0781      45.025273    
 155550000   242.33713     -417.3426      -336.18074     -417.32396      0              3079.9021      31.138         21.471905      33.220001      22210.633      3017.8124      2791.202       3430.6918      301.1993      -1189.0531     -1071.124     
 155552000   248.29628     -416.50496     -333.3473      -416.48788      0              3545.1094      31.138         21.471905      33.377759      22316.109      2630.5038      3403.6483      4601.1761      742.03602     -1416.0023     -1420.972     
 155554000   247.88281     -415.75837     -332.73919     -415.73873      0              2144.5689      31.138         21.471905      33.367661      22309.357      2565.7995      661.18702      3206.7202      16.009502      515.6606       1641.6258    
 155556000   252.90704     -417.05967     -332.35781     -417.04157      0              3231.9836      31.138         21.471905      33.207118      22202.019      3232.1664      3758.4094      2705.375       2363.1661      421.4036      -1183.9828    
 155558000   251.78542     -417.10601     -332.77979     -417.08652      0              1273.4411      31.138         21.471905      33.481881      22385.723      798.84939      1805.2025      1216.2715     -691.83712      1372.751       46.964702    
 155560000   251.04425     -417.57497     -333.49698     -417.5568       0              3193.2417      31.138         21.471905      33.414099      22340.406      3340.5503      2851.4757      3387.6991      490.13653      1095.6936      1320.1642    
 155562000   248.37427     -417.6004      -334.41662     -417.5819       0              1557.3391      31.138         21.471905      33.194518      22193.595      1272.3317      343.66879      3056.0167     -1134.942       327.3888       280.68802    
 155564000   247.83902     -417.61667     -334.61215     -417.60221      0              3701.9755      31.138         21.471905      33.132991      22152.459      3968.573       2229.0257      4908.3278      1503.4432      557.15605      1272.1494    
 155566000   253.97987     -416.1373      -331.07613     -416.11833      0              3248.0167      31.138         21.471905      33.144848      22160.386      2016.2356      3865.57        3862.2444     -153.25589      94.719352      680.10235    
 155568000   254.43755     -420.82565     -335.6112      -420.80781      0              3792.2198      31.138         21.471905      33.211354      22204.852      3855.7827      4125.2425      3395.634       509.08692      1908.573      -328.81226    
 155570000   247.18469     -419.2457      -336.46033     -419.22586      0              1979.5179      31.138         21.471905      33.322936      22279.454      1542.7766      2192.5489      2203.2282      887.93752     -586.22444      772.92098    
 155572000   240.338       -419.9376      -339.44527     -419.91801      0              3461.002       31.138         21.471905      33.276764      22248.584      3776.2374      3704.2201      2902.5484      800.85778     -1465.0889      126.27726    
 155574000   239.46225     -417.32296     -337.12393     -417.30632      0              3391.0346      31.138         21.471905      33.251198      22231.491      4518.976       3666.6918      1987.436       1481.8029     -352.24033     -650.40612    
 155576000   247.53483     -416.44026     -333.53762     -416.42111      0              3636.5784      31.138         21.471905      33.347049      22295.576      4470.3615      3518.0332      2921.3406      122.20899      951.63588     -986.09886    
 155578000   250.56701     -413.34415     -329.42599     -413.32588      0              4165.081       31.138         21.471905      33.166744      22175.025      3865.3273      5264.4968      3365.4191      111.62852     -634.26225     -317.20427    
 155580000   253.84809     -417.17346     -332.15642     -417.1554       0              3845.7598      31.138         21.471905      33.239741      22223.831      2896.6332      2997.1573      5643.4888     -885.47912      335.74305     -415.51539    
WARNING: Wall time limit reached (../timer.cpp:193)
Loop time of 85802.9 on 4 procs for 8123000 steps with 2592 atoms

Performance: 4.090 ns/day, 5.868 hours/ns, 94.670 timesteps/s
1548.4% CPU use with 4 MPI tasks x no OpenMP threads

MPI task timing breakdown:
Section |  min time  |  avg time  |  max time  |%varavg| %total
---------------------------------------------------------------
Pair    | 22680      | 22890      | 23150      | 134.0 | 26.68
Bond    | 0.82184    | 0.84987    | 0.92262    |   4.6 |  0.00
Neigh   | 676.96     | 690.79     | 707.07     |  48.1 |  0.81
Comm    | 2599.3     | 2866       | 3080.8     | 387.2 |  3.34
Output  | 25.136     | 25.143     | 25.162     |   0.2 |  0.03
Modify  | 59300      | 59308      | 59317      |   3.0 | 69.12
Other   |            | 21.94      |            |       |  0.03

Nlocal:            648 ave         660 max         636 min
Histogram: 1 0 1 0 0 0 0 1 0 1
Nghost:        4174.25 ave        4197 max        4159 min
Histogram: 1 1 0 0 1 0 0 0 0 1
Neighs:              0 ave           0 max           0 min
Histogram: 4 0 0 0 0 0 0 0 0 0
FullNghs:       162377 ave      167139 max      157162 min
Histogram: 1 0 1 0 0 0 0 0 1 1

Total # of neighbors = 649508
Ave neighs/atom = 250.58179
Ave special neighs/atom = 0
Neighbor list builds = 162460
Dangerous builds not checked
unfix 3
unfix 1
unfix 2


# Finalize simulation
write_restart	restart.lmp.${pid}
write_restart	restart.lmp.0
System init for write_restart ...
Generated 0 of 1 mixed pair_coeff terms from geometric mixing rule
write_data	data.final.${pid} nocoeff
write_data	data.final.0 nocoeff
System init for write_data ...
Generated 0 of 1 mixed pair_coeff terms from geometric mixing rule
Total wall time: 23:50:16
