LAMMPS (23 Jun 2022)
include procedure.lmp
echo both
include		in.partitions
variable        pid world 0
include		in.temp
variable	temperature equal 250
variable        tempDamp equal 0.100 # this is 0.1 ps
include		in.pressure
variable        pressure equal 3039.75
variable        pressureDamp equal 1.0 #this is 1ps

variable	barostat string	   tri
variable	direction string   z
variable	direction_x_bool equal 0
variable	direction_y_bool equal 0
variable	direction_z_bool equal 1

include		in.seed
variable        seed world 745823

units           metal
atom_style	full
box tilt large
read_restart 	restart.lmp.${pid}
read_restart 	restart.lmp.0
Reading restart file ...
  restart file = 23 Jun 2022, LAMMPS = 23 Jun 2022
  restoring atom style full from restart
  triclinic box = (0 0 -0.52814234) to (31.138 21.471905 32.723981) with tilt (-9.185133 -8.992087 10.747632)
WARNING: Triclinic box skew is large (../domain.cpp:224)
  2 by 1 by 2 MPI processor grid
Summary of lammps deepmd module ...
  >>> Info of deepmd-kit:
  installed to:       /u/sigbjobo/software/DEEPMD_FROM_SOURCE/deepmd-kit/install
  source:             v2.1.3
  source branch:       master
  source commit:      5a32c49
  source commit at:   2022-07-01 09:52:58 +0800
  surpport model ver.:1.1 
  build float prec:   double
  build with tf inc:  /u/sigbjobo/software/DEEPMD_FROM_SOURCE/tensorflow/install/include;/u/sigbjobo/software/DEEPMD_FROM_SOURCE/tensorflow/install/include
  build with tf lib:  /u/sigbjobo/software/DEEPMD_FROM_SOURCE/tensorflow/install/lib/libtensorflow_cc.so;/u/sigbjobo/software/DEEPMD_FROM_SOURCE/tensorflow/install/lib/libtensorflow_framework.so
  set tf intra_op_parallelism_threads: 0
  set tf inter_op_parallelism_threads: 0
  >>> Info of lammps module:
  use deepmd-kit at:  /u/sigbjobo/software/DEEPMD_FROM_SOURCE/deepmd-kit/install
  source:             v2.1.3
  source branch:      master
  source commit:      5a32c49
  source commit at:   2022-07-01 09:52:58 +0800
  build float prec:   double
  build with tf inc:  /u/sigbjobo/software/DEEPMD_FROM_SOURCE/tensorflow/install/include;/u/sigbjobo/software/DEEPMD_FROM_SOURCE/tensorflow/install/include
  build with tf lib:  /u/sigbjobo/software/DEEPMD_FROM_SOURCE/tensorflow/install/lib/libtensorflow_cc.so;/u/sigbjobo/software/DEEPMD_FROM_SOURCE/tensorflow/install/lib/libtensorflow_framework.so
  restoring pair style deepmd from restart
  2592 atoms
Finding 1-2 1-3 1-4 neighbors ...
  special bond factors lj:    0        0        0       
  special bond factors coul:  0        0        0       
     0 = max # of 1-2 neighbors
     0 = max # of 1-3 neighbors
     0 = max # of 1-4 neighbors
     1 = max # of special neighbors
  special bonds CPU = 0.000 seconds
  read_restart CPU = 0.041 seconds
include 	in.setup
variable	out_freq equal 2000
variable	out_freq2 equal 2000

timestep        0.0005

neigh_modify    delay 7 every 1

include         in.deepmd
# This is deepMD model

# create groups ###
#group ox type 2
#group hy type 1

mass 2 15.999
mass 1 1.008

pair_style      deepmd ../graph.pb
pair_coeff      * *

bond_style      none
angle_style     none
dihedral_style  none
improper_style  none
neigh_modify exclude none


neighbor        2.0 bin
neigh_modify    every 50 delay 0 check no

thermo          ${out_freq}
thermo          2000
thermo_style 	custom step temp pe etotal epair emol press lx ly lz vol pxx pyy pzz pxy pxz pyz

restart 	${out_freq} restart.lmp.${pid} restart2.lmp.${pid}
restart 	2000 restart.lmp.${pid} restart2.lmp.${pid}
restart 	2000 restart.lmp.0 restart2.lmp.${pid}
restart 	2000 restart.lmp.0 restart2.lmp.0


timer           timeout 23:50:00 every 1000
New timer settings: style=normal  mode=nosync  timeout=23:50:00


# Set number of time steps
variable 	nsteps_wall		equal	 6000000
variable 	nsteps_enhanced_coex    equal	300000000

variable     nsteps_enhanced_coex_upto equal (${nsteps_wall}+${nsteps_enhanced_coex})
variable     nsteps_enhanced_coex_upto equal (6000000+${nsteps_enhanced_coex})
variable     nsteps_enhanced_coex_upto equal (6000000+300000000)


# Set temperature for first step
if "$(step) < 1  " then    "velocity 	all create ${temperature} ${seed} dist gaussian"


# Always run thermo and barostat


######################################
# Run simulation with wall potential #
######################################
if " $(step) < ${nsteps_wall} " then    "fix             3 all plumed plumedfile plumed.equil.dat outfile plumed.equil.out"   "fix             1 all nph ${direction} ${pressure} ${pressure} ${pressureDamp}"   "fix             2 all temp/csvr ${temperature} ${temperature} ${tempDamp} ${seed}"   "run             ${nsteps_wall} upto"
if " $(step) == ${nsteps_wall} " then    "unfix 3"   "unfix 1"   "unfix 2"


############################
# Run enhanced coesistence #
############################
if "$(step) == ${nsteps_wall}" then    "fix             3 all plumed plumedfile plumed.start.dat outfile plumed.out" else    "fix             3 all plumed plumedfile plumed.dat outfile plumed.out"
fix             3 all plumed plumedfile plumed.dat outfile plumed.out

if "$(step) < ${nsteps_enhanced_coex_upto} && $(step) >= ${nsteps_wall} " then    "include         in.dump"    "fix             1 all nph ${direction} ${pressure} ${pressure} ${pressureDamp}"   "fix             2 all temp/csvr ${temperature} ${temperature} ${tempDamp} ${seed}"   "run             ${nsteps_enhanced_coex_upto} upto"    "unfix 3"   "unfix 1"   "unfix 2"
include         in.dump
dump            myDump all atom ${out_freq2} dump.water.${pid}
dump            myDump all atom 2000 dump.water.${pid}
dump            myDump all atom 2000 dump.water.0
dump            myDump2 all dcd ${out_freq2} dump.${pid}.dcd
dump            myDump2 all dcd 2000 dump.${pid}.dcd
dump            myDump2 all dcd 2000 dump.0.dcd
dump_modify     myDump append yes
dump_modify     myDump2 append yes

fix             1 all nph ${direction} ${pressure} ${pressure} ${pressureDamp}
fix             1 all nph z ${pressure} ${pressure} ${pressureDamp}
fix             1 all nph z 3039.75 ${pressure} ${pressureDamp}
fix             1 all nph z 3039.75 3039.75 ${pressureDamp}
fix             1 all nph z 3039.75 3039.75 1
fix             2 all temp/csvr ${temperature} ${temperature} ${tempDamp} ${seed}
fix             2 all temp/csvr 250 ${temperature} ${tempDamp} ${seed}
fix             2 all temp/csvr 250 250 ${tempDamp} ${seed}
fix             2 all temp/csvr 250 250 0.1 ${seed}
fix             2 all temp/csvr 250 250 0.1 745823
run             ${nsteps_enhanced_coex_upto} upto
run             306000000 upto

CITE-CITE-CITE-CITE-CITE-CITE-CITE-CITE-CITE-CITE-CITE-CITE-CITE

Your simulation uses code contributions which should be cited:

- USER-DEEPMD package:

@article{Wang_ComputPhysCommun_2018_v228_p178,
  author = {Wang, Han and Zhang, Linfeng and Han, Jiequn and E, Weinan},
  doi = {10.1016/j.cpc.2018.03.016},
  url = {https://doi.org/10.1016/j.cpc.2018.03.016},
  year = 2018,
  month = {jul},
  publisher = {Elsevier {BV}},
  volume = 228,
  journal = {Comput. Phys. Commun.},
  title = {{DeePMD-kit: A deep learning package for many-body potential energy representation and molecular dynamics}},
  pages = {178--184}
}

CITE-CITE-CITE-CITE-CITE-CITE-CITE-CITE-CITE-CITE-CITE-CITE-CITE

Generated 0 of 1 mixed pair_coeff terms from geometric mixing rule
Neighbor list info ...
  update every 50 steps, delay 0 steps, check no
  max neighbors/atom: 2000, page size: 100000
  master list distance cutoff = 8
  ghost atom cutoff = 8
  binsize = 4, bins = 13 9 9
  1 neighbor lists, perpetual/occasional/extra = 1 0 0
  (1) pair deepmd, perpetual
      attributes: full, newton on
      pair build: full/bin
      stencil: full/bin/3d
      bin: standard
Per MPI rank memory allocation (min/avg/max) = 6.231 | 6.231 | 6.232 Mbytes
   Step          Temp          PotEng         TotEng         E_pair         E_mol          Press            Lx             Ly             Lz           Volume          Pxx            Pyy            Pzz            Pxy            Pxz            Pyz      
 185665000   246.14556     -417.25661     -334.81925     -417.25661      0              3061.5973      31.138         21.471905      33.252124      22232.11       4633.3283      2716.7848      1834.6788     -84.179838     -233.76347     -293.97869    
 185666000   250.16731     -416.71869     -332.93439     -416.71589      0              2475.0415      31.138         21.471905      33.077681      22115.479      3247.1348      1962.0863      2215.9035      1541.6739     -40.794078     -708.75691    
 185668000   258.0902      -418.25574     -331.81796     -418.24477      0              3071.132       31.138         21.471905      32.870437      21976.917      2474.7941      3412.5032      3326.0985      1179.676       542.82288      715.96351    
 185670000   249.52811     -416.72262     -333.15241     -416.71059      0              2602.9933      31.138         21.471905      32.877506      21981.643      2727.3367      1969.8656      3111.7774      1002.7455     -340.44327      2355.9815    
 185672000   254.30755     -417.45622     -332.28531     -417.4425       0              3633.2462      31.138         21.471905      33.112818      22138.971      2761.6438      3481.562       4656.5328      1589.9072      812.00386     -1668.818     
 185674000   250.57253     -414.39403     -330.47402     -414.38052      0              2400.2301      31.138         21.471905      33.275882      22247.994      1632.7214      4338.5949      1229.3739      319.8991       1106.631      -898.95982    
 185676000   251.85641     -415.96949     -331.6195      -415.95513      0              3688.3946      31.138         21.471905      33.265753      22241.222      3822.4411      4076.5991      3166.1437     -459.03296      380.29943      1.905851     
 185678000   254.61453     -414.29707     -329.02334     -414.28239      0              2957.5994      31.138         21.471905      33.287126      22255.512      2524.3437      3642.8038      2705.6507      2212.5974      687.33634      1484.0063    
 185680000   250.0165      -416.50131     -332.76753     -416.4948       0              4410.7822      31.138         21.471905      33.105059      22133.783      4893.8365      5649.9191      2688.5911     -185.46664      521.2205      -820.51351    
 185682000   251.42496     -418.09696     -333.89146     -418.088        0              4089.3343      31.138         21.471905      33.176782      22181.737      3933.1029      3600.9404      4733.9596      142.9362       597.51548      665.61602    
 185684000   244.17852     -416.15134     -334.37277     -416.1402       0              2111.43        31.138         21.471905      33.234506      22220.331      3041.159       1370.0466      1923.0844     -690.39557     -687.88367      965.86218    
 185686000   245.45265     -418.71065     -336.50536     -418.70589      0              2771.4805      31.138         21.471905      33.345618      22294.619      3252.6024      1876.0168      3185.8223     -1059.2638      1804.9648      1407.0481    
 185688000   245.39344     -419.05586     -336.8704      -419.05213      0             -270.68677      31.138         21.471905      33.307285      22268.99      -639.22146      488.17533     -661.01417     -400.76107      1287.5214     -2893.3445    
 185690000   261.48859     -417.43773     -329.86179     -417.42526      0              5479.3342      31.138         21.471905      33.354822      22300.773      5108.1251      5626.9883      5702.8892      1691.1461      1232.6689     -580.29034    
 185692000   253.47236     -415.72862     -330.83742     -415.71293      0              694.20645      31.138         21.471905      33.443107      22359.8        1165.7765     -814.1437       1730.9865      59.814405      45.308088     -317.41592    
 185694000   243.29836     -415.62232     -334.13853     -415.60663      0              4024.3379      31.138         21.471905      33.353026      22299.573      4165.6963      4471.2645      3436.0528      13.618938     -322.50954      369.17715    
 185696000   259.39075     -416.04772     -329.17437     -416.03514      0              3461.4856      31.138         21.471905      33.335644      22287.951      3557.5302      3164.5927      3662.334      -1086.458      -299.83542      448.83069    
 185698000   252.42259     -415.73632     -331.19671     -415.72147      0              1790.3048      31.138         21.471905      33.290704      22257.904      2852.0041      1194.0365      1324.8739     -650.37989      850.80465      927.18301    
 185700000   250.51098     -419.71811     -335.81872     -419.712        0              3330.2478      31.138         21.471905      33.203229      22199.419      1860.8574      4656.2767      3473.6093     -429.24846      449.02972      258.08215    
 185702000   247.87512     -418.67242     -335.65581     -418.66092      0              2631.3005      31.138         21.471905      33.279403      22250.349      2166.6858      3267.7202      2459.4955     -298.88258      866.47862      596.7747     
 185704000   254.09301     -419.2735      -334.17444     -419.2592       0              1859.0796      31.138         21.471905      33.47776       22382.969      2042.5185      2613.3685      921.35168     -1164.9754      271.11499      1396.4327    
 185706000   241.02553     -416.59626     -335.87367     -416.58533      0              1483.1102      31.138         21.471905      33.214128      22206.706      1875.9435      2220.0997      353.28735      21.221669     -200.9887      -305.72931    
 185708000   250.53137     -416.51368     -332.60746     -416.49876      0              4159.1824      31.138         21.471905      33.210534      22204.303      2126.7351      4137.8092      6213.0029      1301.1158     -520.5277       233.67655    
 185710000   248.82254     -418.14305     -334.80913     -418.12849      0              4063.3611      31.138         21.471905      33.08566       22120.813      2875.9051      5066.4149      4247.7633      671.1565       113.56155     -823.23285    
 185712000   251.84557     -416.614       -332.26763     -416.60283      0              3990.3551      31.138         21.471905      33.500491      22398.166      3415.73        6339.1887      2216.1465      1293.8648      198.97394     -732.34227    
 185714000   252.98221     -414.05536     -329.32832     -414.0397       0              3626.7323      31.138         21.471905      33.335523      22287.87       3559.7584      3506.2905      3814.1479      422.51866     -1195.1183      1550.7706    
 185716000   258.67894     -414.97357     -328.33862     -414.96423      0              4476.8535      31.138         21.471905      33.177491      22182.211      4534.2678      4917.1066      3979.186       395.14126      41.44427      -1287.8683    
 185718000   252.73006     -418.21882     -333.57623     -418.20601      0              2158.4427      31.138         21.471905      33.25372       22233.177      1614.0658      1403.5154      3457.7469     -1057.1119      245.29497      317.72333    
 185720000   250.61534     -415.95609     -332.02175     -415.94003      0              1488.4227      31.138         21.471905      33.297778      22262.634      1259.7498      2493.3796      712.13874     -898.96249     -229.66354      911.06306    
 185722000   246.37781     -418.81618     -336.30103     -418.80144      0              1052.5819      31.138         21.471905      33.32409       22280.226      468.81012      705.16243      1983.7731      461.72311      1013.6303      1006.8697    
 185724000   253.10907     -417.39947     -332.62995     -417.38992      0              2080.6702      31.138         21.471905      33.260644      22237.806      1426.3153      1631.7197      3183.9758      119.863       -484.42677      302.37079    
 185726000   248.81068     -417.7353      -334.40536     -417.72311      0              3513.5339      31.138         21.471905      33.296285      22261.636      4236.0034      2105.4705      4199.1277      1201.365       577.13669      919.2882     
 185728000   252.69022     -414.9667      -330.33746     -414.95405      0              2629.6665      31.138         21.471905      33.411254      22338.503      3580.8136      3025.9909      1282.195      -1340.2458     -363.00886     -545.42718    
 185730000   237.0132      -416.73006     -337.35125     -416.72255      0              4816.4244      31.138         21.471905      33.217813      22209.17       7285.575       3142.1518      4021.5464     -976.69109     -209.84514      773.33944    
 185732000   256.06922     -418.65144     -332.89052     -418.6462       0              2801.7431      31.138         21.471905      33.281618      22251.83       3555.0175      3411.2201      1438.9918      1898.3897     -1572.4844      185.71017    
 185734000   245.02994     -417.71793     -335.65421     -417.70628      0              2648.2997      31.138         21.471905      33.371498      22311.923      1253.0833      3880.4107      2811.4051      1798.0169      868.17301     -2012.6211    
 185736000   249.30582     -419.31589     -335.82012     -419.31107      0              1884.365       31.138         21.471905      33.245877      22227.933      1750.7231      1915.1655      1987.2065      1346.1925      1134.6011      2165.5744    
 185738000   250.77149     -418.30999     -334.32335     -418.30225      0              2770.9176      31.138         21.471905      33.245427      22227.633      3356.8131      2135.9674      2819.9721     -443.99771      1167.3623     -880.25329    
 185740000   250.58063     -416.44565     -332.52293     -416.43583      0              5468.9197      31.138         21.471905      33.210371      22204.194      5250.6212      7060.8169      4095.3209      563.18361     -586.49857      1342.9406    
 185742000   246.57336     -419.41087     -336.83023     -419.40029      0              2315.046       31.138         21.471905      33.000525      22063.893      2240.7041      2021.0437      2683.3903      372.14402      415.73197      835.53185    
 185744000   247.8203      -419.98523     -336.98698     -419.98041      0              3211.6727      31.138         21.471905      33.21971       22210.439      3260.3276      3219.54        3155.1506      433.5445       716.15189      272.23374    
 185746000   244.93933     -417.82403     -335.79065     -417.81797      0              3320.7591      31.138         21.471905      33.202563      22198.974      3492.0734      3780.6212      2689.5829     -677.80706     -149.18329      1686.1956    
 185748000   254.03315     -417.7278      -332.64878     -417.71892      0              5395.2379      31.138         21.471905      33.120054      22143.809      3946.526       6885.4142      5353.7735      1957.4723     -1054.9091     -626.79234    
 185750000   252.14851     -417.77769     -333.32986     -417.7708       0              3731.7697      31.138         21.471905      33.188468      22189.55       3547.8939      3880.6533      3766.7619     -1672.404       79.867715     -746.40154    
 185752000   254.87849     -419.29309     -333.93096     -419.28098      0              4378.1352      31.138         21.471905      33.028545      22082.627      3338.4057      5985.2052      3810.7946      1705.4374      18.787926      218.81519    
 185754000   241.91176     -419.78122     -338.76182     -419.76681      0              4955.1019      31.138         21.471905      33.251183      22231.481      5085.443       4398.7853      5381.0773      12.656961      1435.7469      1318.9314    
 185756000   252.71088     -418.72882     -334.09266     -418.71422      0              3582.5548      31.138         21.471905      33.280799      22251.282      4531.2955      2915.2664      3301.1026     -1022.3997     -68.356431      110.16899    
 185758000   250.39959     -417.06442     -333.20233     -417.05233      0              1083.1027      31.138         21.471905      33.269205      22243.53       2273.1936      698.92753      277.18691      428.458        140.29319      1349.6402    
 185760000   245.16572     -417.22817     -335.11897     -417.21363      0              3073.8139      31.138         21.471905      33.448586      22363.463      2344.5877      3297.1803      3579.6736     -651.24388      1290.9853      1904.2479    
 185762000   246.17999     -416.64731     -334.19842     -416.63244      0              3226.7568      31.138         21.471905      33.356169      22301.674      3635.6268      2211.945       3832.6987     -199.99831      511.22866     -47.515535    
 185764000   250.14349     -417.19584     -333.41953     -417.18432      0              4021.0126      31.138         21.471905      33.261239      22238.204      4392.2324      3919.6395      3751.1658     -88.886565      788.14732      743.57498    
 185766000   250.02819     -415.85367     -332.11597     -415.83956      0              3030.2108      31.138         21.471905      33.171035      22177.894      4222.2562      3678.4058      1189.9705      260.43446      512.43177     -375.62897    
 185768000   250.87538     -417.92408     -333.90264     -417.9213       0              4560.8022      31.138         21.471905      33.107893      22135.678      3719.8898      5356.0551      4606.4618      32.04707       1381.6499      1026.8165    
 185770000   250.45817     -416.49424     -332.61253     -416.47936      0              3444.6316      31.138         21.471905      33.295836      22261.335      4138.2822      3332.3308      2863.2818     -37.43734      -450.93347      1536.0198    
 185772000   253.02537     -417.05018     -332.30868     -417.03628      0              2859.8079      31.138         21.471905      33.224155      22213.41       2221.3877      2847.7858      3510.2502     -589.73078      754.33053     -1965.6729    
 185774000   249.6408      -415.21111     -331.60316     -415.19914      0              706.36329      31.138         21.471905      33.360802      22304.771     -606.66157      1715.5689      1010.1825     -401.55322     -112.87004      342.92772    
 185776000   247.84175     -416.18451     -333.17908     -416.17192      0              3435.8186      31.138         21.471905      33.391907      22325.568      4095.4943      2539.7591      3672.2024     -2193.1149      107.33832      452.65054    
 185778000   256.91427     -419.5574      -333.51346     -419.5544       0              3695.2265      31.138         21.471905      33.308009      22269.474      4688.5057      3828.2958      2568.878      -473.46666     -1073.726       684.73429    
 185780000   249.26294     -414.87767     -331.39626     -414.86528      0              2950.2511      31.138         21.471905      33.37271       22312.733      2542.4775      2904.8407      3403.4352      458.28787     -330.37295     -31.1936      
 185782000   248.10814     -417.99452     -334.89987     -417.98105      0              1986.0312      31.138         21.471905      33.345045      22294.236      2313.7125      1059.3495      2585.0317      818.07673      72.754507      458.07084    
 185784000   253.7968      -416.07262     -331.07277     -416.06765      0              2814.5351      31.138         21.471905      33.388846      22323.521      2931.3898      3407.6293      2104.5862      346.85616      380.05067     -0.26804585   
 185786000   246.74656     -416.49875     -333.86011     -416.48631      0              2580.7092      31.138         21.471905      33.414708      22340.812      1447.2123      4336.0575      1958.8578      190.56151      596.6324      -545.0464     
 185788000   244.58172     -417.22654     -335.31293     -417.21577      0              3442.0833      31.138         21.471905      33.224515      22213.651      4958.6965      2691.6258      2675.9276      815.87654     -411.00391      361.02682    
 185790000   257.63867     -416.84924     -330.56269     -416.84839      0              3702.596       31.138         21.471905      33.102917      22132.352      3862.2842      1810.1027      5435.4011     -37.002996      530.82378     -164.65815    
 185792000   247.04257     -416.32159     -333.58381     -416.31874      0              2042.064       31.138         21.471905      33.306792      22268.661      2276.9793      2888.2384      960.97422     -924.31293      780.40542     -894.70861    
 185794000   250.37364     -417.01748     -333.16408     -417.00516      0              3896.5517      31.138         21.471905      33.355679      22301.346      4965.2909      4577.9929      2146.3714      1325.1155     -1563.0973     -897.17166    
 185796000   247.54379     -420.23958     -337.33394     -420.22764      0              2082.5812      31.138         21.471905      33.34549       22294.534      1027.8224      3320.1983      1899.7229      856.63608     -827.7731      -662.44597    
 185798000   252.97198     -415.89098     -331.16737     -415.87656      0              1286.2444      31.138         21.471905      33.639333      22490.995      1700.3394      392.63373      1765.7601     -310.38661     -410.31443      499.29286    
 185800000   247.67023     -417.14859     -334.2006      -417.13431      0              2921.7202      31.138         21.471905      33.53234       22419.46       4187.7276      1106.6556      3470.7775     -743.79508     -198.8428       907.94701    
 185802000   251.38883     -416.46253     -332.26913     -416.4497       0              4534.0399      31.138         21.471905      33.337665      22289.302      4493.3006      4583.5661      4525.2531      875.9791      -1483.2996     -1232.6132    
 185804000   243.16351     -419.61981     -338.18118     -419.60917      0              3881.7729      31.138         21.471905      33.473571      22380.168      2966.1429      5243.2175      3435.9585      530.46303      77.414281     -220.15582    
 185806000   249.61097     -416.41029     -332.81232     -416.39845      0              4713.831       31.138         21.471905      33.125025      22147.133      2758.8323      5374.7159      6007.9449      761.01026      1223.0313      464.25168    
 185808000   248.34522     -415.88699     -332.71294     -415.8733       0              2792.2283      31.138         21.471905      33.32464       22280.594      3187.7391      3160.9806      2027.9652      414.55382      230.11078      849.66869    
 185810000   251.74044     -417.659       -333.34785     -417.64722      0              3469.3052      31.138         21.471905      33.434732      22354.2        4108.2666      1362.5842      4937.0649     -143.72872      1858.9054      132.69461    
 185812000   244.77091     -417.48171     -335.50475     -417.46884      0              2932.757       31.138         21.471905      33.436489      22355.375      4060.6828      2401.0604      2336.5278      194.70529     -950.16151     -1811.5137    
 185814000   260.23202     -416.502       -329.3469      -416.49094      0              3074.8603      31.138         21.471905      33.276747      22248.573      5584.386       3196.6731      443.52163     -2031.1785     -384.59187     -353.87488    
 185816000   247.24293     -417.07016     -334.26529     -417.05599      0              3566.4049      31.138         21.471905      33.399726      22330.795      2193.9978      3413.0122      5092.2047     -537.53641      375.00928     -304.73246    
 185818000   248.75968     -419.06674     -335.75388     -419.05702      0              2050.7405      31.138         21.471905      33.401008      22331.653      387.0517       3180.4106      2584.7593      129.17805      1405.8775     -372.71713    
 185820000   250.89264     -416.92159     -332.89437     -416.91266      0              3722.9576      31.138         21.471905      33.328731      22283.329      3087.9604      4130.4486      3950.4639     -1638.589       612.896        192.56679    
 185822000   247.99541     -418.42166     -335.36476     -418.40605      0              2435.3548      31.138         21.471905      33.270862      22244.638      1575.5662      2897.6         2832.8981      910.28593     -1451.1156      1639.9801    
 185824000   252.35831     -417.28358     -332.76549     -417.26873      0              2559.952       31.138         21.471905      33.433753      22353.546     -83.505907      2687.6684      5075.6935      662.8897       252.4015       654.28764    
 185826000   242.91285     -417.6384      -336.28372     -417.62981      0              1353.5668      31.138         21.471905      33.383161      22319.72       1407.961       2491.3602      161.37926      920.09587     -137.70891      849.48516    
 185828000   248.50898     -418.66011     -335.43122     -418.64425      0              2645.1672      31.138         21.471905      33.40996       22337.638      3305.9555      3754.6408      874.9053       1422.6124      298.31837     -1203.0698    
 185830000   252.14775     -416.83015     -332.38258     -416.82065      0              3491.5794      31.138         21.471905      33.259694      22237.171      3889.5839      3313.5648      3271.5896      315.77947     -63.024684     -88.054654    
 185832000   241.65369     -420.59878     -339.66581     -420.59134      0              1466.7568      31.138         21.471905      33.481846      22385.7        2768.6531      2638.9978     -1007.3806      526.65548      149.52582     -296.22034    
 185834000   250.49205     -417.25654     -333.36349     -417.24079      0              3710.9484      31.138         21.471905      33.391546      22325.326      4293.4917      2989.7045      3849.6491      242.69534      397.87442      314.1246     
 185836000   246.86978     -420.24408     -337.56417     -420.23382      0              2026.3103      31.138         21.471905      33.432802      22352.91       2799.2703      1328.6943      1950.9663      193.39099     -492.22093      261.98496    
 185838000   250.74712     -417.40153     -333.42306     -417.39299      0              4293.8965      31.138         21.471905      33.327737      22282.664      3235.7368      5405.4384      4240.5142      1510.1934     -1576.4661      1734.3205    
 185840000   248.69966     -417.92537     -334.63262     -417.91576      0              1611.4478      31.138         21.471905      33.334813      22287.395      1451.983       749.39916      2632.9612     -444.4754      -1830.5874     -523.30255    
 185842000   246.00426     -417.83542     -335.44539     -417.82719      0              2234.5394      31.138         21.471905      33.466921      22375.722      2544.8075      3331.2448      827.566        513.10795     -2444.9756      465.57937    
 185844000   250.02375     -419.03425     -335.29803     -419.01981      0              3484.6845      31.138         21.471905      33.233808      22219.864      3268.9671      3985.6401      3199.4462      1219.2607      1016.169      -83.944733    
 185846000   245.23642     -417.75687     -335.624       -417.74153      0              3033.121       31.138         21.471905      33.290523      22257.783      1598.3052      4467.5653      3033.4924      1647.4366     -1677.1366      56.498432    
 185848000   255.45033     -418.70565     -333.152       -418.69636      0              2626.0754      31.138         21.471905      33.263645      22239.813      3164.7938      1240.8597      3472.5727      26.87937      -1572.4458     -1785.3625    
 185850000   243.11673     -416.59299     -335.17003     -416.5816       0              3000.226       31.138         21.471905      33.186229      22188.053      3080.9272      2273.4061      3646.3447     -1467.4527      452.41512     -545.16993    
 185852000   252.81545     -419.62227     -334.95108     -419.62211      0              3946.1763      31.138         21.471905      33.069228      22109.827      4585.4085      4507.9371      2745.1835      10.594292     -687.08332     -96.219037    
 185854000   243.18232     -418.22551     -336.78058     -418.21617      0              4719.6801      31.138         21.471905      33.091809      22124.925      5300.4458      5681.4058      3177.1887      1233.3266     -203.00489      497.883      
 185856000   254.96215     -417.55434     -332.1642      -417.54746      0              3920.9782      31.138         21.471905      33.073943      22112.979      4838.0655      4015.4096      2909.4596      450.88122     -513.50131     -1067.1644    
 185858000   249.35988     -416.75767     -333.24379     -416.74683      0              4228.8749      31.138         21.471905      33.150137      22163.923      5395.7432      4223.857       3067.0244      1021.745      -790.78115     -1136.4104    
 185860000   249.87538     -417.34315     -333.65663     -417.33074      0              3289.83        31.138         21.471905      33.184896      22187.162      4501.4055      3473.0091      1895.0755      1325.1453     -268.6647      -1968.6462    
 185862000   249.76765     -417.60116     -333.95072     -417.59875      0              3360.8527      31.138         21.471905      33.195745      22194.415      2665.1045      3107.2484      4310.2053      928.12381     -786.25673      242.9424     
 185864000   253.62107     -417.08084     -332.13984     -417.06947      0              2261.2226      31.138         21.471905      33.28639       22255.02       991.44582      3665.4736      2126.7484     -270.97579     -974.85794     -1892.1002    
 185866000   250.54898     -417.92653     -334.01441     -417.91397      0              4873.7867      31.138         21.471905      33.265458      22241.025      3977.6774      6195.7997      4447.8829      737.45982     -372.12733     -652.36684    
 185868000   247.54385     -422.22143     -339.31576     -422.21681      0              5240.5181      31.138         21.471905      32.879049      21982.675      5184.6147      4759.1136      5777.826      -1691.1708     -633.82513      153.72561    
 185870000   248.8785      -421.11172     -337.75906     -421.10579      0              4556.2399      31.138         21.471905      33.157209      22168.65       3712.342       3792.2144      6164.1634     -1073.9966     -188.64387     -1522.1523    
 185872000   249.58151     -418.05231     -334.46421     -418.0462       0              4866.5604      31.138         21.471905      33.111518      22138.102      3855.182       4627.4312      6117.068      -741.34053     -72.601885      234.46562    
 185874000   254.54465     -420.17247     -334.92215     -420.16158      0              4115.7033      31.138         21.471905      33.167433      22175.486      5186.2912      3717.0708      3443.7478     -2536.0891      48.97251      -1103.487     
 185876000   251.99055     -419.1071      -334.71218     -419.0922       0              2710.1204      31.138         21.471905      33.190569      22190.955      4513.4417      1648.3721      1968.5475     -1824.1638      783.76259      1144.0731    
 185878000   252.15486     -417.90181     -333.45186     -417.88685      0              4493.351       31.138         21.471905      33.29258       22259.159      6291.1259      3973.5558      3215.3712     -759.62764     -1969.8957      501.94293    
 185880000   243.23445     -420.40769     -338.9453      -420.40096      0              2375.5639      31.138         21.471905      33.233211      22219.465      3389.5465      3204.5253      532.61996      1359.8073      1115.7252     -1232.9447    
 185882000   251.97004     -416.22058     -331.83253     -416.20755      0              2756.4347      31.138         21.471905      33.345404      22294.476      3328.9004      3209.8598      1730.5439      576.28788      1232.1679     -448.64294    
 185884000   247.22601     -416.02216     -333.22295     -416.0057       0              1871.6521      31.138         21.471905      33.268764      22243.235      1799.3748      319.28191      3496.2996     -325.83344     -930.14009      249.43528    
 185886000   248.955       -416.29692     -332.91865     -416.2812       0              5702.8986      31.138         21.471905      33.283709      22253.227      5720.215       7079.969       4308.5117      25.437822      974.76315     -974.15667    
 185888000   258.25198     -418.21427     -331.72231     -418.19866      0              1998.8585      31.138         21.471905      33.399555      22330.681      1432.5478      1244.6498      3319.3779     -2105.7316     -133.5186      -540.01056    
 185890000   248.84563     -415.26527     -331.92362     -415.25122      0              2551.0904      31.138         21.471905      33.298878      22263.37       2857.6067      1485.5885      3310.076       2179.0335      831.93002     -190.6117     
 185892000   253.27325     -416.75633     -331.93182     -416.74106      0              4833.2406      31.138         21.471905      33.131402      22151.396      5780.24        3161.852       5557.6297      351.37056      771.19575     -264.06385    
 185894000   250.06218     -414.32013     -330.57105     -414.30554      0              3820.2558      31.138         21.471905      33.260455      22237.68       4388.3099      2833.522       4238.9356      57.069068     -314.73664     -327.28548    
 185896000   256.26674     -415.06487     -329.2378      -415.04849      0              2136.4612      31.138         21.471905      33.288494      22256.427      1772.5712      2343.9066      2292.9056      69.353852      292.01701      908.57449    
 185898000   253.23191     -416.03029     -331.21963     -416.01525      0              3469.8904      31.138         21.471905      33.266669      22241.834      3809.293       4544.205       2056.1732     -1455.4309     -1077.7817      727.32478    
 185900000   249.2804      -418.00845     -334.52119     -417.99281      0              1635.0897      31.138         21.471905      33.187306      22188.773      228.38201      318.63151      4358.2555      925.48037      54.479971      283.36377    
 185902000   246.57675     -415.63929     -333.05753     -415.62284      0              4665.6552      31.138         21.471905      33.084204      22119.84       3447.1035      5525.4907      5024.3714      574.35562      2.6757872      650.69127    
 185904000   252.15581     -418.64228     -334.19201     -418.63097      0              2974.3017      31.138         21.471905      33.171605      22178.276      6749.6007      946.86127      1226.4431     -700.03925     -1131.1185      20.263138    
 185906000   249.52102     -415.8336      -332.26576     -415.81937      0              614.30632      31.138         21.471905      33.127324      22148.669      98.736359      972.80827      771.37434     -870.09321      253.92731     -52.263103    
 185908000   249.94507     -414.36902     -330.65916     -414.35514      0              3970.8558      31.138         21.471905      33.298004      22262.785      2840.3722      3986.9637      5085.2314      733.65285      2647.0394      167.35155    
 185910000   252.95221     -413.47047     -328.75348     -413.45542      0              2528.5722      31.138         21.471905      33.399641      22330.739      2996.2521      2587.7554      2001.7091     -670.97161      1384.6331     -1202.9762    
 185912000   256.56734     -416.8542      -330.92646     -416.84025      0              3460.5464      31.138         21.471905      33.382953      22319.581      3424.5578      3212.2916      3744.7897      1246.7207     -172.54161      143.29181    
 185914000   246.98222     -416.65694     -333.93937     -416.64096      0              2858.6051      31.138         21.471905      33.285016      22254.101      4394.5844      2247.1347      1934.096      -289.39639      657.0287      -146.01309    
 185916000   257.68352     -416.51        -330.20843     -416.49427      0              3661.6324      31.138         21.471905      33.369391      22310.514      4018.733       3454.8104      3511.354       700.28689      1023.391       670.20747    
 185918000   249.59591     -417.82994     -334.23702     -417.81536      0              3443.9868      31.138         21.471905      33.355083      22300.948      4011.2136      3461.2197      2859.527      -186.1933       213.52047     -120.56818    
 185920000   250.19902     -416.92291     -333.128       -416.90786      0              2731.7229      31.138         21.471905      33.304491      22267.122      2248.2614      3650.7312      2296.1761     -667.31622      862.06683      99.17902     
 185922000   253.50943     -418.72129     -333.81768     -418.70699      0              3843.7271      31.138         21.471905      33.548919      22430.545      4513.5515      4749.7717      2267.8583      405.29442      123.06505     -420.62375    
 185924000   250.2345      -419.39707     -335.59028     -419.38146      0              1242.5799      31.138         21.471905      33.509035      22403.879      2549.8515      925.08205      252.8061       1382.4055      92.520369      863.10464    
 185926000   248.32795     -417.29238     -334.12411     -417.27712      0              4127.5681      31.138         21.471905      33.340889      22291.458      3969.8023      4541.8682      3871.0338      1227.2432     -260.32667     -264.0904     
 185928000   256.51898     -414.86721     -328.95566     -414.85395      0              4827.902       31.138         21.471905      33.488591      22390.21       5205.0849      4121.1619      5157.4591     -382.16796      490.35781     -472.33154    
 185930000   250.95623     -418.54005     -334.49154     -418.52562      0              3213.3757      31.138         21.471905      33.141339      22158.04       2368.8988      3851.1727      3420.0556      1194.1022      175.09182     -805.75602    
 185932000   253.47746     -414.77817     -329.88526     -414.76346      0              3149.3101      31.138         21.471905      33.371506      22311.928      3745.7169      3620.3956      2081.8178      603.42884     -1108.9573     -264.62985    
 185934000   247.80958     -418.79829     -335.80363     -418.78305      0              3338.9991      31.138         21.471905      33.305078      22267.515      3822.0564      4152.2886      2042.6523      53.444676     -695.41995     -2581.5819    
 185936000   248.16442     -418.98307     -335.86958     -418.96853      0              3277.6659      31.138         21.471905      33.350989      22298.21       3958.9248      3403.5767      2470.4961     -1527.4902      273.54431      161.84986    
 185938000   255.15754     -417.06743     -331.61185     -417.05337      0              2497.2564      31.138         21.471905      33.297994      22262.778      2784.3971      372.23916      4335.1329     -1537.594      -715.79333      111.33562    
 185940000   248.54343     -414.24936     -331.00892     -414.23292      0              3048.868       31.138         21.471905      33.418263      22343.189      2504.1451      3825.4515      2817.0073      466.08379     -261.31175      1316.8893    
 185942000   251.74901     -416.65913     -332.34511     -416.64419      0              3832.4178      31.138         21.471905      33.313776      22273.33       3926.6044      5437.7423      2132.9067      1243.5479      15.956634      357.4511     
 185944000   256.1393      -415.65727     -329.87288     -415.64247      0              3995.5738      31.138         21.471905      33.482117      22385.881      4554.3784      3812.3403      3620.0028      627.95711     -895.46249      204.3691     
 185946000   250.59886     -416.42422     -332.4954      -416.4083       0              2351.9709      31.138         21.471905      33.659789      22504.672      1338.4781      3054.855       2662.5795      173.71615     -152.72495      740.65482    
 185948000   251.21505     -415.41353     -331.27833     -415.39759      0              2477.3051      31.138         21.471905      33.512019      22405.874      645.7316       3818.2182      2967.9654     -150.02125      1770.9203      392.61794    
 185950000   247.94696     -415.07699     -332.03632     -415.06055      0              1838.7832      31.138         21.471905      33.552283      22432.794      2079.6942      2954.9342      481.72116     -399.07359     -285.57948     -2597.5183    
 185952000   246.16384     -416.92184     -334.47836     -416.90624      0              2889.5202      31.138         21.471905      33.41974       22344.177      3854.5656      1877.161       2936.8339      320.74887     -424.47555     -441.8461     
 185954000   251.86032     -414.80348     -330.45218     -414.78704      0              3250.537       31.138         21.471905      33.463118      22373.179      4667.2758      2148.0575      2936.2775      1748.5163      747.11676     -1691.1282    
 185956000   255.02646     -414.98609     -329.57441     -414.9704       0              5238.7891      31.138         21.471905      33.32994       22284.137      6384.7852      3662.3566      5669.2254      706.22965      769.49776      123.38376    
 185958000   251.71937     -419.42108     -335.11698     -419.40629      0              4381.1383      31.138         21.471905      33.301093      22264.85       3363.1143      4464.5986      5315.7021      1482.1847      1190.7996     -1188.6478    
 185960000   255.8148      -415.09888     -329.42317     -415.08355      0              1797.3825      31.138         21.471905      33.370464      22311.231      187.29316      1541.2753      3663.5791      600.42145      189.06985     -940.75557    
 185962000   248.35562     -418.17576     -334.99823     -418.16291      0              3237.8389      31.138         21.471905      33.531469      22418.878      1591.4021      5992.0402      2130.0743      1104.728      -714.26999     -1389.8439    
 185964000   248.74178     -417.9563      -334.64944     -417.94207      0              3420.6981      31.138         21.471905      33.360913      22304.845      4542.536       2615.3167      3104.2414      1018.8742      121.86124      871.20755    
 185966000   250.24371     -416.38329     -332.57341     -416.36816      0              1887.3675      31.138         21.471905      33.42213       22345.774      2110.868       1596.2937      1954.9408      2098.4234     -111.69901     -96.379872    
 185968000   243.52539     -416.06036     -334.50053     -416.04554      0              2135.5211      31.138         21.471905      33.266699      22241.855      3346.7162      1023.4281      2036.4192      221.90709     -241.91018     -742.50379    
 185970000   250.06302     -416.89247     -333.14311     -416.87654      0              2386.9122      31.138         21.471905      33.360309      22304.442      2221.5871      3746.6124      1192.5372      1119.562       1120.1339     -339.66623    
 185972000   248.86242     -415.7098      -332.36253     -415.69449      0              1829.1043      31.138         21.471905      33.361529      22305.257      2309.5558      1540.1404      1637.6167     -1952.7948      807.66171      1869.0043    
 185974000   248.92595     -417.57985     -334.21131     -417.5657       0              3935.9804      31.138         21.471905      33.315258      22274.321      4660.5206      3524.0408      3623.3797     -813.66135      623.40926     -317.33818    
 185976000   251.23737     -415.49033     -331.34765     -415.47526      0              2587.3636      31.138         21.471905      33.453734      22366.905      2235.7351      2716.2729      2810.0828     -391.02102      692.73977      1942.4297    
 185978000   248.22089     -417.95784     -334.82543     -417.94288      0              1116.686       31.138         21.471905      33.361297      22305.102      378.1666       2363.4034      608.48796      459.9531       265.99828     -971.75123    
 185980000   247.99897     -416.7783      -333.72021     -416.76627      0              2795.5287      31.138         21.471905      33.261207      22238.183      3410.3564      4571.5102      404.71959     -485.3437       593.13655     -459.88557    
 185982000   254.28586     -418.96916     -333.80551     -418.95431      0              4143.8329      31.138         21.471905      33.252622      22232.443      5906.8566      3855.3971      2669.245       736.69873     -299.70786     -836.60959    
 185984000   254.42734     -415.23788     -330.02685     -415.22426      0              2334.8725      31.138         21.471905      33.404645      22334.085      3415.8917      2620.4265      968.29922     -633.93357     -1616.4413      511.24616    
 185986000   251.44989     -418.27559     -334.06175     -418.26095      0              1586.6551      31.138         21.471905      33.460736      22371.586      1977.7798      545.94999      2236.2355      667.56833      635.92548     -1334.6817    
 185988000   255.04996     -416.53516     -331.1156      -416.51929      0              2366.9747      31.138         21.471905      33.439348      22357.287      3042.9875      2228.5663      1829.3703      700.54961      452.98364     -79.650446    
 185990000   253.89621     -415.38701     -330.35385     -415.37194      0              1464.7799      31.138         21.471905      33.392981      22326.286      577.65903      342.8113       3473.8695      27.701007     -1273.8557     -802.41099    
 185992000   246.82566     -414.84463     -332.1795      -414.83079      0              3553.2163      31.138         21.471905      33.50179       22399.035      3578.0857      3936.2035      3145.3597     -129.09288      1497.2824     -1886.0818    
 185994000   247.01612     -415.89026     -333.16134     -415.87593      0              1684.7682      31.138         21.471905      33.389748      22324.124      2209.1261      3112.5168     -267.33824      1024.6695      272.15865      404.6723     
 185996000   246.56212     -415.49039     -332.91352     -415.47622      0              2430.7932      31.138         21.471905      33.429549      22350.735      1196.201       2859.5817      3236.5967      1500.0039      26.722634     -597.54109    
 185998000   259.53417     -417.67047     -330.74909     -417.65473      0              2660.7581      31.138         21.471905      33.421706      22345.491      2993.7982      2001.8051      2986.671      -902.42062      25.721443     -462.79409    
 186000000   246.55565     -418.45204     -335.87734     -418.44584      0              2258.2357      31.138         21.471905      33.222621      22212.384      1024.9335      3697.1238      2052.6498      428.37086     -84.370225     -893.74426    
 186002000   254.3092      -416.98919     -331.81773     -416.97373      0              3291.6029      31.138         21.471905      33.337177      22288.976      2602.1898      2635.6285      4636.9905      296.39743      96.612705     -728.28606    
 186004000   253.11823     -415.51253     -330.73993     -415.4983       0              3303.0383      31.138         21.471905      33.240363      22224.247      2154.4885      3489.6594      4264.9671     -1245.6019      223.16765      618.3972     
 186006000   250.50882     -415.54341     -331.64474     -415.52745      0              4593.7712      31.138         21.471905      33.322871      22279.411      3822.0686      3931.5578      6027.6873      710.86731      794.19689      878.8826     
 186008000   245.54877     -416.54322     -334.30574     -416.52707      0              1125.2663      31.138         21.471905      33.443807      22360.268      1545.4505      751.97905      1078.3694      67.959714      47.153189      1088.9465    
 186010000   248.81644     -416.66815     -333.33628     -416.65798      0              2967.2822      31.138         21.471905      33.194771      22193.764      3210.9063      2241.9074      3449.033       568.47638      1137.8917      410.2184     
 186012000   248.24291     -416.8608      -333.72101     -416.84529      0              4165.4432      31.138         21.471905      33.391622      22325.377      3304.4666      5562.0453      3629.8178     -112.47786     -154.29231     -1049.754     
 186014000   247.81848     -418.16116     -335.16352     -418.14677      0              3276.9108      31.138         21.471905      33.265736      22241.211      2346.2862      3706.6219      3777.8242     -516.09374     -109.12848      344.9434     
 186016000   246.77555     -414.16858     -331.52023     -414.15326      0              2312.3287      31.138         21.471905      33.436601      22355.45       2420.4997      2870.3121      1646.1742      861.42026      429.63432     -1328.7648    
 186018000   236.0782      -414.82511     -335.75944     -414.80966      0              2600.0689      31.138         21.471905      33.440613      22358.132      2180.5768      4693.6449      925.9849      -1340.3083      349.7914      -1091.6204    
 186020000   253.00833     -415.23832     -330.50253     -415.22369      0              2346.1148      31.138         21.471905      33.330998      22284.845      2432.0371      2167.2765      2439.0306     -901.72186      41.959081     -2566.7984    
 186022000   248.9292      -413.57932     -330.20969     -413.56481      0              1672.3389      31.138         21.471905      33.480118      22384.545      1042.6263      2887.4249      1086.9653      2159.6946     -210.30987     -637.10859    
 186024000   253.12052     -415.4936      -330.72024     -415.47924      0              3649.32        31.138         21.471905      33.498458      22396.807      2574.76        3941.3337      4431.8663      669.26649      944.06895     -224.1715     
 186026000   254.6954      -417.21986     -331.91905     -417.20627      0              2346.6551      31.138         21.471905      33.277659      22249.182     -104.91519      4695.4493      2449.4312      637.87433     -541.38523      129.29899    
 186028000   250.25394     -415.94262     -332.12931     -415.92978      0              4767.3356      31.138         21.471905      33.223366      22212.883      2889.3409      4894.3433      6518.3227     -251.64348     -12.821701      80.078338    
 186030000   249.40831     -414.42836     -330.89827     -414.41411      0              4061.1393      31.138         21.471905      33.299356      22263.689      5299.4334      4509.7098      2374.2748     -589.35603     -1849.7742     -978.77932    
 186032000   243.11306     -414.80187     -333.38013     -414.78604      0              2194.5909      31.138         21.471905      33.334625      22287.27      -252.58607      2188.7045      4647.6541      1719.5126      1075.7601     -1171.2091    
 186034000   247.73693     -415.92268     -332.95235     -415.90838      0              4324.6468      31.138         21.471905      33.219837      22210.523      3065.7611      3433.1233      6475.0559      875.02923      172.04834      2253.3122    
 186036000   242.74629     -417.08259     -335.78369     -417.06923      0              2563.3713      31.138         21.471905      33.399092      22330.371      2910.2574      1513.0803      3266.7762     -1014.6021      561.31467     -193.86542    
 186038000   239.02114     -417.82019     -337.76889     -417.80989      0              2376.4775      31.138         21.471905      33.422649      22346.121      1588.4657      4142.2574      1398.7095     -159.09768      15.284786      1187.1883    
 186040000   248.4439      -413.95711     -330.75001     -413.94169      0              3382.0591      31.138         21.471905      33.592588      22459.741      3368.4634      2682.1599      4095.554      -468.41433      522.91285      1411.7493    
 186042000   247.28533     -417.25499     -334.43591     -417.2422       0              2697.777       31.138         21.471905      33.341461      22291.84       865.01863      4134.6416      3093.6708     -235.49964      503.36715      219.54601    
 186044000   249.09026     -415.51144     -332.08787     -415.49901      0              3048.3051      31.138         21.471905      33.391242      22325.123      3135.0709      4155.3775      1854.4668     -787.9014      -115.31185     -815.23957    
 186046000   246.03505     -414.67878     -332.27843     -414.66248      0              2915.2881      31.138         21.471905      33.47761       22382.868      1277.9194      3256.998       4210.947       191.0321       296.89822      381.65212    
 186048000   256.32929     -414.94743     -329.09941     -414.93297      0              2441.9316      31.138         21.471905      33.429415      22350.645      1765.6264      3192.4843      2367.684      -925.63342     -550.73144     -92.957518    
 186050000   245.01401     -417.0689      -335.01052     -417.06199      0              1954.8877      31.138         21.471905      33.234292      22220.187      2152.8602      2645.7873      1066.0154     -562.68013      833.20831      287.55118    
 186052000   249.77026     -416.25928     -332.60797     -416.24447      0              3421.8434      31.138         21.471905      33.156799      22168.377      3046.9451      3360.8181      3857.7671      385.92559      401.57494      1267.839     
 186054000   245.77041     -418.20995     -335.89824     -418.20337      0              1649.079       31.138         21.471905      33.222964      22212.614      2259.1478      364.05756      2324.0315     -1201.3538      332.05498      2222.3238    
 186056000   247.07416     -416.03111     -333.28276     -416.01801      0              1439.0001      31.138         21.471905      33.071318      22111.225      376.12326      1665.0744      2275.8025      1659.5309      415.90817     -4.665532     
 186058000   254.0951      -417.05321     -331.95345     -417.04122      0              3244.2904      31.138         21.471905      32.996131      22060.955      3429.9559      3656.019       2646.8963     -134.37936     -789.91917     -1138.7494    
 186060000   250.97613     -416.85682     -332.80165     -416.84663      0              4701.4617      31.138         21.471905      33.175849      22181.113      4724.6063      4605.1295      4774.6494      3065.6616      613.19144     -291.94692    
 186062000   247.72727     -418.03442     -335.06732     -418.02282      0              1731.5421      31.138         21.471905      33.171546      22178.236      2436.9427      1675.6596      1082.024       18.864451     -411.39209      262.13673    
 186064000   240.26917     -419.8721      -339.40282     -419.8633       0              3843.0938      31.138         21.471905      33.131646      22151.559      3970.3705      4481.8187      3077.0922      740.51141      997.87404     -900.40886    
 186066000   254.91548     -419.15726     -333.78274     -419.14256      0              3748.0422      31.138         21.471905      33.193492      22192.909      3766.3398      4257.839       3219.9476     -166.78462     -168.70379     -743.21245    
 186068000   249.65155     -417.21584     -333.60428     -417.20188      0              2213.1318      31.138         21.471905      33.165826      22174.412      3851.8125      1409.9575      1377.6255     -328.73548     -1822.0168      486.63864    
 186070000   248.98438     -417.41422     -334.0261      -417.39941      0              1716.6591      31.138         21.471905      33.19398       22193.235      1520.045       2374.3105      1255.6217      941.75343     -849.01957      1637.8859    
 186072000   250.56378     -418.64197     -334.7249      -418.63306      0              4226.3983      31.138         21.471905      33.283333      22252.976      3351.5188      5761.3113      3566.3648     -147.65751      195.37832     -432.6641     
 186074000   252.91934     -415.62496     -330.91898     -415.61009      0              1926.2512      31.138         21.471905      33.393908      22326.906      974.81903      1415.5256      3388.4089      2018.5499     -663.40372     -979.1542     
 186076000   252.88226     -415.0229      -330.32933     -415.00697      0              3060.0609      31.138         21.471905      33.265213      22240.861      3864.4278      2976.1229      2339.6321      712.59574     -1217.8617     -1659.0093    
 186078000   246.70319     -418.65424     -336.03013     -418.63942      0              1511.9526      31.138         21.471905      33.418234      22343.17       2839.038       542.91832      1153.9015      971.42161      436.85521     -496.97129    
 186080000   248.95529     -417.98597     -334.6076      -417.97034      0              1264.0112      31.138         21.471905      33.401364      22331.891      3104.5488     -25.445266      712.93         378.40965      371.87595     -455.16483    
 186082000   253.14306     -417.15182     -332.37091     -417.13751      0              3760.5255      31.138         21.471905      33.284994      22254.087      4399.8436      2311.5416      4570.1914     -278.20101     -247.79864     -179.93271    
 186084000   254.75188     -415.07987     -329.76015     -415.06357      0              2713.065       31.138         21.471905      33.38679       22322.147      3742.1439      2485.5703      1911.4808     -1078.1888     -80.699253     -1880.1142    
 186086000   252.64186     -415.55649     -330.94344     -415.54067      0              2559.6055      31.138         21.471905      33.139691      22156.938      2771.8667      1461.3868      3445.5631     -500.75032      761.44601     -1173.4745    
 186088000   248.51198     -413.43719     -330.20729     -413.42089      0              5517.0304      31.138         21.471905      33.223201      22212.772      5416.2345      5374.6641      5760.1925     -123.76823     -1357.4274      44.702881    
 186090000   253.02853     -416.50056     -331.75801     -416.4862       0              4352.7376      31.138         21.471905      33.084025      22119.721      5043.6215      3620.2962      4394.295       832.61554     -1046.8491      233.14667    
 186092000   252.16179     -421.12057     -336.6683      -421.10578      0              1482.6962      31.138         21.471905      33.155171      22167.288      1431.6482      1618.531       1397.9095      1510.7622      699.03504      762.76481    
 186094000   249.47675     -416.62578     -333.07277     -416.61144      0              4309.7236      31.138         21.471905      33.304986      22267.453      5242.4029      3749.6452      3937.1227     -1302.7758      143.55818      400.81958    
 186096000   249.29525     -417.40587     -333.91364     -417.39421      0              1990.0584      31.138         21.471905      33.405562      22334.698      1133.9079      2933.8402      1902.427       823.83758     -882.03937      201.77159    
 186098000   248.4152      -416.79042     -333.59293     -416.77404      0              3265.8701      31.138         21.471905      33.347866      22296.123      2914.9527      4742.4182      2140.2393     -1379.7709      904.47348     -1399.9277    
 186100000   249.36393     -418.54074     -335.02551     -418.52576      0              3344.4444      31.138         21.471905      33.454901      22367.685      2431.9553      4585.802       3015.5759     -603.63385     -203.75304      621.24163    
 186102000   251.29759     -419.13604     -334.97321     -419.12177      0              1236.1842      31.138         21.471905      33.320236      22277.649      1494.9092      1479.4276      734.21583     -836.55311      1290.7771     -1357.7516    
 186104000   248.48442     -413.41898     -330.19831     -413.40264      0              1378.1738      31.138         21.471905      33.376288      22315.125      791.67628      2745.266       597.57914     -51.268518     -269.45423     -654.71017    
 186106000   242.81944     -418.36948     -337.04609     -418.35342      0              3705.137       31.138         21.471905      33.244134      22226.768      3078.5122      2144.1116      5892.7872     -313.73207      519.4472       1239.541     
 186108000   250.23689     -416.51874     -332.71114     -416.50373      0              1936.3156      31.138         21.471905      33.235597      22221.06       3167.871       861.1986       1779.8773     -994.60416     -385.43055     -128.03203    
 186110000   246.11998     -417.0366      -334.60781     -417.02086      0              4526.7347      31.138         21.471905      33.131327      22151.346      3766.043       6426.6718      3387.4894      316.39971     -33.972221      404.07079    
 186112000   249.10859     -414.33693     -330.90722     -414.32057      0              4286.4629      31.138         21.471905      33.282161      22252.193      5624.2808      4278.1051      2957.0026      863.39935     -1038.3232     -2354.6174    
 186114000   245.72387     -417.61928     -335.32316     -417.60289      0              2166.1086      31.138         21.471905      33.336037      22288.213      2044.0263      2210.5468      2243.7528     -1923.2151      284.24938     -1465.373     
 186116000   246.54975     -419.98571     -337.41299     -419.97055      0              2587.8481      31.138         21.471905      33.248522      22229.702      3640.8536      2477.6733      1645.0175      347.61724     -313.6376      -976.35188    
 186118000   245.2929      -416.30452     -334.15273     -416.28813      0              1852.2374      31.138         21.471905      33.171738      22178.364      2152.6745      1739.2035      1664.8344     -995.07128      298.083        701.29668    
 186120000   253.05828     -413.97655     -329.22403     -413.96015      0              4571.1869      31.138         21.471905      33.263761      22239.89       4718.9516      4716.5973      4278.0117     -272.47233     -533.02418     -571.6649     
 186122000   247.22607     -417.50051     -334.70127     -417.48423      0              2130.3207      31.138         21.471905      33.41597       22341.656      2536.396       2119.5083      1735.0579     -737.40457     -553.43837      1574.5177    
 186124000   244.36035     -415.21652     -333.37706     -415.20177      0              3841.506       31.138         21.471905      33.294232      22260.263      3027.2366      3964.4202      4532.8613     -517.11032      256.46695     -420.61159    
 186126000   247.89433     -413.95964     -330.9366      -413.94389      0              3028.0686      31.138         21.471905      33.498428      22396.787      4484.4092      1763.5784      2836.2184     -762.72589     -1097.2484     -1345.1911    
 186128000   253.65483     -416.0888      -331.13649     -416.07261      0              3585.2961      31.138         21.471905      33.451067      22365.122      4250.0772      2277.006       4228.805       1358.5703      445.86924      960.43468    
 186130000   248.77487     -414.16817     -330.85023     -414.15339      0              3514.646       31.138         21.471905      33.599215      22464.173      2950.2835      4161.0949      3432.5598      1485.5927     -905.52815      283.64853    
 186132000   265.5185      -415.69395     -326.76834     -415.67807      0              3325.2436      31.138         21.471905      33.313526      22273.163      2658.1544      3740.3092      3577.2671     -1193.0943      451.46068     -635.46847    
 186134000   250.66622     -414.34943     -330.39804     -414.33316      0              1395.2865      31.138         21.471905      33.459123      22370.508      56.499633      3350.9682      778.39163      917.60889     -45.039782      1113.8227    
 186136000   254.79243     -414.30436     -328.97106     -414.28822      0              4012.5597      31.138         21.471905      33.240192      22224.132      5196.8124      1749.9362      5090.9304     -55.640849     -588.77917      1580.1447    
 186138000   245.16208     -413.04392     -330.93594     -413.02868      0              2594.4794      31.138         21.471905      33.261559      22238.418      2356.572       2249.9033      3176.9628     -873.30719      9.3349189     -185.30522    
 186140000   247.94131     -413.9489      -330.91012     -413.93249      0              3899.7863      31.138         21.471905      33.210672      22204.396      2819.1687      4172.5108      4707.6794      308.06505     -842.94204     -220.57541    
 186142000   251.02622     -414.96001     -330.88806     -414.9438       0              3192.7846      31.138         21.471905      33.444768      22360.91       1415.437       3323.1441      4839.7728      1131.0831     -267.37777     -158.93812    
 186144000   249.786       -416.38061     -332.72403     -416.36529      0              4179.2333      31.138         21.471905      33.308375      22269.719      2739.4652      4950.0104      4848.2243      714.81393      183.85687      152.90253    
 186146000   248.10991     -417.28406     -334.18882     -417.26812      0              4100.1704      31.138         21.471905      33.507705      22402.989      5575.1097      2886.6736      3838.7278      1706.7402      592.58633      268.54445    
 186148000   246.23817     -414.78599     -332.31762     -414.7702       0              3031.6249      31.138         21.471905      33.384299      22320.481      2414.6606      2344.4466      4335.7676      1235.1917      1404.51        419.96964    
 186150000   247.55105     -412.44269     -329.53461     -412.42688      0              2269.735       31.138         21.471905      33.41145       22338.634      3157.8196      1003.0517      2648.3338     -759.01686      737.79193      451.53282    
 186152000   246.27274     -415.16952     -332.68957     -415.15469      0              1224.7323      31.138         21.471905      33.424454      22347.328      1174.9362      1706.5556      792.70514     -1248.2505      627.06721     -296.30578    
 186154000   247.29328     -414.4948      -331.67305     -414.48261      0              3289.8046      31.138         21.471905      33.387135      22322.377      2769.9569      4024.1535      3075.3034      1871.1573     -242.10202      267.3487     
 186156000   250.56824     -412.01167     -328.0931      -411.99544      0              2601.8277      31.138         21.471905      33.478457      22383.434      3468.6193      2375.659       1961.2048      404.55204      130.27567      460.58151    
 186158000   244.63252     -416.19278     -334.26216     -416.17653      0              4860.7027      31.138         21.471905      33.376771      22315.448      3139.6286      4824.9626      6617.517       990.83921      397.70394     -1728.2066    
 186160000   248.34689     -414.49981     -331.3252      -414.48368      0              2427.0138      31.138         21.471905      33.334864      22287.429      3233.9819      340.31816      3706.7413     -1045.7892     -84.504746     -2581.8371    
 186162000   246.59584     -417.38857     -334.80041     -417.37258      0              3992.3797      31.138         21.471905      33.425681      22348.149      3564.6906      3570.9179      4841.5305     -577.85709     -365.10944     -237.39904    
 186164000   252.33846     -414.20742     -329.69598     -414.19165      0              804.12933      31.138         21.471905      33.471875      22379.034      2244.1939      1755.9017     -1587.7076      1656.7469     -302.73538      54.578931    
 186166000   261.20195     -416.1157      -328.63577     -416.09969      0              2515.4434      31.138         21.471905      33.610907      22471.989      2397.7856      3583.096       1565.4486     -486.07974     -793.12079     -1592.8793    
 186168000   246.30546     -415.41697     -332.92606     -415.40163      0              1277.321       31.138         21.471905      33.508751      22403.689      2331.3874     -1422.5212      2923.0968      1710.6125      733.88559      383.07506    
 186170000   248.68476     -415.1401      -331.85233     -415.12526      0              4030.3275      31.138         21.471905      33.36744       22309.21       2911.7398      4498.1444      4681.0981      1125.6586      813.41378     -556.35204    
 186172000   243.43678     -415.24759     -333.71744     -415.23248      0              1929.5353      31.138         21.471905      33.537972      22423.226      2248.4424      1596.7436      1943.4199      1374.1251      817.17845      783.59768    
 186174000   254.92484     -415.2198      -329.84215     -415.204        0              2831.9575      31.138         21.471905      33.732731      22553.44       2489.4691      3182.9367      2823.4665     -75.448507      606.34704     -1034.9972    
 186176000   247.50709     -415.48003     -332.58668     -415.46498      0              4629.5612      31.138         21.471905      33.604357      22467.611      5043.9055      4746.3128      4098.4655      484.14253     -666.83899      121.47663    
 186178000   248.23577     -415.53192     -332.39453     -415.5172       0              1709.0089      31.138         21.471905      33.514403      22407.467      1601.5287      2932.1005      593.39761      453.13507     -16.67703      -1673.2874    
 186180000   244.28907     -415.33001     -333.51441     -415.31446      0              2098.7506      31.138         21.471905      33.547341      22429.49       2081.0061      1966.2724      2248.9733     -1075.2029     -1476.9384     -170.58182    
 186182000   254.14819     -414.47219     -329.35464     -414.45629      0              1462.7836      31.138         21.471905      33.437694      22356.18       1025.8731      1882.0155      1480.462      -964.05239     -1851.1423      349.91248    
 186184000   250.22794     -415.97655     -332.17195     -415.96031      0              4517.2717      31.138         21.471905      33.52756       22416.264      3118.8063      5437.4676      4995.5412      12.312558     -929.43231     -120.68393    
 186186000   247.77661     -414.78368     -331.80006     -414.7687       0              3579.2418      31.138         21.471905      33.558581      22437.005      3548.3334      3564.5091      3624.8828      1561.4257      932.74671      863.16233    
 186188000   247.83941     -413.95242     -330.94777     -413.93746      0              3233.476       31.138         21.471905      33.523387      22413.475      3018.5556      2881.4562      3800.4162      439.45878     -86.145439      1798.6672    
 186190000   244.87103     -414.43933     -332.42882     -414.42312      0              2286.1951      31.138         21.471905      33.405696      22334.787      2665.2514      2498.4443      1694.8896     -167.72199      295.10496      834.04621    
 186192000   252.21496     -414.0685      -329.59842     -414.05312      0              4480.1761      31.138         21.471905      33.42842       22349.98       4302.9733      4338.1204      4799.4345      1780.8772     -278.79637      372.13909    
 186194000   248.03556     -415.02109     -331.95075     -415.00634      0              554.7348       31.138         21.471905      33.368479      22309.904      1185.4908      396.90501      81.80862      -348.05559      1859.5326      167.19036    
 186196000   252.61729     -415.05772     -330.4529      -415.04187      0              3646.4961      31.138         21.471905      33.483363      22386.715      907.94482      4604.4087      5427.1349     -1776.4943      3850.4023     -786.13751    
 186198000   247.01791     -419.72768     -336.99816     -419.71187      0              3312.1471      31.138         21.471905      33.159346      22170.079      2095.2685      3464.8013      4376.3714     -1238.4809      454.06585      526.79123    
 186200000   241.31401     -414.40789     -333.58869     -414.39208      0              3723.4058      31.138         21.471905      33.313409      22273.085      3268.9762      4585.6414      3315.5997     -186.73728      1984.3505      849.97703    
 186202000   254.18136     -413.43296     -328.30431     -413.4166       0              2815.1687      31.138         21.471905      33.150756      22164.336      2707.1174      3092.4479      2645.9407     -838.97983      607.93155      70.086828    
 186204000   257.02537     -415.20269     -329.12154     -415.18686      0              5004.8101      31.138         21.471905      33.196945      22195.217      5905.2021      5088.8869      4020.3414     -450.55262     -1506.1587     -904.82001    
 186206000   248.73823     -412.69276     -329.38709     -412.67679      0              499.31197      31.138         21.471905      33.354321      22300.438      1452.0473      536.17935     -490.29074      250.8909       170.01857      1088.2402    
 186208000   242.77315     -414.32053     -333.01264     -414.30486      0              2202.4523      31.138         21.471905      33.186403      22188.169      2902.4178      669.51008      3035.4289      1333.9788      895.81353     -181.46055    
 186210000   251.60656     -412.37619     -328.10988     -412.36116      0              2193.6125      31.138         21.471905      33.438943      22357.016      2700.7258      3301.5216      578.58997     -505.05442      945.75631      134.48106    
 186212000   253.71587     -415.8155      -330.84274     -415.79929      0              4151.2941      31.138         21.471905      33.278026      22249.428      3959.4893      4822.2393      3672.1536     -11.819856      204.39999      109.33603    
 186214000   256.3497      -414.25284     -328.39798     -414.23646      0              4150.1637      31.138         21.471905      33.150572      22164.213      2268.8955      5928.7189      4252.8766     -588.05386     -349.90472      766.65125    
 186216000   253.0096      -415.35727     -330.62105     -415.34104      0              857.55491      31.138         21.471905      33.404018      22333.665      739.64649     -997.95891      2830.9771     -161.97475      1071.5626     -1145.8085    
 186218000   246.95544     -414.28271     -331.57412     -414.26696      0              1100.2277      31.138         21.471905      33.423492      22346.685      1762.3726      12.864918      1525.4455      1773.9752     -1149.5239      368.12749    
 186220000   249.23843     -415.13545     -331.66225     -415.11915      0              5855.0658      31.138         21.471905      33.29752       22262.461      6309.539       5712.3862      5543.2721     -134.27672     -612.78134      234.46883    
 186222000   248.96643     -413.98375     -330.60165     -413.96851      0              2470.7769      31.138         21.471905      33.37069       22311.382      1806.2792      3900.1382      1705.9135     -438.84738     -1329.7886      229.6419     
 186224000   245.35815     -415.86354     -333.6899      -415.84819      0              5216.3227      31.138         21.471905      33.524605      22414.289      3969.0031      6067.9241      5612.0408      1218.5697      211.2393       646.32603    
 186226000   250.2629      -413.3651      -329.5488      -413.34912      0              3347.9279      31.138         21.471905      33.442943      22359.69       5421.0193      2047.0652      2575.6992      58.83499       1097.9372     -670.44262    
 186228000   253.85523     -415.13364     -330.11421     -415.11892      0              2745.4543      31.138         21.471905      33.41038       22337.918      3304.1274      2393.8745      2538.3611     -1135.7229     -760.08399      333.35289    
 186230000   250.64755     -414.47493     -330.5298      -414.45902      0              2891.8945      31.138         21.471905      33.387168      22322.4        4073.0458      2933.9652      1668.6725      1906.7519     -910.5608       962.45226    
 186232000   252.94459     -417.59308     -332.87864     -417.57833      0              3981.1166      31.138         21.471905      33.470099      22377.846      4351.3854      5738.4865      1853.478      -977.46918      582.58357     -629.25245    
[...]
 193670000   244.25221     -416.95593     -335.15268     -416.94233      0              2757.1043      31.138         21.471905      33.527245      22416.054      2288.5288      2828.0235      3154.7606      627.37359      371.91551      637.10653    
 193672000   243.25107     -416.69719     -335.22924     -416.6856       0              3503.5668      31.138         21.471905      33.570536      22444.998      4776.0729      3190.6283      2543.9993     -1333.8018      832.10601     -849.71379    
 193674000   254.15914     -415.63877     -330.51756     -415.62398      0              2427.7342      31.138         21.471905      33.527278      22416.076      3620.8044      1749.6761      1912.7221      454.92393     -478.05451      202.01052    
 193676000   244.10753     -419.57972     -337.82493     -419.56654      0              3502.4466      31.138         21.471905      33.487451      22389.448      2473.6676      3889.1354      4144.537       162.39368     -88.84007      -1719.053     
 193678000   248.1896      -415.86553     -332.7436      -415.85056      0              2208.3017      31.138         21.471905      33.545326      22428.143      1859.6892      2472.8414      2292.3746     -337.90171     -506.09139      82.973758    
 193680000   251.71166     -417.07735     -332.77583     -417.06453      0              4598.8972      31.138         21.471905      33.416425      22341.96       5416.3511      3453.2702      4927.0702     -139.82873     -1385.6848     -711.90686    
 193682000   252.15864     -418.38342     -333.93221     -418.37022      0              3950.8462      31.138         21.471905      33.28964       22257.193      3040.5628      4659.3756      4152.6002     -861.68813     -1945.7789     -103.88003    
 193684000   249.01184     -415.09902     -331.70171     -415.08489      0              3648.2291      31.138         21.471905      33.465776      22374.956      4237.7728      2930.6274      3776.2871     -1409.8243     -806.17898     -99.723243    
 193686000   244.51001     -415.149       -333.25941     -415.13579      0              4935.8265      31.138         21.471905      33.285365      22254.335      5495.6398      6377.3265      2934.5133     -1710.7192     -859.80717     -741.17095    
 193688000   243.6975      -417.84192     -336.22445     -417.83163      0              3222.2573      31.138         21.471905      33.359257      22303.738      4815.4941      2564.9417      2286.3362     -752.81481     -1361.9149     -631.94709    
 193690000   252.35883     -419.06636     -334.5481      -419.05607      0              1971.2789      31.138         21.471905      33.605453      22468.343      1516.0369      846.72651      3551.0732      800.65709      576.73501      85.515187    
 193692000   246.82666     -417.2858      -334.62033     -417.2735       0              128.71243      31.138         21.471905      33.389346      22323.856     -105.82073      2181.9128     -1689.9548      610.8099      -577.96443     -384.34806    
 193694000   256.69135     -416.87586     -330.90658     -416.86284      0              3798.6196      31.138         21.471905      33.452416      22366.024      5631.3813      3593.0791      2171.3983     -1685.0363     -25.179313     -655.40468    
 193696000   243.87223     -419.14638     -337.47039     -419.14367      0              5024.4735      31.138         21.471905      33.394422      22327.249      5472.1566      4242.9694      5358.2946      131.91208     -360.49373      896.90521    
 193698000   251.49504     -419.16863     -334.93966     -419.16351      0              2113.6208      31.138         21.471905      33.609419      22470.995      2155.5262      1463.7939      2721.5423     -737.86946     -937.94226      700.13396    
 193700000   254.05995     -415.96272     -330.87473     -415.95051      0              2080.0884      31.138         21.471905      33.625331      22481.633      1622.8578      1485.1772      3132.2301     -1765.1573      3241.2193     -1686.466     
 193702000   257.65148     -416.95063     -330.65979     -416.941        0              3134.3592      31.138         21.471905      33.576358      22448.891      2819.6203      2728.6502      3854.8072     -1568.2037      132.58177      1293.2902    
 193704000   241.99379     -417.26165     -336.21478     -417.25348      0              2240.8809      31.138         21.471905      33.7008        22532.091      1475.7879      1394.8454      3852.0093      1451.8898     -1245.7862      257.75825    
 193706000   258.4452      -417.10494     -330.54827     -417.09331      0              3343.4714      31.138         21.471905      33.485917      22388.422      2959.9508      3409.6602      3660.8032     -2019.571      -236.23478     -1469.7934    
 193708000   250.50266     -419.08699     -335.19038     -419.08154      0              1734.9564      31.138         21.471905      33.407154      22335.762      1323.688       4126.1326     -244.95131      402.8257      -2140.7925     -23.75068     
 193710000   247.30887     -419.29752     -336.47056     -419.29457      0              3932.5913      31.138         21.471905      33.366788      22308.773      4726.0593      4957.9578      2113.7568      417.61312     -550.17429     -290.51187    
 193712000   250.85205     -416.8993      -332.88568     -416.89876      0              4312.1903      31.138         21.471905      33.523774      22413.733      4856.0744      4018.988       4061.5084     -969.70964      262.48426     -969.46171    
 193714000   247.6124      -417.59154     -334.66291     -417.58234      0              3966.0313      31.138         21.471905      33.461226      22371.914      3776.4177      4663.4684      3458.208      -703.42293     -1310.4605     -1737.3707    
 193716000   252.57962     -416.91967     -332.32746     -416.91674      0              3535.0582      31.138         21.471905      33.281726      22251.901      3650.7199      2565.3869      4389.0679      1392.7063     -193.05751     -782.24264    
 193718000   240.46578     -416.58136     -336.04624     -416.57048      0              2330.4241      31.138         21.471905      33.573352      22446.881      2787.5998      2673.3999      1530.2727      962.91828     -190.73421      338.87035    
 193720000   258.09247     -416.77854     -330.34        -416.76668      0              3720.3527      31.138         21.471905      33.527213      22416.032      4016.3689      2404.1405      4740.5487      16.020789     -149.50684     -592.30767    
 193722000   252.26715     -415.18953     -330.70197     -415.177        0              5579.4236      31.138         21.471905      33.394951      22327.603      3786.7218      6217.2509      6734.2983     -892.96492      130.03733     -818.12057    
 193724000   251.85634     -417.16266     -332.81268     -417.15547      0              3001.4192      31.138         21.471905      33.313203      22272.947      2985.9699      3674.2272      2344.0606     -534.65722     -71.861092     -253.11193    
 193726000   247.6002      -416.8391      -333.91457     -416.82779      0              2111.4829      31.138         21.471905      33.536574      22422.291      2442.7841      2304.2396      1587.4248     -362.74121      1095.0582     -331.0734     
 193728000   245.50126     -415.66966     -333.44809     -415.65888      0              3556.4721      31.138         21.471905      33.485629      22388.23       4583.9647      3161.996       2923.4557      1087.123       1818.8057     -745.15429    
 193730000   247.38512     -417.57833     -334.72583     -417.56706      0              2572.4067      31.138         21.471905      33.318606      22276.559      1147.7117      2260.793       4308.7153      149.76744     -0.35977022    -329.7654     
 193732000   253.0075      -416.27796     -331.54244     -416.26617      0              3500.8777      31.138         21.471905      33.371119      22311.669      3378.8751      4496.5203      2627.2377      507.09794      1115.1113      945.82932    
 193734000   251.14255     -417.29525     -333.18434     -417.28761      0              3133.2608      31.138         21.471905      33.250128      22230.776      4127.1665      2171.5167      3101.0993     -124.37178     -458.00367      647.97291    
 193736000   252.33503     -417.80747     -333.29718     -417.8021       0              3664.2903      31.138         21.471905      33.292227      22258.923      3971.2662      2692.3752      4329.2295     -388.61443      121.00533      1235.1099    
 193738000   257.88019     -414.36118     -327.99375     -414.34662      0              3904.7933      31.138         21.471905      33.505045      22401.211      5934.1004      3548.868       2231.4116     -23.689481     -1317.938       529.75218    
 193740000   255.90489     -420.447       -334.74111     -420.43527      0              2018.0883      31.138         21.471905      33.386685      22322.077      917.50978      3197.1397      1939.6154     -187.38733      1543.8811     -273.97226    
 193742000   247.51721     -414.37668     -331.47994     -414.36728      0              3074.1137      31.138         21.471905      33.341741      22292.027      1631.6955      2242.2812      5348.3643      1455.1389     -2088.0946      50.817299    
 193744000   254.52823     -414.78582     -329.541       -414.77488      0              3848.108       31.138         21.471905      33.227442      22215.608      3451.9925      4334.2932      3758.0383     -572.87981     -129.81603     -968.55879    
 193746000   239.77842     -416.22939     -335.92447     -416.22156      0              4713.7626      31.138         21.471905      33.267111      22242.13       4311.0008      4556.1161      5274.171      -15.207008     -747.15047      280.68832    
 193748000   250.73429     -416.79221     -332.81802     -416.77892      0              1952.9552      31.138         21.471905      33.483102      22386.54       1775.9271      2426.9777      1655.9609      1078.3967     -1215.5614     -1324.3026    
 193750000   244.44268     -416.02027     -334.15323     -416.01335      0              5393.0578      31.138         21.471905      33.400075      22331.029      4853.0874      6035.552       5290.534      -334.9433      -887.85259      553.79619    
 193752000   246.7778      -415.68244     -333.03334     -415.67176      0              3199.1207      31.138         21.471905      33.423252      22346.525      4373.4286      3400.8317      1823.1018     -1047.2529     -1221.6755     -736.90389    
 193754000   250.08858     -413.148       -329.39008     -413.13422      0              2600.1924      31.138         21.471905      33.471421      22378.73       3478.9041      2094.3376      2227.3355      293.77578     -202.02174     -377.05308    
 193756000   249.86962     -416.82398     -333.13938     -416.81225      0              4908.5446      31.138         21.471905      33.275665      22247.849      5671.4403      3581.4174      5472.7761     -1458.2255     -185.80914     -438.77546    
 193758000   249.44793     -414.28376     -330.7404      -414.26929      0              2083.5266      31.138         21.471905      33.40896       22336.97       3557.1894      1117.7967      1575.5937      737.59983     -636.51197     -49.076673    
 193760000   259.79624     -412.50273     -325.49358     -412.49062      0              2458.2076      31.138         21.471905      33.483596      22386.871      3390.9816      2066.0708      1917.5704      307.79066      2105.2782     -964.11863    
 193762000   251.68715     -415.32363     -331.03033     -415.31052      0              3175.7293      31.138         21.471905      33.488398      22390.081      1746.7466      3004.701       4775.7403     -455.00186      1741.4399     -299.59558    
 193764000   243.12313     -413.48059     -332.05548     -413.46628      0              3649.5677      31.138         21.471905      33.671004      22512.17       1698.8596      4720.7221      4529.1215     -1139.7001      392.10282     -323.04851    
 193766000   245.66865     -414.3849      -332.10727     -414.36955      0              2868.6623      31.138         21.471905      33.497883      22396.423      2546.2081      4299.5539      1760.225       1132.8196     -1624.4908      83.972216    
 193768000   245.58273     -413.91596     -331.6671      -413.90117      0              3198.3786      31.138         21.471905      33.691082      22525.594      2095.8974      4374.3447      3124.8937      1306.3783     -325.66356     -1293.4913    
 193770000   251.39239     -416.91952     -332.72493     -416.91642      0              1659.2324      31.138         21.471905      33.597275      22462.875      2331.0401     -291.33809      2937.9952     -1889.6609      831.61564     -1646.2065    
 193772000   251.33777     -417.1552      -332.97891     -417.14008      0              1841.1126      31.138         21.471905      33.56401       22440.634      305.70132      2425.9115      2791.725       3018.9554      2254.6864     -315.86863    
 193774000   250.2854      -416.78722     -332.96337     -416.77421      0              3735.253       31.138         21.471905      33.71535       22541.819      3360.5817      4398.0463      3447.1309      2334.18       -1151.5997     -1017.6572    
 193776000   243.10874     -417.15236     -335.73208     -417.13833      0              3094.3742      31.138         21.471905      33.565516      22441.641      2727.1111      3764.8154      2791.196      -230.65234      801.64938     -906.27544    
 193778000   254.78479     -420.28774     -334.95699     -420.2799       0              2268.0558      31.138         21.471905      33.524884      22414.475      2114.3632      3710.9301      978.87404      201.56664      1971.3705     -1165.9185    
 193780000   247.87809     -418.00893     -334.99133     -418.00138      0              3839.3274      31.138         21.471905      33.440094      22357.785      2556.4293      4679.8335      4281.7193      312.28991      184.09375     -334.38119    
 193782000   254.03217     -413.7679      -328.68921     -413.75729      0              3628.7977      31.138         21.471905      33.303536      22266.483      2979.983       4958.5182      2947.8917      593.47766      113.3854      -996.04433    
 193784000   249.41403     -414.80752     -331.27551     -414.79441      0              1950.6092      31.138         21.471905      33.536922      22422.524      1652.1988      2943.2606      1256.3683      114.10719     -749.64089      1795.1409    
 193786000   258.05252     -415.96027     -329.53512     -415.94768      0              3714.7735      31.138         21.471905      33.468543      22376.806      2902.7356      3914.511       4327.0737     -179.13541      634.75372     -1365.1652    
 193788000   246.26072     -416.5113      -334.03538     -416.50032      0              4876.196       31.138         21.471905      33.310718      22271.285      3603.1451      6038.3832      4987.0596     -355.83446      374.32843      839.74435    
 193790000   247.77877     -417.44932     -334.46498     -417.43513      0              2335.2966      31.138         21.471905      33.56023       22438.107      3140.5439      658.83446      3206.5113      22.804579      27.949289     -1272.4217    
 193792000   247.25041     -420.40323     -337.59585     -420.39185      0              3346.6429      31.138         21.471905      33.217387      22208.885      3713.8871      3066.4664      3259.5751      375.67854     -3.8716222     -615.62837    
 193794000   251.02917     -417.21888     -333.14594     -417.20997      0              2523.135       31.138         21.471905      33.529114      22417.303      3704.6609      2665.4115      1199.3326      1023.2595     -4.3597101      377.09019    
 193796000   248.58567     -415.37617     -332.12159     -415.36378      0              3007.5495      31.138         21.471905      33.563813      22440.503      4229.5802      3011.7833      1781.285      -679.85435      175.70913     -1738.3005    
 193798000   250.23564     -418.1685      -334.36133     -418.15371      0              2292.9062      31.138         21.471905      33.764487      22574.672      2549.802       3023.0597      1305.8569     -154.27332      1443.3028     -728.62573    
 193800000   258.08945     -418.10388     -331.66636     -418.09511      0              3096.8415      31.138         21.471905      33.44708       22362.456      4661.6024      1527.7387      3101.1834     -917.11455     -137.59867     -1091.9527    
 193802000   252.39243     -417.59816     -333.06865     -417.58549      0              2603.6216      31.138         21.471905      33.299783      22263.974      1863.7685      3972.4151      1974.6812      851.67461      390.65566      672.02087    
 193804000   250.39059     -418.72326     -334.86419     -418.71044      0              5298.4691      31.138         21.471905      33.230047      22217.35       5308.515       4698.5043      5888.388      -2839.2125      156.52114      983.56311    
 193806000   247.92081     -417.20307     -334.17117     -417.19562      0              3709.0584      31.138         21.471905      33.350801      22298.084      3556.3627      4632.7529      2938.0596      822.59293      1333.2283     -928.89602    
 193808000   242.09301     -418.22856     -337.14846     -418.21421      0              2768.2325      31.138         21.471905      33.595241      22461.516      3652.8056      1901.2371      2750.6548     -154.27563      1430.8033      133.26581    
 193810000   252.9537      -416.21218     -331.49469     -416.19918      0              4211.1667      31.138         21.471905      33.286886      22255.352      3566.5944      3612.683       5454.2227     -912.33706     -2156.3604      1273.2309    
 193812000   246.16861     -415.55245     -333.10737     -415.53828      0              2723.9844      31.138         21.471905      33.502087      22399.233      1075.5875      3511.9103      3584.4555      1010.8303      411.83856      32.575257    
WARNING: Wall time limit reached (../timer.cpp:193)
Loop time of 85805.7 on 4 procs for 8148000 steps with 2592 atoms

Performance: 4.102 ns/day, 5.850 hours/ns, 94.959 timesteps/s
1552.0% CPU use with 4 MPI tasks x no OpenMP threads

MPI task timing breakdown:
Section |  min time  |  avg time  |  max time  |%varavg| %total
---------------------------------------------------------------
Pair    | 22660      | 22875      | 23068      |  95.8 | 26.66
Bond    | 0.76125    | 0.78977    | 0.82822    |   2.8 |  0.00
Neigh   | 680.71     | 698.57     | 722.6      |  65.6 |  0.81
Comm    | 2547.5     | 2744.2     | 2970       | 288.3 |  3.20
Output  | 24.768     | 24.78      | 24.816     |   0.4 |  0.03
Modify  | 59434      | 59440      | 59445      |   2.0 | 69.27
Other   |            | 22.4       |            |       |  0.03

Nlocal:            648 ave         672 max         630 min
Histogram: 1 1 0 0 0 1 0 0 0 1
Nghost:           4173 ave        4218 max        4123 min
Histogram: 1 0 0 0 0 2 0 0 0 1
Neighs:              0 ave           0 max           0 min
Histogram: 4 0 0 0 0 0 0 0 0 0
FullNghs:       161508 ave      171043 max      153776 min
Histogram: 1 1 0 0 0 0 1 0 0 1

Total # of neighbors = 646034
Ave neighs/atom = 249.24151
Ave special neighs/atom = 0
Neighbor list builds = 162960
Dangerous builds not checked
unfix 3
unfix 1
unfix 2


# Finalize simulation
write_restart	restart.lmp.${pid}
write_restart	restart.lmp.0
System init for write_restart ...
Generated 0 of 1 mixed pair_coeff terms from geometric mixing rule
write_data	data.final.${pid} nocoeff
write_data	data.final.0 nocoeff
System init for write_data ...
Generated 0 of 1 mixed pair_coeff terms from geometric mixing rule
Total wall time: 23:50:22
