LAMMPS (23 Jun 2022)
include procedure.lmp
echo both
include		in.partitions
variable        pid world 0
include		in.temp
variable	temperature equal 250
variable        tempDamp equal 0.100 # this is 0.1 ps
include		in.pressure
variable        pressure equal 3039.75
variable        pressureDamp equal 1.0 #this is 1ps

variable	barostat string	   tri
variable	direction string   z
variable	direction_x_bool equal 0
variable	direction_y_bool equal 0
variable	direction_z_bool equal 1

include		in.seed
variable        seed world 745823

units           metal
atom_style	full
box tilt large
read_restart 	restart.lmp.${pid}
read_restart 	restart.lmp.0
Reading restart file ...
  restart file = 23 Jun 2022, LAMMPS = 23 Jun 2022
  restoring atom style full from restart
  triclinic box = (0 0 -0.51281617) to (31.138 21.471905 32.708655) with tilt (-9.185133 -8.983798 10.737724)
WARNING: Triclinic box skew is large (../domain.cpp:224)
  2 by 1 by 2 MPI processor grid
Summary of lammps deepmd module ...
  >>> Info of deepmd-kit:
  installed to:       /u/sigbjobo/software/DEEPMD_FROM_SOURCE/deepmd-kit/install
  source:             v2.1.3
  source branch:       master
  source commit:      5a32c49
  source commit at:   2022-07-01 09:52:58 +0800
  surpport model ver.:1.1 
  build float prec:   double
  build with tf inc:  /u/sigbjobo/software/DEEPMD_FROM_SOURCE/tensorflow/install/include;/u/sigbjobo/software/DEEPMD_FROM_SOURCE/tensorflow/install/include
  build with tf lib:  /u/sigbjobo/software/DEEPMD_FROM_SOURCE/tensorflow/install/lib/libtensorflow_cc.so;/u/sigbjobo/software/DEEPMD_FROM_SOURCE/tensorflow/install/lib/libtensorflow_framework.so
  set tf intra_op_parallelism_threads: 0
  set tf inter_op_parallelism_threads: 0
  >>> Info of lammps module:
  use deepmd-kit at:  /u/sigbjobo/software/DEEPMD_FROM_SOURCE/deepmd-kit/install
  source:             v2.1.3
  source branch:      master
  source commit:      5a32c49
  source commit at:   2022-07-01 09:52:58 +0800
  build float prec:   double
  build with tf inc:  /u/sigbjobo/software/DEEPMD_FROM_SOURCE/tensorflow/install/include;/u/sigbjobo/software/DEEPMD_FROM_SOURCE/tensorflow/install/include
  build with tf lib:  /u/sigbjobo/software/DEEPMD_FROM_SOURCE/tensorflow/install/lib/libtensorflow_cc.so;/u/sigbjobo/software/DEEPMD_FROM_SOURCE/tensorflow/install/lib/libtensorflow_framework.so
  restoring pair style deepmd from restart
  2592 atoms
Finding 1-2 1-3 1-4 neighbors ...
  special bond factors lj:    0        0        0       
  special bond factors coul:  0        0        0       
     0 = max # of 1-2 neighbors
     0 = max # of 1-3 neighbors
     0 = max # of 1-4 neighbors
     1 = max # of special neighbors
  special bonds CPU = 0.001 seconds
  read_restart CPU = 0.052 seconds
include 	in.setup
variable	out_freq equal 2000
variable	out_freq2 equal 2000

timestep        0.0005

neigh_modify    delay 7 every 1

include         in.deepmd
# This is deepMD model

# create groups ###
#group ox type 2
#group hy type 1

mass 2 15.999
mass 1 1.008

pair_style      deepmd ../graph.pb
pair_coeff      * *

bond_style      none
angle_style     none
dihedral_style  none
improper_style  none
neigh_modify exclude none


neighbor        2.0 bin
neigh_modify    every 50 delay 0 check no

thermo          ${out_freq}
thermo          2000
thermo_style 	custom step temp pe etotal epair emol press lx ly lz vol pxx pyy pzz pxy pxz pyz

restart 	${out_freq} restart.lmp.${pid} restart2.lmp.${pid}
restart 	2000 restart.lmp.${pid} restart2.lmp.${pid}
restart 	2000 restart.lmp.0 restart2.lmp.${pid}
restart 	2000 restart.lmp.0 restart2.lmp.0


timer           timeout 23:50:00 every 1000
New timer settings: style=normal  mode=nosync  timeout=23:50:00


# Set number of time steps
variable 	nsteps_wall		equal	 6000000
variable 	nsteps_enhanced_coex    equal	100000000

variable     nsteps_enhanced_coex_upto equal (${nsteps_wall}+${nsteps_enhanced_coex})
variable     nsteps_enhanced_coex_upto equal (6000000+${nsteps_enhanced_coex})
variable     nsteps_enhanced_coex_upto equal (6000000+100000000)


# Set temperature for first step
if "$(step) < 1  " then    "velocity 	all create ${temperature} ${seed} dist gaussian"


# Always run thermo and barostat


######################################
# Run simulation with wall potential #
######################################
if " $(step) < ${nsteps_wall} " then    "fix             3 all plumed plumedfile plumed.equil.dat outfile plumed.equil.out"   "fix             1 all nph ${direction} ${pressure} ${pressure} ${pressureDamp}"   "fix             2 all temp/csvr ${temperature} ${temperature} ${tempDamp} ${seed}"   "run             ${nsteps_wall} upto"
if " $(step) == ${nsteps_wall} " then    "unfix 3"   "unfix 1"   "unfix 2"


############################
# Run enhanced coesistence #
############################
if "$(step) == ${nsteps_wall}" then    "fix             3 all plumed plumedfile plumed.start.dat outfile plumed.out" else    "fix             3 all plumed plumedfile plumed.dat outfile plumed.out"
fix             3 all plumed plumedfile plumed.dat outfile plumed.out

if "$(step) < ${nsteps_enhanced_coex_upto} && $(step) >= ${nsteps_wall} " then    "include         in.dump"    "fix             1 all nph ${direction} ${pressure} ${pressure} ${pressureDamp}"   "fix             2 all temp/csvr ${temperature} ${temperature} ${tempDamp} ${seed}"   "run             ${nsteps_enhanced_coex_upto} upto"    "unfix 3"   "unfix 1"   "unfix 2"
include         in.dump
dump            myDump all atom ${out_freq2} dump.water.${pid}
dump            myDump all atom 2000 dump.water.${pid}
dump            myDump all atom 2000 dump.water.0
dump            myDump2 all dcd ${out_freq2} dump.${pid}.dcd
dump            myDump2 all dcd 2000 dump.${pid}.dcd
dump            myDump2 all dcd 2000 dump.0.dcd
dump_modify     myDump append yes
dump_modify     myDump2 append yes

fix             1 all nph ${direction} ${pressure} ${pressure} ${pressureDamp}
fix             1 all nph z ${pressure} ${pressure} ${pressureDamp}
fix             1 all nph z 3039.75 ${pressure} ${pressureDamp}
fix             1 all nph z 3039.75 3039.75 ${pressureDamp}
fix             1 all nph z 3039.75 3039.75 1
fix             2 all temp/csvr ${temperature} ${temperature} ${tempDamp} ${seed}
fix             2 all temp/csvr 250 ${temperature} ${tempDamp} ${seed}
fix             2 all temp/csvr 250 250 ${tempDamp} ${seed}
fix             2 all temp/csvr 250 250 0.1 ${seed}
fix             2 all temp/csvr 250 250 0.1 745823
run             ${nsteps_enhanced_coex_upto} upto
run             106000000 upto

CITE-CITE-CITE-CITE-CITE-CITE-CITE-CITE-CITE-CITE-CITE-CITE-CITE

Your simulation uses code contributions which should be cited:

- USER-DEEPMD package:

@article{Wang_ComputPhysCommun_2018_v228_p178,
  author = {Wang, Han and Zhang, Linfeng and Han, Jiequn and E, Weinan},
  doi = {10.1016/j.cpc.2018.03.016},
  url = {https://doi.org/10.1016/j.cpc.2018.03.016},
  year = 2018,
  month = {jul},
  publisher = {Elsevier {BV}},
  volume = 228,
  journal = {Comput. Phys. Commun.},
  title = {{DeePMD-kit: A deep learning package for many-body potential energy representation and molecular dynamics}},
  pages = {178--184}
}

CITE-CITE-CITE-CITE-CITE-CITE-CITE-CITE-CITE-CITE-CITE-CITE-CITE

Generated 0 of 1 mixed pair_coeff terms from geometric mixing rule
Neighbor list info ...
  update every 50 steps, delay 0 steps, check no
  max neighbors/atom: 2000, page size: 100000
  master list distance cutoff = 8
  ghost atom cutoff = 8
  binsize = 4, bins = 13 9 9
  1 neighbor lists, perpetual/occasional/extra = 1 0 0
  (1) pair deepmd, perpetual
      attributes: full, newton on
      pair build: full/bin
      stencil: full/bin/3d
      bin: standard
Per MPI rank memory allocation (min/avg/max) = 7.305 | 7.305 | 7.306 Mbytes
   Step          Temp          PotEng         TotEng         E_pair         E_mol          Press            Lx             Ly             Lz           Volume          Pxx            Pyy            Pzz            Pxy            Pxz            Pyz      
  66000000   249.75845     -415.70482     -332.05746     -415.70482      0              1657.6694      31.138         21.471905      33.221471      22211.616      685.8471       3559.3049      727.85614      1463.6336     -10.542443      535.78413    
  66002000   248.17098     -414.33994     -331.22424     -414.32444      0              3706.4468      31.138         21.471905      32.961917      22038.08       3033.5776      4651.2286      3434.5344      1467.9697     -474.24652      291.4702     
  66004000   248.35811     -418.22221     -335.04384     -418.20677      0              4411.528       31.138         21.471905      32.995959      22060.84       1691.9348      4754.7851      6787.8642      906.4604      -423.35691     -369.23904    
  66006000   252.43927     -417.76356     -333.21836     -417.74792      0              3074.4004      31.138         21.471905      33.078133      22115.781      1651.9643      3509.5941      4061.6429      44.955072     -1307.6673      541.45752    
  66008000   244.08867     -415.73894     -333.99046     -415.72203      0              3429.4983      31.138         21.471905      33.097752      22128.898      3584.5826      2934.0435      3769.8686      251.88623     -1157.9364      1209.663     
  66010000   248.77342     -413.23576     -329.9183      -413.21263      0              3722.3373      31.138         21.471905      33.2861        22254.826      3514.2972      4292.4831      3360.2315      131.69991     -675.82993      75.654376    
  66012000   253.15594     -415.95509     -331.16987     -415.94085      0              3075.6505      31.138         21.471905      33.183653      22186.331      2662.5193      4623.3322      1941.1         1311.1048     -626.09967      43.684808    
  66014000   248.44085     -418.39104     -335.18496     -418.37544      0              3592.2966      31.138         21.471905      33.129319      22150.004      3284.8392      3254.4597      4237.5908     -483.77425     -597.69859     -428.80905    
  66016000   250.03527     -415.23859     -331.49852     -415.22094      0              4985.7064      31.138         21.471905      33.212056      22205.321      6235.5111      4012.7248      4708.8835      625.75739     -826.05258      567.15893    
  66018000   246.1727      -417.13679     -334.69035     -417.12269      0              4152.0428      31.138         21.471905      33.121973      22145.092      3716.4223      2200.9635      6538.7425      122.4145      -513.45932     -384.6116     
  66020000   247.38048     -417.38782     -334.53687     -417.37111      0              3814.048       31.138         21.471905      33.241171      22224.787      831.08913      4639.8531      5971.2019     -175.62827      1425.3508     -1216.6384    
  66022000   246.34103     -416.11201     -333.60919     -416.09664      0              2074.45        31.138         21.471905      33.357489      22302.556      721.06358      2561.246       2941.0405      1937.5797      189.76953      517.98251    
  66024000   251.26747     -415.03296     -330.88021     -415.016        0              4091.3909      31.138         21.471905      33.224724      22213.791      3538.3693      4710.0847      4025.7188     -200.20458      938.04155     -1130.8818    
  66026000   254.84895     -413.59132     -328.23909     -413.56901      0              3885.4328      31.138         21.471905      33.531752      22419.067      3189.6782      4098.4468      4368.1734     -120.18603     -298.82904     -283.21973    
  66028000   247.2861      -416.68        -333.86066     -416.66226      0              973.01573      31.138         21.471905      33.481236      22385.292      478.07621      1690.7248      750.24619     -59.249753     -114.00581     -825.70419    
  66030000   261.40855     -414.76659     -327.21746     -414.74811      0              2781.9583      31.138         21.471905      33.483238      22386.631      3651.8341      2587.0038      2107.037      -25.532579     -326.77269      411.16426    
  66032000   250.09953     -418.07592     -334.31433     -418.06033      0              2810.1278      31.138         21.471905      33.470649      22378.214      1542.2514      3866.7225      3021.4096      307.71638      567.48867     -1343.2541    
  66034000   245.68712     -418.64188     -336.35806     -418.62632      0              2307.1517      31.138         21.471905      33.355608      22301.299      2377.4493      2347.4808      2196.525       210.82068     -1043.1145     -688.19989    
  66036000   250.72836     -418.31691     -334.34472     -418.30103      0              3742.7283      31.138         21.471905      33.432109      22352.447      3937.3391      3971.6804      3319.1656     -852.25069     -95.811558      944.89247    
  66038000   251.77627     -414.72005     -330.39689     -414.7037       0              2742.4509      31.138         21.471905      33.462567      22372.811      389.54757      4186.0558      3651.7493      416.31807     -632.66407      304.49229    
  66040000   250.04109     -417.37422     -333.6322      -417.35636      0              3597.4415      31.138         21.471905      33.501604      22398.911      4294.9956      4411.3617      2085.9672      1640.5728     -1634.9042     -1865.245     
  66042000   248.97584     -414.01032     -330.62507     -413.98686      0              2670.9554      31.138         21.471905      33.568896      22443.901      4437.4762      2995.5625      579.82758      285.31255     -1100.6004     -589.51225    
  66044000   246.05364     -415.34827     -332.94169     -415.33012      0              1494.6963      31.138         21.471905      33.324379      22280.419      2174.4559      610.87678      1698.756       499.81222     -1204.2664     -1879.0964    
  66046000   251.28028     -415.7634      -331.60636     -415.74457      0              2929.1322      31.138         21.471905      33.340722      22291.346      2496.5959      4188.2012      2102.5997      181.17266      676.06932     -437.06175    
  66048000   249.96811     -417.05782     -333.34024     -417.03989      0              4022.2257      31.138         21.471905      33.37271       22312.733      3231.4347      3612.5746      5222.6678     -1900.3566      891.4789       1139.9797    
  66050000   253.67242     -414.93467     -329.97648     -414.91385      0              2766.3982      31.138         21.471905      33.566846      22442.531      4851.4273      383.96703      3063.8003     -895.37794     -58.561711      1755.3037    
  66052000   250.20378     -417.25878     -333.46228     -417.24252      0              1546.8478      31.138         21.471905      33.308205      22269.606      216.46084      4465.3746     -41.292054     -359.29336      25.295596      1083.2357    
  66054000   252.35015     -414.52139     -330.00604     -414.50136      0              2938.3737      31.138         21.471905      33.113678      22139.546      2079.933       2638.0326      4097.1553      1485.7572     -1123.0996     -655.30416    
  66056000   250.12319     -413.39041     -329.62089     -413.37264      0              4806.8207      31.138         21.471905      33.44158       22358.779      5399.4018      5171.7517      3849.3085     -886.02051     -454.22512     -150.89702    
  66058000   246.7198      -415.26332     -332.63364     -415.24628      0              3137.1291      31.138         21.471905      33.443643      22360.158      2167.2295      3785.3736      3458.7842      630.83696      436.06682     -1099.591     
  66060000   247.9773      -416.84971     -333.79888     -416.83357      0              5629.9191      31.138         21.471905      33.377344      22315.831      6226.7547      4647.206       6015.7964      784.98122     -420.23588      385.26348    
  66062000   249.39195     -414.97488     -331.45026     -414.95626      0              3940.8606      31.138         21.471905      33.388333      22323.178      4022.4663      3838.7639      3961.3516     -220.71417     -370.0535      -494.34432    
  66064000   254.67486     -416.31254     -331.01861     -416.29723      0              2826.4846      31.138         21.471905      33.143681      22159.606      1090.56        3156.4256      4232.4681     -290.25118     -1033.6986      1066.0463    
  66066000   251.58518     -413.74758     -329.48842     -413.73177      0              3785.652       31.138         21.471905      33.378401      22316.538      4819.6521      3577.8931      2959.411      -279.36725      999.21918     -38.557579    
  66068000   247.15274     -418.30493     -335.53026     -418.30292      0              3708.7776      31.138         21.471905      33.259591      22237.102      2826.2484      4066.5317      4233.5526     -14.179935     -109.23209     -1577.5178    
  66070000   248.3599      -416.62707     -333.44811     -416.61168      0              3732.1257      31.138         21.471905      33.350367      22297.794      3802.5245      3293.6911      4100.1616      1791.4799      436.50551      1839.4401    
  66072000   261.03385     -415.53724     -328.11361     -415.51342      0              3696.5696      31.138         21.471905      33.489516      22390.828      3084.4018      4770.6759      3234.6311      152.56223     -661.82631     -859.25125    
  66074000   250.52893     -416.14857     -332.24317     -416.13103      0              2657.8765      31.138         21.471905      33.288745      22256.595      1461.8746      3286.5717      3225.1832     -387.70844      529.61865     -850.35646    
  66076000   249.80485     -415.52411     -331.86121     -415.50041      0              4710.1452      31.138         21.471905      33.224921      22213.922      5099.6879      3721.7267      5309.0209      363.41274      777.47537      2158.6083    
  66078000   248.88311     -413.25186     -329.89766     -413.23456      0              1474.9725      31.138         21.471905      33.600632      22465.12       1000.979       2718.3232      705.61542      1856.1441     -1343.6023     -225.47054    
  66080000   248.15144     -414.98164     -331.87249     -414.95782      0              3356.4433      31.138         21.471905      33.318106      22276.225      2143.8055      4056.9667      3868.5578      1066.568       32.809317     -721.48651    
  66082000   246.09837     -416.48085     -334.0593      -416.45823      0              2321.7259      31.138         21.471905      33.345461      22294.515      3618.6941      1753.2733      1593.2103     -311.60868     -23.664149      598.69413    
  66084000   253.72937     -415.13671     -330.15944     -415.11665      0              4899.8387      31.138         21.471905      33.356107      22301.632      5502.1191      4430.1559      4767.241       1.2302147     -144.05309     -808.84827    
  66086000   250.13851     -415.98243     -332.20779     -415.9603       0              3155.4581      31.138         21.471905      33.331555      22285.217      3251.8614      3852.3205      2362.1923      2016.3443      214.48241      1149.5526    
  66088000   251.52548     -415.48354     -331.24438     -415.46334      0              4953.0984      31.138         21.471905      33.199543      22196.955      3674.9302      5435.676       5748.689      -323.11525      116.93841     -1061.6099    
  66090000   245.69456     -419.12452     -336.83821     -419.10701      0              3301.7883      31.138         21.471905      33.231903      22218.59       3109.6186      2157.3754      4638.371       65.460185      257.38585      963.31974    
  66092000   248.65389     -415.16771     -331.89028     -415.14603      0              4572.8733      31.138         21.471905      33.405016      22334.332      4812.6298      4520.7596      4385.2304     -753.21544     -734.67467      416.64642    
  66094000   246.69648     -416.72125     -334.09938     -416.70354      0              2308.2577      31.138         21.471905      33.386098      22321.684      669.24656      3440.5778      2814.9488      305.82847      1284.2489      476.69676    
  66096000   248.12722     -417.3828      -334.28176     -417.3603       0              3800.2482      31.138         21.471905      33.313691      22273.273      3077.7097      4062.987       4260.048       1241.1545     -886.24686     -739.4705     
  66098000   251.23553     -418.21693     -334.07488     -418.19929      0              3542.172       31.138         21.471905      33.266855      22241.959      4575.8713      3781.8794      2268.7652     -230.16566     -951.37685     -374.68522    
  66100000   249.49824     -415.08678     -331.52657     -415.06943      0              2337.4839      31.138         21.471905      33.205868      22201.184      2255.1671      2965.6783      1791.6064     -873.7986       426.41413     -1318.6419    
  66102000   248.75958     -415.9429      -332.63007     -415.91937      0              4020.8461      31.138         21.471905      33.427807      22349.57       3395.8234      5032.6078      3634.1072     -1320.9636     -6.1937546      1473.5771    
  66104000   247.07202     -416.7009      -333.95326     -416.68545      0              2286.9733      31.138         21.471905      33.272792      22245.929      1323.4942      2013.7303      3523.6956      1416.736       829.93         760.27344    
  66106000   255.94216     -418.71372     -332.99536     -418.69584      0              4428.294       31.138         21.471905      33.299611      22263.859      3887.8783      4385.4773      5011.5265     -1422.9535     -302.65574      1114.2611    
  66108000   253.72296     -416.60559     -331.63047     -416.5885       0              3331.8614      31.138         21.471905      33.368753      22310.087      2550.4401      3101.5793      4343.5647     -624.08439      414.95754     -411.95348    
  66110000   246.84846     -415.73218     -333.05941     -415.71499      0              3071.7174      31.138         21.471905      33.315758      22274.655      2630.8165      3310.8732      3273.4624      602.13504      681.94091      547.2111     
  66112000   247.55168     -417.87166     -334.96337     -417.85346      0              2538.8844      31.138         21.471905      33.41687       22342.258      3537.8203      3767.7022      311.13085     -707.67101      1158.5752     -150.33056    
  66114000   249.75533     -416.35619     -332.70987     -416.33923      0              2147.3736      31.138         21.471905      33.192738      22192.405      3290.3357      55.414606      3096.3705     -94.969941     -320.9739       1160.9877    
  66116000   249.06457     -418.60379     -335.18882     -418.58747      0              4791.713       31.138         21.471905      33.096308      22127.933      5060.6199      5247.3337      4067.1853      226.29193     -218.9657       797.08735    
  66118000   243.20584     -415.2876      -333.83479     -415.26933      0              3215.0704      31.138         21.471905      33.256902      22235.305      2492.2847      3271.1586      3881.7679     -71.402519     -179.46077     -205.63813    
  66120000   248.87563     -417.12669     -333.77499     -417.11191      0              3169.8094      31.138         21.471905      33.353308      22299.761      3815.2827      3366.8289      2327.3165      1034.3045     -905.92314     -1239.6485    
  66122000   248.6077      -416.28282     -333.02086     -416.26537      0              3876.6042      31.138         21.471905      33.27161       22245.138      3069.5957      4261.0515      4299.1653     -583.29613     -1433.3093      1060.3717    
  66124000   254.40207     -417.16256     -331.95999     -417.14764      0              3842.4198      31.138         21.471905      33.271425      22245.014      3664.7341      2792.167       5070.3584      760.20937     -163.84607      954.18707    
  66126000   251.60259     -415.65055     -331.38556     -415.63532      0              2031.8525      31.138         21.471905      33.328676      22283.292      1221.3551      2821.1677      2053.0348      996.58925      872.10764     -318.58924    
  66128000   250.18328     -415.87904     -332.0894      -415.86105      0              2536.27        31.138         21.471905      33.412898      22339.602      2054.8919      2439.8158      3114.1022      98.48505      -1521.4426      864.9002     
  66130000   249.39928     -416.26271     -332.73564     -416.24992      0              2591.8066      31.138         21.471905      33.338734      22290.017      2327.1147      1259.3435      4188.9616      84.812143     -835.10998      563.83228    
  66132000   247.82449     -417.44053     -334.44088     -417.42517      0              3209.1335      31.138         21.471905      33.35415       22300.324      4189.6981      1322.8071      4114.8953     -576.6082       250.83374      907.03622    
  66134000   248.31518     -415.99633     -332.83234     -415.98094      0              5067.2717      31.138         21.471905      33.283165      22252.863      5212.0244      4422.0232      5567.7675     -425.65855      908.43245      405.11267    
  66136000   247.50832     -416.91102     -334.01726     -416.8956       0              4123.3147      31.138         21.471905      33.296804      22261.983      3254.0791      4935.1819      4180.6831      2104.612      -994.13005      821.08099    
  66138000   254.75325     -417.94214     -332.62195     -417.92729      0              1073.8288      31.138         21.471905      33.339128      22290.28       621.91036      417.7612       2181.8149      545.19337      1360.6761      1720.7708    
  66140000   256.48908     -415.73754     -329.83601     -415.72237      0              2943.8553      31.138         21.471905      33.279914      22250.69       3005.2656      2084.3914      3741.9088      514.72919     -220.22778      1443.002     
  66142000   253.14265     -417.64976     -332.86898     -417.63445      0              3671.0059      31.138         21.471905      33.410329      22337.885      4946.7452      3091.6423      2974.6302     -360.19618     -544.17648     -407.70195    
  66144000   253.03348     -417.13911     -332.3949      -417.12397      0              3279.5229      31.138         21.471905      33.353894      22300.152      3746.8496      3418.4889      2673.2302      485.33482     -784.80267      7.9317538    
  66146000   256.57131     -418.74767     -332.81859     -418.72385      0              3000.6757      31.138         21.471905      33.345994      22294.871      1637.2432      4505.0719      2859.7118      1026.6861      101.22291     -644.98912    
  66148000   248.81729     -416.94595     -333.6138      -416.93058      0              3194.0326      31.138         21.471905      33.363114      22306.317      1696.9112      2666.4676      5218.719       1487.1265     -318.45921      25.089534    
  66150000   251.412       -418.78769     -334.58653     -418.76863      0              2646.6669      31.138         21.471905      33.300548      22264.486      1402.8794      3235.7356      3301.3857      1.8944345     -2049.6958     -461.63585    
  66152000   247.90424     -415.93059     -332.90423     -415.91369      0              5721.3718      31.138         21.471905      33.346318      22295.087      4960.4225      4517.9575      7685.7353      565.79988      655.69046     -127.89667    
  66154000   250.31446     -415.55961     -331.72603     -415.54446      0              3834.5051      31.138         21.471905      33.376243      22315.095      3594.2332      4237.7421      3671.5399     -231.69611      980.17428      145.16994    
  66156000   248.71513     -420.42626     -337.12833     -420.40876      0              2611.8824      31.138         21.471905      33.427029      22349.05       2390.4375      3178.6849      2266.525       851.59454     -148.94747      190.89132    
  66158000   248.08757     -419.17645     -336.08869     -419.17013      0              2333.8298      31.138         21.471905      33.345839      22294.767      3585.5007      1242.9633      2173.0256     -226.15008      1171.7512     -747.45787    
  66160000   252.02743     -416.79377     -332.3865      -416.77744      0              5418.2882      31.138         21.471905      33.279574      22250.463      5591.0975      4994.9379      5668.8294      861.17028     -378.81158      413.7456     
  66162000   254.09065     -418.10058     -333.00231     -418.08548      0              2904.0802      31.138         21.471905      33.502949      22399.809      3882.5023      4270.2805      559.45791      64.953178     -162.0714      -1425.5487    
  66164000   255.73501     -417.749       -332.10001     -417.73439      0              2736.1859      31.138         21.471905      33.357587      22302.622      3163.7732      3222.8293      1821.9552     -148.10241     -20.984653      305.38277    
  66166000   250.46663     -414.67658     -330.79204     -414.65814      0              3789.2206      31.138         21.471905      33.506272      22402.032      1609.0409      3998.5573      5760.0635     -977.75082     -64.207888     -889.15026    
  66168000   250.41032     -416.28523     -332.41955     -416.27         0              3610.4787      31.138         21.471905      33.352872      22299.469      2102.3667      5504.4276      3224.6418     -310.99188      1708.4041      722.22337    
  66170000   250.94446     -414.51218     -330.46761     -414.49467      0              4338.9166      31.138         21.471905      33.274601      22247.138      3712.885       5082.3265      4221.5383      855.66767     -1332.3284     -286.06452    
  66172000   257.90189     -419.60328     -333.22858     -419.588        0              5282.7145      31.138         21.471905      33.29145       22258.403      5063.6085      4934.6437      5849.8914      635.92931      467.14495      1412.0929    
  66174000   244.99522     -418.20468     -336.15258     -418.18893      0              2865.2752      31.138         21.471905      33.35239       22299.147      1774.5564      3869.0545      2952.2147      268.11792     -293.37307      392.42021    
  66176000   245.40474     -420.20314     -338.01389     -420.18808      0              3555.0505      31.138         21.471905      33.406556      22335.362      3559.6577      2787.8699      4317.624      -490.68383     -268.57156     -672.01629    
  66178000   254.69804     -417.13814     -331.83644     -417.1293       0              5382.0031      31.138         21.471905      33.260973      22238.026      4151.4114      7341.8838      4652.7143     -936.25836      1182.3405     -410.40982    
  66180000   252.20782     -418.36053     -333.89285     -418.34334      0              3989.7692      31.138         21.471905      33.369802      22310.789      1515.7376      4355.4288      6098.141       1577.4269      1776.6428      1008.149     
  66182000   252.49648     -418.21287     -333.6485      -418.1976       0              3136.5928      31.138         21.471905      33.251081      22231.413      2234.436       3163.7196      4011.6229     -768.82872     -2215.453      -538.43079    
  66184000   249.35786     -416.22772     -332.71452     -416.21266      0              3631.7695      31.138         21.471905      33.373516      22313.272      3856.6917      5361.2251      1677.3918     -276.16725      41.817135     -428.26001    
  66186000   253.86235     -416.89105     -331.86924     -416.8795       0              2460.5439      31.138         21.471905      33.413098      22339.736      3064.0066      2404.1633      1913.4617      398.17953     -477.65662      219.96327    
  66188000   248.29169     -415.19374     -332.03761     -415.17854      0              3012.936       31.138         21.471905      33.441289      22358.584      4391.7222      2753.1379      1893.9479      245.12776     -341.23776      165.65044    
  66190000   258.26925     -416.55842     -330.06068     -416.54324      0              3139.1835      31.138         21.471905      33.440507      22358.061      2881.7468      3982.2166      2553.5871      1337.8705     -593.32895     -709.00306    
  66192000   254.98859     -417.88854     -332.48954     -417.87579      0              3132.0338      31.138         21.471905      33.578011      22449.995      3817.5085      1782.397       3796.196       5.3842468      176.04003      803.6498     
  66194000   248.19488     -417.12137     -333.99767     -417.10703      0              2661.2851      31.138         21.471905      33.676223      22515.659      4277.7096      899.54503      2806.6008      1609.2646     -1087.1227      124.726      
  66196000   253.05664     -416.30429     -331.55232     -416.28934      0              50.13299       31.138         21.471905      33.629325      22484.303      1571.5229     -222.87391     -1198.25       -52.053998     -2.7564967     -412.28823    
  66198000   247.33829     -415.04767     -332.21085     -415.03274      0              5898.517       31.138         21.471905      33.357765      22302.741      5624.9771      6838.2227      5232.3513     -873.66977     -313.51043     -1170.9356    
  66200000   252.33073     -417.59143     -333.08258     -417.56971      0              2922.7087      31.138         21.471905      33.644832      22494.672      2842.3116      4489.2071      1436.6074      1766.9401      121.39985     -1200.6773    
  66202000   247.0754      -415.05986     -332.31109     -415.03637      0              932.22928      31.138         21.471905      33.877724      22650.381      1703.109       1261.1359     -167.55698      271.73314      1566.9089     -1328.0248    
  66204000   253.90806     -419.6285      -334.59139     -419.60895      0              3919.3749      31.138         21.471905      33.730969      22552.262      5192.1576      3473.4767      3092.4903      1083.5681     -479.01421     -600.06506    
  66206000   241.16184     -416.68369     -335.91544     -416.66079      0              2501.8283      31.138         21.471905      33.506342      22402.078      3063.6245      2485.9595      1955.9009     -877.51739      655.63552      373.54618    
  66208000   245.64819     -415.50219     -333.23141     -415.48473      0              2690.3293      31.138         21.471905      33.506039      22401.876      2038.4829      4095.8281      1936.6769      576.02902     -877.2177      -379.39784    
  66210000   250.84558     -416.39084     -332.37939     -416.36992      0              2871.263       31.138         21.471905      33.514173      22407.314      2187.1049      2966.3599      3460.3242      191.92061     -468.59986      1503.4176    
  66212000   243.30716     -416.53618     -335.04944     -416.52126      0              3088.0033      31.138         21.471905      33.414626      22340.757      2540.5819      4027.0295      2696.3985      1407.4165      118.47769      866.52883    
  66214000   248.42571     -414.26248     -331.06147     -414.24427      0              1944.4368      31.138         21.471905      33.456656      22368.859      1757.8808      1881.2921      2194.1376      2239.1532     -825.87909     -441.66385    
  66216000   247.99763     -417.44547     -334.38783     -417.43107      0              3259.4829      31.138         21.471905      33.415846      22341.573      4000.3459      2066.1449      3711.9579      1035.1634     -692.48001      662.84803    
  66218000   251.16322     -416.19228     -332.07444     -416.17619      0              2361.7804      31.138         21.471905      33.360899      22304.836      815.2573       2312.4835      3957.6004     -648.91089      861.01274      158.25284    
  66220000   245.89991     -416.70672     -334.35163     -416.69108      0              4766.1417      31.138         21.471905      33.297581      22262.502      3386.7928      5784.2021      5127.4303      233.22864      574.88816      1513.6074    
  66222000   242.19975     -417.55567     -336.43981     -417.53871      0              1121.4402      31.138         21.471905      33.416251      22341.844      833.71679      675.34252      1855.2613      1220.0141     -796.83697      1899.2107    
  66224000   256.30917     -416.92807     -331.08679     -416.91215      0              3131.0401      31.138         21.471905      33.405624      22334.739      970.70088      3511.9846      4910.4348      515.92885      1669.8362     -613.20002    
  66226000   246.77754     -417.22626     -334.57724     -417.21136      0              2565.9968      31.138         21.471905      33.524173      22414          4021.1718      2172.139       1504.6798      107.02403      724.07534     -372.09975    
  66228000   254.14627     -415.01471     -329.89782     -414.99986      0              1123.7192      31.138         21.471905      33.593705      22460.489      1325.2982      273.2625       1772.5969     -425.32574      738.46693      1644.0456    
  66230000   247.07336     -415.63774     -332.88965     -415.62064      0              1011.3071      31.138         21.471905      33.441355      22358.628      791.95274      447.44483      1794.5238      595.28395      208.20694      1294.2992    
  66232000   250.66536     -417.14021     -333.18912     -417.12477      0              1292.8503      31.138         21.471905      33.378504      22316.607      1404.6429      1452.3801      1021.528       236.12886      592.70569      108.79417    
  66234000   251.65773     -417.47356     -333.1901      -417.45929      0              2382.7575      31.138         21.471905      33.340016      22290.874      2183.6131      3070.0089      1894.6505      1960.5161     -507.34889     -580.07704    
  66236000   248.15861     -418.32739     -335.21583     -418.31283      0              2828.8392      31.138         21.471905      33.320084      22277.548      1573.6926      2696.1674      4216.6576      977.25032      200.22631      1414.1693    
  66238000   255.15956     -418.0796      -332.62334     -418.06483      0              2614.1218      31.138         21.471905      33.352949      22299.521      1610.8319      4428.4965      1803.037       224.29543     -1421.031      -587.72953    
  66240000   249.41399     -416.90349     -333.37149     -416.88851      0              1472.3818      31.138         21.471905      33.416155      22341.78      -57.532606      2316.4984      2158.1795     -1392.7917     -771.76257      369.95749    
  66242000   251.12695     -415.88133     -331.77564     -415.86944      0              2623.7284      31.138         21.471905      33.443796      22360.261      2915.2062      1279.9454      3676.0336     -367.63109      1209.0584      331.69818    
  66244000   249.59018     -417.77353     -334.18253     -417.75856      0              3812.253       31.138         21.471905      33.338149      22289.626      1330.4812      5342.09        4764.1879      890.37232      811.88353     -991.5961     
  66246000   251.16798     -417.46448     -333.34505     -417.45042      0              5149.8096      31.138         21.471905      33.189171      22190.02       4632.1659      6009.1703      4808.0924      131.9189      -283.69273      76.873845    
  66248000   242.70714     -415.65113     -334.36534     -415.64184      0              2629.4861      31.138         21.471905      33.237628      22222.418      2696.2125      3664.5401      1527.7058      722.02812     -794.67018     -1176.9756    
  66250000   254.1935      -415.10683     -329.97412     -415.09015      0              2354.2504      31.138         21.471905      33.253318      22232.908      2514.2817      2950.5732      1597.8961      1080.3996     -380.63417      394.1051     
  66252000   244.79125     -417.98901     -336.00523     -417.99426      0              3180.859       31.138         21.471905      33.261258      22238.217      3686.9165      3757.7361      2097.9244      1346.414      -1279.9082     -752.68892    
  66254000   253.34229     -418.38671     -333.53908     -418.37194      0              4114.2306      31.138         21.471905      33.193219      22192.726      5130.8711      4761.4854      2450.3351      1834.4467     -889.85544     -786.13253    
  66256000   262.52921     -418.13212     -330.20766     -418.12277      0              5443.4972      31.138         21.471905      33.206313      22201.481      5290.1201      5695.7926      5344.5791     -614.15021     -342.27255      77.780012    
  66258000   247.98235     -417.21785     -334.16533     -417.20297      0              3353.8993      31.138         21.471905      33.173662      22179.651      3902.4866      2276.1729      3883.0383     -856.65399      927.76552      1918.1686    
  66260000   246.01241     -419.4202      -337.02744     -419.4132       0              4421.096       31.138         21.471905      33.14341       22159.425      3806.9647      5351.9866      4104.3368      510.67504      627.69221     -873.10135    
  66262000   254.98032     -417.48463     -332.0884      -417.46977      0              3171.7184      31.138         21.471905      33.169147      22176.632      4565.2739      3776.3185      1173.5629     -147.06006     -816.10972     -580.53532    
  66264000   250.77822     -417.07497     -333.08608     -417.10696      0              3174.6449      31.138         21.471905      33.195482      22194.24       3187.9372      2595.6972      3740.3003      2059.3814     -351.92854      739.52002    
  66266000   246.90795     -417.6799      -334.98721     -417.67308      0              3720.7587      31.138         21.471905      33.320712      22277.967      3013.8127      4725.3359      3423.1277      110.25218     -447.44808     -859.11318    
  66268000   248.78632     -417.18008     -333.8583      -417.16531      0              3647.7323      31.138         21.471905      33.372204      22312.394      2718.8034      3412.7459      4811.6475      774.86918      899.29848      309.61312    
  66270000   252.3455      -417.65927     -333.14547     -417.64449      0              2809.8407      31.138         21.471905      33.393538      22326.658      2820.9874      3636.6867      1971.8481     -74.269089      897.91126      272.58282    
  66272000   252.78252     -415.23232     -330.57216     -415.22609      0              3757.8018      31.138         21.471905      33.226717      22215.123      3833.0588      5278.8629      2161.4838     -955.92573      380.80616     -146.5413     
  66274000   252.61208     -413.69787     -329.09479     -413.6841       0              3158.3318      31.138         21.471905      33.326971      22282.152      2984.5599      3409.4103      3081.0253      256.97922      203.59667     -897.53758    
  66276000   247.61897     -414.50681     -331.576       -414.49759      0              2401.238       31.138         21.471905      33.36665       22308.681      2275.9472      2592.8679      2334.899       487.68421     -747.26437      1008.9341    
  66278000   250.97469     -416.66411     -332.60941     -416.65046      0              3775.632       31.138         21.471905      33.353473      22299.871      4308.0248      4196.863       2822.0083     -101.56811     -984.63037     -533.26402    
  66280000   259.19932     -415.5407      -328.73147     -415.53598      0              3279.7905      31.138         21.471905      33.284223      22253.571      3177.9101      3318.4533      3343.0082      417.61187     -706.55204      375.66665    
  66282000   255.10681     -415.28079     -329.84219     -415.26634      0              1336.2937      31.138         21.471905      33.322321      22279.043      2940.901       1288.7712     -220.79112      381.83403     -71.548633     -582.71373    
  66284000   257.38878     -415.39197     -329.18912     -415.39221      0              3608.8191      31.138         21.471905      33.30439       22267.055      2029.4108      4810.3585      3986.6881      744.84134      1471.8632     -867.72385    
  66286000   250.76955     -418.17371     -334.18772     -418.17847      0              4100.8661      31.138         21.471905      33.264087      22240.109      5294.6676      3198.9727      3808.9581     -1103.9481      391.73391     -344.72567    
  66288000   245.22479     -417.73727     -335.60829     -417.73034      0              2928.7085      31.138         21.471905      33.403975      22333.636      4699.2945      3480.4306      606.40022     -1069.083       646.65582     -899.9701     
  66290000   252.44702     -416.10527     -331.55747     -416.08526      0              2035.7539      31.138         21.471905      33.532684      22419.69       2639.151       3297.4596      170.65117      622.62223      254.05493     -592.16566    
  66292000   246.96456     -414.05781     -331.34616     -414.04308      0              4321.1632      31.138         21.471905      33.373491      22313.255      3856.5163      3811.0882      5295.8849      2630.8761      125.40389      477.52456    
  66294000   250.03394     -415.53418     -331.79456     -415.51949      0              2487.4878      31.138         21.471905      33.425469      22348.007      3079.6195      2689.1107      1693.7333     -538.68749     -463.38564     -1812.1959    
  66296000   250.66326     -415.71656     -331.76617     -415.70231      0              2369.768       31.138         21.471905      33.251032      22231.38       1073.6558      1798.2763      4237.372       689.58424      88.574321      730.36721    
  66298000   244.64038     -417.3966      -335.46335     -417.38168      0              628.66458      31.138         21.471905      33.529138      22417.319      3567.8783     -749.03199     -932.8526      -496.77809     -662.19414     -889.4186     
  66300000   255.14437     -416.85558     -331.4044      -416.8623       0              4633.5529      31.138         21.471905      33.465898      22375.038      3388.2957      6349.9685      4162.3946     -12.601856     -127.39229     -260.2884     
  66302000   245.72219     -415.84881     -333.55324     -415.83415      0              1930.0843      31.138         21.471905      33.512627      22406.28       2053.2322      2699.7655      1037.2553      1767.2533      722.02764     -1114.7613    
  66304000   252.69466     -418.13701     -333.50627     -418.12535      0              2018.801       31.138         21.471905      33.502394      22399.439      1424.6132      2897.9474      1733.8424     -467.71466     -999.99864     -700.13751    
  66306000   253.55531     -417.3633      -332.44432     -417.36048      0              1839.7124      31.138         21.471905      33.386342      22321.847      1499.8613      1265.134       2754.142       1403.0982     -342.24825     -150.33261    
  66308000   254.43039     -418.74206     -333.53001     -418.72737      0              1176.2929      31.138         21.471905      33.353343      22299.784      184.14406      2369.0266      975.70795      741.06109      2018.331       55.22288     
  66310000   251.0198      -415.45925     -331.38944     -415.44434      0              3396.6104      31.138         21.471905      33.362959      22306.214      2608.0166      3220.9452      4360.8694     -871.89339      588.17755      357.14545    
  66312000   255.13538     -418.14788     -332.69971     -418.13665      0              3318.356       31.138         21.471905      33.361803      22305.44       3612.3247      348.52911      5994.2142      338.92237     -813.82233      1055.3661    
  66314000   255.14877     -414.99487     -329.54222     -414.98028      0              2075.9041      31.138         21.471905      33.283167      22252.865      772.03419      2240.7046      3214.9734      617.42892     -484.44413      224.02323    
  66316000   254.09564     -416.38017     -331.28023     -416.36546      0              3203.1372      31.138         21.471905      33.333516      22286.528      4647.1485      1812.5839      3149.6792      2819.7342     -1822.6768      394.84383    
  66318000   247.73295     -416.68399     -333.71499     -416.67036      0              3415.256       31.138         21.471905      33.385435      22321.241      4052.7163      3640.7362      2552.3156     -740.18151      197.31223      610.31357    
  66320000   248.86006     -415.73282     -332.38634     -415.72305      0              4834.7539      31.138         21.471905      33.384937      22320.908      2898.2767      4324.1088      7281.8761     -174.26469      423.51697      456.96387    
  66322000   255.87978     -420.17641     -334.47893     -420.16189      0              3041.3329      31.138         21.471905      33.514279      22407.385      4067.5096      2365.438       2691.0511      89.541667     -2023.9814     -870.59469    
  66324000   249.94952     -418.63285     -334.9215      -418.6188       0              4119.457       31.138         21.471905      33.567583      22443.024      5117.763       4300.2234      2940.3847      247.74198      169.10726     -1235.9381    
  66326000   246.65022     -416.46695     -333.86057     -416.45078      0              2601.3379      31.138         21.471905      33.334438      22287.144      2102.1113      2477.5028      3224.3995     -1350.1442      732.34439     -203.78631    
  66328000   247.22206     -416.83449     -334.0366      -416.81998      0              3259.3272      31.138         21.471905      33.306993      22268.795      1494.5379      4324.7287      3958.715      -1198.7073      365.38475     -470.91224    
  66330000   253.31072     -415.15072     -330.31366     -415.16017      0              3200.8168      31.138         21.471905      33.257877      22235.957      4701.753       3881.5911      1019.1063     -627.73258      629.87563     -1698.71      
  66332000   251.65043     -415.47777     -331.19676     -415.46657      0              4461.7097      31.138         21.471905      33.376377      22315.184      3504.331       3167.6978      6713.1002     -799.50223      197.65863     -285.22776    
  66334000   252.89745     -416.19332     -331.49466     -416.17889      0              3241.9065      31.138         21.471905      33.434442      22354.007      2765.1715      3428.3887      3532.1592      1021.5784     -451.80522      85.110345    
  66336000   255.71166     -416.74885     -331.10768     -416.73349      0             -183.84905      31.138         21.471905      33.694016      22527.555     -661.57946      565.46015     -455.42783      2628.2548     -870.08595     -839.5211     
  66338000   246.19072     -418.69817     -336.24569     -418.6897       0              3372.2625      31.138         21.471905      33.493095      22393.221      4029.8941      4474.0911      1612.8023      1002.2762      670.31024      97.934115    
  66340000   253.91154     -416.5732      -331.53492     -416.55541      0              2810.7073      31.138         21.471905      33.594058      22460.724      2740.6372      2290.4662      3401.0184      100.82863     -94.471569      881.58936    
  66342000   246.87675     -416.67495     -333.99271     -416.66491      0              3182.2571      31.138         21.471905      33.553624      22433.691      1270.2345      4602.8647      3673.672       241.69139      458.10927      1032.1243    
  66344000   245.7953      -418.09907     -335.77902     -418.08073      0              1380.4031      31.138         21.471905      33.558244      22436.78       504.22516      2698.5817      938.40248     -995.57179     -1122.2406     -393.5563     
  66346000   246.81023     -418.3362      -335.67623     -418.31987      0              3269.9685      31.138         21.471905      33.730169      22551.727      3970.3057      2445.2862      3394.3135      597.18392     -304.90078     -2251.8439    
  66348000   246.09044     -418.71999     -336.3011      -418.70557      0              1532.0171      31.138         21.471905      33.675052      22514.876      1586.7767      1793.2092      1216.0653      622.27237     -903.36844     -637.94325    
  66350000   247.07319     -415.47397     -332.72594     -415.46008      0              3339.4049      31.138         21.471905      33.621371      22478.985      1283.8989      6953.384       1780.9318      344.21539      870.38215     -217.28332    
  66352000   252.91015     -416.4046      -331.7017      -416.39019      0              3241.2241      31.138         21.471905      33.38943       22323.912      625.97513      4413.8399      4683.8572      1051.9223      7.6046203     -341.18195    
  66354000   247.48153     -413.9434      -331.05861     -413.92637      0              4700.8991      31.138         21.471905      33.253107      22232.767      5008.6906      5732.758       3361.2487     -1248.8541     -2032.5515     -200.82477    
  66356000   248.08307     -416.36347     -333.27721     -416.34693      0              3861.3725      31.138         21.471905      33.243967      22226.656      2628.2999      4548.0258      4407.7919      1629.8183      519.77539     -695.05836    
  66358000   244.32574     -416.10583     -334.27795     -416.09144      0              2517.3387      31.138         21.471905      33.317292      22275.681      367.80443      3419.6303      3764.5815      261.68575     -42.438657      598.73213    
  66360000   255.40027     -419.00965     -333.47277     -418.99542      0              1921.9031      31.138         21.471905      33.467593      22376.171      2953.4196      1563.6541      1248.6357      600.51415      877.44262      329.72542    
  66362000   247.62402     -417.00232     -334.06981     -416.98493      0              1798.9062      31.138         21.471905      33.569904      22444.575      1477.7428      2199.3803      1719.5953      1638.3888      655.02422     -573.97811    
  66364000   254.15953     -415.86357     -330.74223     -415.84083      0              2217.6053      31.138         21.471905      33.400859      22331.553      2490.1822      1478.6189      2684.015       267.37442      988.6965       843.67239    
  66366000   250.86018     -413.75926     -329.74291     -413.74207      0              3861.3409      31.138         21.471905      33.373023      22312.942      4097.9822      4179.3063      3306.7343     -771.62837     -256.49234      405.47376    
  66368000   249.93319     -415.73142     -332.02553     -415.71507      0              4145.4071      31.138         21.471905      33.366428      22308.533      5845.0039      2211.6108      4379.6066     -473.43117      994.96691     -1037.6633    
  66370000   253.45006     -415.95455     -331.07082     -415.93728      0              3108.7202      31.138         21.471905      33.454268      22367.262      3349.724       4076.4335      1900.0032      1173.1039      21.942374     -1729.323     
  66372000   249.80951     -415.8243      -332.15984     -415.80716      0              4746.8749      31.138         21.471905      33.536265      22422.084      2488.3773      6811.2449      4941.0025     -310.8875      -6.1308277      393.7445     
  66374000   247.66562     -414.69741     -331.75097     -414.68309      0              3135.7113      31.138         21.471905      33.368287      22309.775      2144.9012      5309.0286      1953.2042     -126.5423      -1012.3058      893.97566    
  66376000   248.93546     -413.81834     -330.44661     -413.80067      0              2039.0023      31.138         21.471905      33.5504        22431.535      3877.7606      1884.1287      355.11767      397.59409      654.49171      61.28676     
  66378000   250.25782     -417.08184     -333.26724     -417.06552      0              3157.8996      31.138         21.471905      33.661963      22506.125      2018.0696      3648.2252      3807.4039      1116.1503      311.62853      433.63887    
  66380000   240.8413      -417.60515     -336.94425     -417.5853       0              4465.5162      31.138         21.471905      33.353747      22300.055      3166.1672      5052.6642      5177.7171      63.71621       22.302225      2.6640505    
  66382000   253.5963      -417.7231      -332.79039     -417.70884      0              4506.2413      31.138         21.471905      33.531454      22418.868      4900.7175      3901.4717      4716.5348     -2190.6667     -876.71968     -381.97382    
  66384000   251.28159     -418.60568     -334.4482      -418.59084      0              3852.4735      31.138         21.471905      33.464487      22374.094      2521.4431      2187.8855      6848.092       818.12293     -700.44252      1599.3195    
  66386000   250.10235     -416.21314     -332.4506      -416.18931      0              2250.4682      31.138         21.471905      33.535119      22421.318      952.23464      3380.2755      2418.8945     -1450.6315     -376.20228     -1406.3403    
  66388000   244.33352     -416.51245     -334.68197     -416.49813      0              3066.1013      31.138         21.471905      33.369077      22310.304      2178.3239      3780.1273      3239.8527     -639.81555      136.94203     -915.15617    
  66390000   244.17179     -420.19826     -338.42194     -420.18377      0              3181.4028      31.138         21.471905      33.411571      22338.715      3496.6319      3231.9977      2815.5787     -736.07057     -707.58713     -482.91196    
  66392000   249.08309     -418.85448     -335.43331     -418.86958      0              5046.5354      31.138         21.471905      33.333216      22286.327      3904.6303      4509.5453      6725.4307     -149.9227      -915.61695     -275.19208    
  66394000   248.01161     -417.64669     -334.58437     -417.62826      0              776.97132      31.138         21.471905      33.379894      22317.536      164.22655      1018.9801      1147.7073      1162.689       1.9951578     -837.01251    
  66396000   249.0664      -419.75783     -336.34225     -419.74092      0              3193.7562      31.138         21.471905      33.481241      22385.296      3408.9666      3767.5893      2404.7127     -963.8014       664.90344     -1022.4457    
  66398000   245.97977     -416.24862     -333.86679     -416.23445      0              2419.8617      31.138         21.471905      33.506377      22402.101      4415.4929      1419.525       1424.5672      1477.761       383.89774     -613.69612    
  66400000   245.96478     -419.66941     -337.2926      -419.65196      0              3159.9756      31.138         21.471905      33.595397      22461.62       3479.298       1960.4467      4040.1821      1623.2232      2449.9198     -420.94004    
  66402000   249.51747     -417.31934     -333.75268     -417.31635      0              2662.6622      31.138         21.471905      33.57329       22446.839      3893.6151      2526.3472      1568.0242     -868.95372     -1231.5485     -468.30013    
  66404000   241.58747     -417.3968      -336.486       -417.41146      0              3605.5081      31.138         21.471905      33.364957      22307.55       3224.7718      3407.0806      4184.672       1168.8064      320.26837      1377.1364    
  66406000   256.74452     -417.27115     -331.28406     -417.25565      0              1176.4635      31.138         21.471905      33.453699      22366.882     -12.376265      2700.9183      840.84837     -500.56994     -320.48117     -828.4802     
  66408000   255.04083     -416.93591     -331.51941     -416.92108      0              2863.7037      31.138         21.471905      33.379795      22317.47       2772.2454      4095.685       1723.1808      89.584725      141.00542      151.05835    
  66410000   252.32073     -418.62379     -334.11829     -418.60966      0              3423.7851      31.138         21.471905      33.381198      22318.408      3595.3902      3652.3136      3023.6515      236.9841       1798.3209     -312.97387    
  66412000   255.01477     -419.20858     -333.80081     -419.19007      0              3973.0864      31.138         21.471905      33.38583       22321.505      3970.6112      3972.0953      3976.5526     -1426.921       302.44443     -1264.8602    
  66414000   247.93686     -417.83027     -334.79298     -417.80835      0              3051.905       31.138         21.471905      33.377975      22316.253      2033.4058      3485.466       3636.8432      1316.0824     -367.62638      1405.9671    
  66416000   249.31771     -416.88759     -333.38784     -416.87102      0              2785.8418      31.138         21.471905      33.341704      22292.002      4194.5086      2159.1623      2003.8544     -783.32794      1452.6829     -96.798419    
  66418000   244.86187     -417.42447     -335.41703     -417.41292      0              2347.7961      31.138         21.471905      33.410909      22338.272      2686.9959      1819.2747      2537.1177      463.36771      86.591982      446.2486     
  66420000   246.89596     -417.34421     -334.65554     -417.32683      0              3861.4102      31.138         21.471905      33.307917      22269.413      4571.0145      4214.9894      2798.2268      129.00867      999.26062     -200.1161     
  66422000   251.0403      -416.06989     -331.99322     -416.05278      0              2022.6686      31.138         21.471905      33.29931       22263.658      1655.5919     -66.293498      4478.7075      1088.1576     -1115.9352     -1376.9776    
  66424000   245.76004     -418.00719     -335.69895     -417.9923       0              5062.4038      31.138         21.471905      33.378082      22316.325      6406.0293      5199.0102      3582.1718      43.831303     -967.48116      471.96626    
  66426000   248.65748     -415.91395     -332.63532     -415.89973      0              3859.5877      31.138         21.471905      33.261684      22238.502      4187.3863      1941.8099      5449.567      -1855.2392     -184.31843     -1168.126     
  66428000   255.50148     -419.1186      -333.54783     -419.1022       0              2457.4294      31.138         21.471905      33.534285      22420.761      2020.4786      1330.586       4021.2237     -2144.0289     -1613.2069     -1617.3498    
  66430000   250.42462     -417.54057     -333.6701      -417.52637      0              2751.4828      31.138         21.471905      33.483865      22387.05       2059.373       3010.1389      3184.9365     -624.69512     -1174.4349      286.7548     
  66432000   251.56376     -415.57354     -331.32156     -415.55936      0              1798.2315      31.138         21.471905      33.51498       22407.853      2179.6199      2906.9514      308.12321      608.01814     -1219.1313     -541.97017    
  66434000   249.00559     -416.05009     -332.65487     -416.03331      0              1867.5576      31.138         21.471905      33.684395      22521.123      2251.0866      1351.4261      2000.1601     -2623.6142      479.87773     -540.48467    
  66436000   251.05671     -419.53592     -335.45376     -419.51914      0              3838.3659      31.138         21.471905      33.402727      22332.802      4852.6418      3099.3239      3563.1319     -203.22789     -920.17978     -659.75259    
  66438000   247.90286     -417.03745     -334.01155     -417.02311      0              5593.9609      31.138         21.471905      33.28937       22257.013      5547.7474      4805.4527      6428.6825      127.03263      90.186307     -773.89335    
  66440000   244.75625     -417.17381     -335.20175     -417.15966      0              2228.8722      31.138         21.471905      33.432566      22352.752      1963.9494      1970.531       2752.1364      839.56326     -1234.5116      228.12412    
  66442000   249.31763     -417.34407     -333.84434     -417.33039      0              3414.2972      31.138         21.471905      33.676065      22515.554      2496.8757      4259.3422      3486.6736      1630.0182     -769.03062     -190.5098     
  66444000   246.31989     -417.18691     -334.69117     -417.17247      0              2766.5668      31.138         21.471905      33.500725      22398.323      4131.0763      1128.0116      3040.6126     -1021.4382      661.20777     -1360.4703    
  66446000   247.97615     -415.72237     -332.67192     -415.70383      0              3215.4354      31.138         21.471905      33.606276      22468.893      3132.0185      4061.7382      2452.5494     -45.521837      248.44699     -815.60498    
  66448000   250.34658     -417.90029     -334.05596     -417.93083      0              3532.024       31.138         21.471905      33.516467      22408.848      4411.0698      4378.0452      1806.9571      299.80016     -1855.1305      815.60057    
  66450000   246.55269     -415.1786      -332.60489     -415.15782      0              1991.1955      31.138         21.471905      33.445725      22361.55       2146.36        1518.8359      2308.3905     -198.9176      -527.71071      172.88064    
  66452000   251.45578     -417.56823     -333.35241     -417.55412      0              624.84677      31.138         21.471905      33.476802      22382.328      748.40116      518.22216      607.91698      87.395844     -111.4458       496.12975    
  66454000   257.07767     -415.77033     -329.67166     -415.74733      0              2779.1924      31.138         21.471905      33.645184      22494.907      1023.0089      2653.7035      4660.8647      471.83852      218.5035       846.02161    
  66456000   250.59894     -416.34112     -332.41227     -416.32594      0              3668.0616      31.138         21.471905      33.380805      22318.145      2445.8983      3684.7369      4873.5495     -636.42199     -366.81732      248.72921    
  66458000   249.1779      -418.82689     -335.37396     -418.81211      0              3239.8923      31.138         21.471905      33.42128       22345.206      3794.5935      2203.7256      3721.3577      203.1391       834.39221      337.69936    
  66460000   247.15608     -414.99537     -332.21958     -414.98257      0              2443.1303      31.138         21.471905      33.485176      22387.927      1027.2412      3461.1761      2840.9736      548.63146      783.21345     -1996.714     
  66462000   252.72851     -416.43123     -331.78916     -416.41713      0              3621.9535      31.138         21.471905      33.446218      22361.88       3239.4174      4372.7756      3253.6676      708.62547      726.70759     -236.87571    
  66464000   255.13416     -417.64086     -332.19311     -417.62681      0              3393.136       31.138         21.471905      33.368591      22309.979      3553.4489      1604.6977      5021.2612      1885.1405     -1975.0552      1777.4724    
  66466000   246.60207     -417.30273     -334.71248     -417.28738      0              1650.4265      31.138         21.471905      33.594539      22461.046      1545.8008      1704.76        1700.7187     -240.90682      15.043986     -1136.4015    
  66468000   249.31955     -416.23785     -332.73748     -416.22074      0              2625.837       31.138         21.471905      33.274579      22247.123      1177.5324      2723.1295      3976.8491      1695.8933      1067.4244      1542.8163    
  66470000   249.69013     -417.78942     -334.16494     -417.7792       0              4676.3306      31.138         21.471905      33.364674      22307.36       5160.8379      2985.4962      5882.6576      270.40747      533.94563      1418.7933    
  66472000   250.94323     -416.40963     -332.36548     -416.39561      0              5824.3492      31.138         21.471905      33.299186      22263.575      5949.4348      6019.3591      5504.2537      116.76223     -650.90387      971.67581    
  66474000   245.99813     -416.46888     -334.0809      -416.45488      0              2156.3941      31.138         21.471905      33.279026      22250.096      1110.2509      2741.9436      2616.9876     -41.434014     -110.07023     -608.73493    
  66476000   252.73227     -415.28286     -330.63952     -415.26899      0              3885.6612      31.138         21.471905      33.234995      22220.658      2277.6953      3815.6863      5563.6021     -425.24647      1896.434       1264.0712    
  66478000   250.81037     -415.60445     -331.60479     -415.58769      0              2591.121       31.138         21.471905      33.553378      22433.526      3381.4817      1342.6379      3049.2433     -126.39158     -473.28657     -140.78161    
  66480000   245.4213      -414.38159     -332.1868      -414.36504      0              2749.7936      31.138         21.471905      33.486407      22388.75       1897.8506      1876.9194      4474.6109     -993.59356      1043.0701      2532.5034    
  66482000   245.05149     -417.56481     -335.49387     -417.55901      0              3455.0506      31.138         21.471905      33.436499      22355.382      2717.0849      2317.9284      5330.1385      1311.9974      949.92407      523.54504    
  66484000   253.92539     -418.17232     -333.1294      -418.20409      0              3004.0777      31.138         21.471905      33.444222      22360.545      1808.9165      3852.9609      3350.3557      2240.193      -1539.0584      616.2613     
  66486000   246.41797     -419.34001     -336.81142     -419.32437      0              2872.6847      31.138         21.471905      33.452062      22365.787      3053.4608      2846.9935      2717.5997      1167.5554     -70.91131       1822.1594    
  66488000   250.17447     -415.99072     -332.20403     -415.974        0              1713.9094      31.138         21.471905      33.499499      22397.503      3883.0663      872.30375      386.35815     -526.31413      327.68877      783.70623    
  66490000   257.66116     -415.85377     -329.55969     -415.84115      0              3146.4602      31.138         21.471905      33.451307      22365.282      1261.086       5113.4128      3064.8818      656.89397      1234.3438     -1378.742     
  66492000   248.62062     -415.227       -331.96071     -415.20958      0              1471.0091      31.138         21.471905      33.461442      22372.058      1541.4718      1998.0637      873.4918      -233.83015     -1212.2742     -1140.6718    
  66494000   257.76624     -417.80563     -331.47636     -417.79095      0              3585.5386      31.138         21.471905      33.340056      22290.9        4032.7415      4209.4758      2514.3984      921.79874      67.94598       500.80752    
  66496000   247.63755     -416.24086     -333.30382     -416.22621      0              3435.1765      31.138         21.471905      33.30216       22265.564      4312.8877      2753.7376      3238.9041      1237.2102     -1315.6238     -216.61978    
  66498000   247.26367     -418.00232     -335.19049     -418.00033      0              2804.0656      31.138         21.471905      33.291715      22258.58       2357.63        2998.5239      3056.0429     -701.61715      917.55059     -1905.6417    
  66500000   250.89881     -415.16871     -331.13943     -415.15177      0              4279.151       31.138         21.471905      33.394143      22327.063      3420.8742      3349.2874      6067.2914     -473.86462     -351.24778      839.82315    
  66502000   245.53978     -414.87945     -332.64497     -414.86495      0              3428.5749      31.138         21.471905      33.391439      22325.255      3811.8114      2133.6623      4340.2511      175.35978      524.0707      -1652.5096    
  66504000   247.88062     -417.84818     -334.82973     -417.83449      0              3422.7685      31.138         21.471905      33.273271      22246.249      4946.183       3899.8618      1422.2608     -550.03628     -737.70848     -978.49757    
  66506000   248.00439     -415.16059     -332.10069     -415.14488      0              4232.043       31.138         21.471905      33.331738      22285.339      5287.2208      4407.7744      3001.1338      1057.3978     -92.724546     -495.10754    
  66508000   252.48965     -413.27457     -328.7125      -413.25957      0              3160.5409      31.138         21.471905      33.431767      22352.218      3646.3201      3924.761       1910.5417     -422.51912     -521.3814       340.71162    
  66510000   248.88418     -415.93628     -332.58172     -415.92118      0              3006.2778      31.138         21.471905      33.33058       22284.565      3198.4477      3955.4296      1864.956       614.27054     -93.590896     -42.99118     
  66512000   251.49493     -415.89989     -331.67096     -415.88584      0              3059.7608      31.138         21.471905      33.36221       22305.713      4429.8898      3128.6284      1620.7641     -1150.2094      825.18782      79.185995    
  66514000   251.29031     -413.63757     -329.47717     -413.62367      0              1877.9151      31.138         21.471905      33.299151      22263.552      1494.7941      3620.5688      518.38256      662.50635     -800.27218      79.300869    
  66516000   247.81706     -415.47773     -332.48057     -415.49009      0              3433.8443      31.138         21.471905      33.216361      22208.199      2424.1985      3932.3167      3945.0177      237.81721     -402.61332      882.93413    
  66518000   248.56884     -416.36781     -333.11886     -416.35393      0              1874.0895      31.138         21.471905      33.292372      22259.02       1075.3008      2489.1997      2057.7679      563.05613      257.07863      1035.6171    
  66520000   253.12473     -415.17786     -330.40309     -415.16375      0              3312.3532      31.138         21.471905      33.267092      22242.118      3338.9359      3048.8216      3549.3022      1100.9113      350.84806      769.36116    
  66522000   252.5729      -418.18057     -333.59061     -418.16717      0              1412.2756      31.138         21.471905      33.201841      22198.491      2503.3733     -428.89811      2162.3517      34.337831     -1334.1113     -319.96417    
  66524000   247.31471     -412.55986     -329.73095     -412.54579      0              4600.5165      31.138         21.471905      33.012828      22072.119      4236.9802      5702.9924      3861.5769      1247.3089     -1209.3416     -671.27166    
  66526000   246.34483     -415.54638     -333.04229     -415.53738      0              2764.5205      31.138         21.471905      33.136872      22155.054      1626.725       2942.4343      3724.4022     -43.616153     -263.9537       1051.2428    
  66528000   249.48109     -414.37764     -330.82317     -414.3669       0              4954.1324      31.138         21.471905      33.209544      22203.642      4575.2497      5543.6889      4743.4588      1151.3053     -417.08492     -1010.1067    
  66530000   251.91345     -415.89522     -331.52612     -415.88943      0              1311.4711      31.138         21.471905      33.444797      22360.93       1590.5014     -166.93252      2510.8443     -850.05797      309.53029     -2582.2926    
  66532000   251.72708     -412.67677     -328.37009     -412.66288      0              1956.4998      31.138         21.471905      33.338926      22290.145      2687.0285      1751.6122      1430.8587     -974.5345      -1114.7082      772.45103    
  66534000   256.89464     -416.19472     -330.15736     -416.18033      0              2994.392       31.138         21.471905      33.558772      22437.133      2291.7405      3248.2176      3443.2178      949.81616     -11.650364      829.90916    
  66536000   242.89505     -416.56756     -335.21884     -416.55131      0              1814.332       31.138         21.471905      33.499412      22397.445      1695.4939      3646.8569      100.6451      -964.36582     -586.14481     -8.4706893    
  66538000   251.46917     -415.78309     -331.56279     -415.76926      0              1540.0696      31.138         21.471905      33.529019      22417.24       2057.411       1461.6515      1101.1463      2111.7379     -426.51012      285.31819    
  66540000   251.38805     -417.72055     -333.52741     -417.71825      0              4299.5404      31.138         21.471905      33.218862      22209.871      3081.1202      4711.8893      5105.6115      411.6678      -163.41148      749.40563    
  66542000   243.53246     -417.20675     -335.64455     -417.19298      0              1554.746       31.138         21.471905      33.445288      22361.258      2906.464       1396.7069      361.06698     -700.58715     -75.554957      536.20839    
  66544000   242.66185     -415.15879     -333.88817     -415.14688      0              3486.4393      31.138         21.471905      33.331919      22285.46       2406.1936      3193.9608      4859.1634     -856.73448     -158.07804      663.01559    
  66546000   250.04674     -415.6537      -331.90979     -415.63633      0              4500.303       31.138         21.471905      33.332716      22285.993      3720.8077      6923.4346      2856.6667      445.07968      502.04806      2057.093     
  66548000   250.40266     -415.63603     -331.77291     -415.62007      0              5034.6674      31.138         21.471905      33.321976      22278.813      3406.5656      6099.2387      5598.1981     -860.02748      1063.3765     -1025.3933    
  66550000   246.92666     -415.17437     -332.47541     -415.15724      0              2873.4693      31.138         21.471905      33.176274      22181.398      4020.4532      3561.8036      1038.1512     -1031.8499     -975.24635      1078.1077    
  66552000   245.64891     -416.59231     -334.32129     -416.59768      0              3974.2105      31.138         21.471905      33.332179      22285.634      3799.957       4345.4978      3777.1767      206.00123     -148.87417      312.84384    
  66554000   248.9178      -413.84073     -330.47491     -413.82017      0              2131.049       31.138         21.471905      33.336084      22288.245      1716.5591      2828.3345      1848.2535      1358.1366     -312.10122      179.10034    
  66556000   244.82634     -415.81344     -333.8179      -415.795        0              3520.6489      31.138         21.471905      33.378065      22316.313      3360.9374      4923.0257      2277.9837     -613.99411      1054.6116     -674.29962    
  66558000   241.71973     -414.64356     -333.68847     -414.63072      0              3039.7716      31.138         21.471905      33.446247      22361.899      3135.5782      2410.5495      3573.1872     -652.28208      882.4282       27.102167    
  66560000   255.96561     -417.18801     -331.46179     -417.17406      0              5315.1344      31.138         21.471905      33.391501      22325.296      5781.5529      6397.2967      3766.5534     -1212.6918      1187.062      -378.72404    
  66562000   258.25702     -418.51527     -332.02162     -418.49827      0              2077.02        31.138         21.471905      33.48657       22388.859      243.59243      3084.1346      2903.3329     -477.52681      408.91686      315.53819    
  66564000   246.55809     -418.35595     -335.78043     -418.34145      0              2035.3382      31.138         21.471905      33.428564      22350.076      1330.5251      1092.7818      3682.7076     -909.64857      665.86111     -424.70673    
  66566000   251.26005     -415.4189      -331.26863     -415.40492      0              1824.3535      31.138         21.471905      33.509336      22404.08       1906.1462      1234.5185      2332.3959     -256.28184      737.56485      563.60295    
  66568000   251.74339     -418.08949     -333.77734     -418.076        0              2395.8622      31.138         21.471905      33.42352       22346.704      1676.6833      1910.5612      3600.3421     -675.53054     -321.7839       178.3331     
[...]
  73218000   245.10066     -415.16155     -333.07415     -415.15042      0              2553.8561      31.138         21.471905      33.251655      22231.797      3714.7476      640.46855      3306.3522     -1464.1188      620.47338      240.86634    
  73220000   261.57479     -416.79456     -329.18975     -416.78907      0              4064.3312      31.138         21.471905      33.153826      22166.389      2267.3609      7538.4425      2387.1902      647.68173      112.63639     -970.06266    
  73222000   247.07283     -416.09575     -333.34784     -416.08185      0              1827.2064      31.138         21.471905      33.159547      22170.214      2418.3409      954.09815      2109.1803     -2147.2027     -132.03943     -481.95483    
  73224000   255.29379     -413.5465      -328.04528     -413.52778      0              3089.5213      31.138         21.471905      33.407546      22336.024      3062.0404      3552.3825      2654.141      -937.77802      1668.7723      372.61623    
  73226000   255.46512     -417.17017     -331.61157     -417.16131      0              1371.9956      31.138         21.471905      33.332641      22285.943      3165.278       2585.5019     -1634.7931      1888.8457      891.83368      154.86936    
  73228000   256.58333     -415.8131      -329.88        -415.80785      0              2299.8096      31.138         21.471905      33.283274      22252.936      3286.0832      2295.4852      1317.8605     -1069.8956      717.62456     -426.74668    
  73230000   253.72076     -415.3112      -330.33681     -415.29297      0              817.88663      31.138         21.471905      33.3969        22328.906     -1225.3502      2636.8467      1042.1634      322.17972     -168.40802     -1118.5016    
  73232000   244.01672     -416.00015     -334.27577     -415.98516      0              3980.9934      31.138         21.471905      33.296073      22261.494      5577.2011      2912.9371      3452.842      -1156.8652      1072.4702      206.01086    
  73234000   246.30176     -414.45068     -331.961       -414.44464      0              3372.2314      31.138         21.471905      33.129201      22149.925      4921.5442      1815.1415      3380.0083     -929.61        -1615.599      -397.63558    
  73236000   246.67174     -413.76957     -331.15599     -413.76057      0              5640.779       31.138         21.471905      33.36367       22306.689      7579.0162      4137.1086      5206.2122     -856.60195     -379.22023     -389.17614    
  73238000   250.03735     -415.18231     -331.44154     -415.16433      0              4149.8546      31.138         21.471905      33.508749      22403.688      2956.4222      4315.9048      5177.2367      633.56485      530.05546     -769.76564    
  73240000   247.0329      -414.61546     -331.88092     -414.59672      0              2468.4278      31.138         21.471905      33.528628      22416.978      4585.2972      1191.8382      1628.1481     -2522.6536      187.98618     -172.79706    
  73242000   245.5509      -414.48544     -332.24725     -414.46609      0              2623.9941      31.138         21.471905      33.505493      22401.51       3085.1096      1993.3896      2793.4832     -569.48197      1884.3081      1519.1236    
  73244000   247.56777     -417.07024     -334.15656     -417.06522      0              3537.7688      31.138         21.471905      33.32252       22279.176      4443.8074      2774.7317      3394.7674      670.87241     -26.296796      875.70417    
  73246000   244.4373      -414.52401     -332.65877     -414.5109       0              4482.8004      31.138         21.471905      33.388105      22323.026      4475.9799      3386.3083      5586.113       564.46055     -1540.5255      1274.5907    
  73248000   247.84606     -414.71496     -331.70808     -414.69695      0              4130.6972      31.138         21.471905      33.570192      22444.768      2834.2005      5215.3955      4342.4956      437.22811     -8.3190023     -1322.6235    
  73250000   242.85347     -414.23694     -332.90215     -414.22984      0              2475.4507      31.138         21.471905      33.361813      22305.447      3839.8273      343.7189       3242.8061      538.39331     -1110.6408      678.04718    
  73252000   260.15395     -414.77047     -327.64152     -414.76334      0              5218.663       31.138         21.471905      33.387458      22322.593      6084.4672      5348.6242      4222.8978     -426.16307      37.7451       -621.55566    
  73254000   248.45188     -414.74215     -331.53238     -414.77613      0              5957.842       31.138         21.471905      33.091814      22124.928      6795.6442      5293.5274      5784.3543     -443.74703     -57.080847      1481.0778    
  73256000   249.54929     -417.84028     -334.26298     -417.85858      0              5122.6528      31.138         21.471905      33.338497      22289.859      5867.8905      4372.1283      5127.9396      1614.6505      982.04669     -1132.7629    
  73258000   248.99965     -416.36087     -332.96765     -416.35513      0              3877.0696      31.138         21.471905      33.356269      22301.74       6142.1862      4972.913       516.1096      -620.80422     -87.698214     -2268.3847    
  73260000   251.31315     -415.77425     -331.6062      -415.76119      0              3024.9538      31.138         21.471905      33.39024       22324.453      3631.9967      2094.8295      3348.0353      92.09002      -60.024594      1295.7753    
  73262000   254.87895     -414.69593     -329.33365     -414.68632      0              4076.1256      31.138         21.471905      33.353058      22299.594      3403.9454      4169.0608      4655.3706      1366.4918     -562.00242      744.79182    
  73264000   248.40584     -413.92785     -330.7335      -413.91571      0              2315.4339      31.138         21.471905      33.500576      22398.223      2399.8543      3406.5511      1139.8963     -1420.1068      2189.8806     -735.34967    
  73266000   249.06951     -415.25039     -331.83377     -415.23904      0              2301.5574      31.138         21.471905      33.711103      22538.98       3995.3408      2329.8714      579.45992      925.46984      215.49813     -1101.1471    
  73268000   249.79528     -415.59416     -331.93446     -415.57834      0              2643.8813      31.138         21.471905      33.429098      22350.434      2585.5952      3225.8227      2120.2261      161.44706      2150.6589     -785.42505    
  73270000   253.3619      -414.83278     -329.97858     -414.82144      0              4696.3606      31.138         21.471905      33.255809      22234.574      4006.7965      5511.6993      4570.5861     -282.73034      1023.4551      102.25045    
  73272000   252.0312      -414.75177     -330.34324     -414.74252      0              3966.8314      31.138         21.471905      33.346801      22295.41       6088.3787      2012.9198      3799.1957     -812.49373     -629.67332      4.5290019    
  73274000   249.65362     -414.02675     -330.41449     -414.00996      0              3060.9701      31.138         21.471905      33.370243      22311.083      279.72366      6612.3954      2290.7912     -235.34429     -439.78102     -95.899629    
  73276000   249.33436     -414.98942     -331.48409     -414.97976      0              3948.8943      31.138         21.471905      33.423398      22346.623      4406.8198      4352.6521      3087.211       660.5962      -243.79841     -799.61328    
  73278000   259.18008     -414.7436      -327.94081     -414.73193      0              3979.3683      31.138         21.471905      33.51496       22407.84       4116.4088      4599.8081      3221.888       307.84511     -1936.82       -371.11015    
  73280000   250.75108     -415.2409      -331.26109     -415.23067      0              3601.214       31.138         21.471905      33.401233      22331.803      5075.6341      2653.0651      3074.9427      54.875057     -1008.8064      666.49947    
  73282000   245.34808     -415.97409     -333.80382     -415.96875      0              1980.5515      31.138         21.471905      33.554694      22434.406      2711.3661      162.21783      3068.0706     -313.02073      482.72403      276.71312    
  73284000   255.02942     -413.66537     -328.25269     -413.64662      0              2147.9061      31.138         21.471905      33.664112      22507.562      3447.9642      2004.9243      990.82986     -1314.592      -299.07302      551.93686    
  73286000   247.4389      -415.56334     -332.69282     -415.54503      0              4099.2989      31.138         21.471905      33.653689      22500.593      5608.6532      3443.8217      3245.422      -801.3799       724.18946     -692.08761    
  73288000   251.1267      -415.93929     -331.83369     -415.92061      0              3858.3646      31.138         21.471905      33.499351      22397.404      3153.719       3578.0682      4843.3067     -411.84923      103.51413      291.61068    
  73290000   251.22342     -416.27904     -332.14104     -416.26872      0              1852.5239      31.138         21.471905      33.543547      22426.953      2127.1793      3310.046       120.34633      592.45163      448.64756     -838.95564    
  73292000   254.89907     -416.04399     -330.67497     -416.02784      0              3449.5135      31.138         21.471905      33.494404      22394.097      2323.9165      2490.2107      5534.4134      84.941417     -826.99489     -387.1608     
  73294000   256.95519     -417.11376     -331.05611     -417.09973      0              4890.0351      31.138         21.471905      33.322541      22279.19       6683.1058      4404.5533      3582.4461     -62.487463     -1527.5838     -254.82451    
  73296000   251.4118      -415.62754     -331.42645     -415.61999      0              3258.0319      31.138         21.471905      33.519015      22410.551      4017.9098      2282.6553      3473.5305     -1975.6343      252.91153     -93.420694    
  73298000   257.50067     -415.444       -329.20367     -415.42915      0              2915.7901      31.138         21.471905      33.576276      22448.836      3262.4206      3879.1732      1605.7766     -968.24209      1169.6797     -1607.5331    
  73300000   256.80934     -415.84015     -329.83136     -415.82539      0              4208.4991      31.138         21.471905      33.518281      22410.06       3827.0173      4447.9065      4350.5735      876.61574      768.59775      235.54843    
  73302000   248.53659     -416.75714     -333.519       -416.74719      0              1119.695       31.138         21.471905      33.626066      22482.125      2272.3296     -237.26307      1324.0186     -958.13648      1280.5272      465.82781    
  73304000   243.76054     -416.73601     -335.09743     -416.71728      0              4541.7083      31.138         21.471905      33.599039      22464.055      4449.501       5644.1307      3531.493      -528.65738      119.72594     -1592.4184    
  73306000   250.89122     -414.82169     -330.79495     -414.80812      0              2832.2593      31.138         21.471905      33.505813      22401.725      2276.5728      3963.5102      2256.6948     -43.952052      448.21187     -1444.6471    
  73308000   247.14835     -414.58531     -331.8121      -414.57111      0              1244.8346      31.138         21.471905      33.500284      22398.028      701.41437      3729.9457     -696.85617      141.5144      -1494.489       1034.4124    
  73310000   251.14714     -415.23191     -331.11946     -415.21356      0              3437.4205      31.138         21.471905      33.571235      22445.465      3677.2787      4693.5341      1941.4488      1339.4964     -1384.1379     -1538.3914    
  73312000   246.4299      -417.283       -334.75041     -417.26578      0              5128.3607      31.138         21.471905      33.470317      22377.992      6735.1767      2906.7584      5743.1472     -1887.0639     -532.88527      1001.8592    
  73314000   249.31793     -416.75711     -333.25728     -416.73912      0              1720.5257      31.138         21.471905      33.610664      22471.827      1065.4328      2643.7717      1452.3727     -866.60747     -79.871553      1228.2823    
  73316000   252.0263      -417.07626     -332.66937     -417.06272      0              3558.9694      31.138         21.471905      33.433603      22353.445      4075.7101      2705.7948      3895.4033     -1213.6046     -91.430567     -624.44741    
  73318000   249.48227     -418.05016     -334.49529     -418.04172      0              1255.87        31.138         21.471905      33.617757      22476.569      1123.8576      1547.4658      1096.2864      608.64129     -1047.7923      499.28086    
  73320000   246.10757     -418.25872     -335.83409     -418.23989      0              5549.6395      31.138         21.471905      33.562877      22439.877      5580.3916      5186.5771      5881.9498      370.11832     -1065.728      -1192.9029    
  73322000   255.66112     -416.20688     -330.58264     -416.18981      0              4030.3501      31.138         21.471905      33.473324      22380.002      4309.036       2413.4958      5368.5185      714.2254       1550.626       451.57333    
  73324000   246.78764     -418.09347     -335.44108     -418.08116      0              3980.803       31.138         21.471905      33.579558      22451.03       2492.9381      5770.3962      3679.0747      235.80601     -166.5937      -916.00679    
  73326000   244.47692     -415.19494     -333.31643     -415.17753      0              4921.3649      31.138         21.471905      33.674769      22514.687      4428.8101      5014.3453      5320.9391      2405.1738      1339.2747      422.93119    
  73328000   248.43063     -417.10082     -333.89816     -417.08134      0              1743.63        31.138         21.471905      33.437343      22355.946      909.77966      1779.2413      2541.8692      365.47541      634.36413     -348.76449    
  73330000   252.701       -418.64417     -334.01131     -418.62916      0              4532.6951      31.138         21.471905      33.463671      22373.549      2635.138       5325.7374      5637.2098      2.1485086     -39.558728      449.68538    
  73332000   249.99783     -412.89374     -329.1662      -412.87923      0              3938.645       31.138         21.471905      33.468991      22377.105      5675.3729      2263.4332      3877.129      -515.32615      454.9301      -650.51686    
  73334000   248.394       -416.67284     -333.48245     -416.65592      0              4018.0066      31.138         21.471905      33.435955      22355.018      4254.0532      4326.8519      3473.1148      115.66298     -1583.9256      169.77711    
  73336000   248.07338     -417.24711     -334.1641      -417.23717      0              2415.6365      31.138         21.471905      33.606845      22469.274      2315.3119      2523.4816      2408.1158     -2041.7793     -804.22659      486.70114    
  73338000   252.00319     -416.28869     -331.88954     -416.27345      0              3478.808       31.138         21.471905      33.668691      22510.624      5012.1311      4494.6903      929.6024       33.06566       653.50954      312.05678    
  73340000   250.71731     -416.83851     -332.87002     -416.83069      0              3258.7308      31.138         21.471905      33.394265      22327.144      2428.4334      5535.5825      1812.1766      683.99605      353.8966       7.2519929    
  73342000   250.87417     -418.05296     -334.03193     -418.04346      0              5194.5888      31.138         21.471905      33.522624      22412.964      4751.8194      4750.9144      6081.0327     -389.54062      235.84836     -35.392254    
  73344000   253.97476     -414.1983      -329.13884     -414.18075      0              2683.4398      31.138         21.471905      33.437129      22355.803      2830.0852      2513.159       2707.0752     -312.26657     -960.9071       1037.2336    
  73346000   249.20681     -414.53735     -331.07474     -414.52834      0              4531.6258      31.138         21.471905      33.414486      22340.664      6286.4467      4918.5743      2389.8563     -825.05203     -46.102345     -111.0444     
  73348000   245.01644     -416.07562     -334.01642     -416.07392      0              1735.9268      31.138         21.471905      33.480895      22385.065      1800.3715      1475.4094      1931.9994     -139.56779      332.91617      41.227575    
  73350000   252.17571     -415.83465     -331.37772     -415.81893      0              4042.2335      31.138         21.471905      33.447327      22362.621      4807.8515      4480.8955      2837.9536     -919.00341     -809.67687      1395.4814    
  73352000   252.05864     -417.14344     -332.72571     -417.1284       0              3806.432       31.138         21.471905      33.613634      22473.813      6073.1476      3255.4888      2090.6595      1776.3445     -1187.814      -378.17426    
  73354000   242.45923     -415.46888     -334.26612     -415.45978      0              1569.2501      31.138         21.471905      33.546069      22428.639      1849.3271      2023.4577      834.96573     -1420.9727     -38.019705      68.070888    
  73356000   255.6316      -416.26728     -330.65293     -416.25651      0              5295.3381      31.138         21.471905      33.530384      22418.153      4750.9329      5532.7003      5602.381       115.89595     -318.69894      98.788494    
  73358000   243.56626     -416.8383      -335.26478     -416.83273      0              1755.4239      31.138         21.471905      33.5576        22436.349      1930.338       1583.8281      1752.1057      19.283346     -199.51447      866.2704     
  73360000   246.80814     -418.12169     -335.46242     -418.11348      0              3696.8353      31.138         21.471905      33.428592      22350.095      3843.4529      3772.825       3474.228       132.93709     -1678.9309      804.59315    
WARNING: Wall time limit reached (../timer.cpp:193)
Loop time of 85799.8 on 4 procs for 7361000 steps with 2592 atoms

Performance: 3.706 ns/day, 6.476 hours/ns, 85.793 timesteps/s
1410.6% CPU use with 4 MPI tasks x no OpenMP threads

MPI task timing breakdown:
Section |  min time  |  avg time  |  max time  |%varavg| %total
---------------------------------------------------------------
Pair    | 20402      | 20637      | 20875      | 119.9 | 24.05
Bond    | 0.74419    | 0.77974    | 0.83092    |   4.1 |  0.00
Neigh   | 614.05     | 625.04     | 637.42     |  37.1 |  0.73
Comm    | 2307.8     | 2553.6     | 2794.8     | 349.9 |  2.98
Output  | 8145.2     | 8145.2     | 8145.3     |   0.1 |  9.49
Modify  | 53810      | 53818      | 53825      |   2.7 | 62.72
Other   |            | 20.39      |            |       |  0.02

Nlocal:            648 ave         664 max         626 min
Histogram: 1 0 0 1 0 0 0 0 0 2
Nghost:        4130.75 ave        4150 max        4103 min
Histogram: 1 0 0 0 0 1 0 1 0 1
Neighs:              0 ave           0 max           0 min
Histogram: 4 0 0 0 0 0 0 0 0 0
FullNghs:       159814 ave      167291 max      151679 min
Histogram: 1 1 0 0 0 0 0 0 0 2

Total # of neighbors = 639256
Ave neighs/atom = 246.62654
Ave special neighs/atom = 0
Neighbor list builds = 147220
Dangerous builds not checked
unfix 3
unfix 1
unfix 2


# Finalize simulation
write_restart	restart.lmp.${pid}
write_restart	restart.lmp.0
System init for write_restart ...
Generated 0 of 1 mixed pair_coeff terms from geometric mixing rule
write_data	data.final.${pid} nocoeff
write_data	data.final.0 nocoeff
System init for write_data ...
Generated 0 of 1 mixed pair_coeff terms from geometric mixing rule
Total wall time: 23:50:16
