LAMMPS (23 Jun 2022)
include procedure.lmp
echo both
include		in.partitions
variable        pid world 0
include		in.temp
variable	temperature equal 250
variable        tempDamp equal 0.100 # this is 0.1 ps
include		in.pressure
variable        pressure equal 3039.75
variable        pressureDamp equal 1.0 #this is 1ps

variable	barostat string	   tri
variable	direction string   z
variable	direction_x_bool equal 0
variable	direction_y_bool equal 0
variable	direction_z_bool equal 1

include		in.seed
variable        seed world 745823

units           metal
atom_style	full
box tilt large
read_restart 	restart.lmp.${pid}
read_restart 	restart.lmp.0
Reading restart file ...
  restart file = 23 Jun 2022, LAMMPS = 23 Jun 2022
  restoring atom style full from restart
  triclinic box = (0 0 -0.61367989) to (31.138 21.471905 32.809519) with tilt (-9.185133 -9.0383494 10.802926)
WARNING: Triclinic box skew is large (../domain.cpp:224)
  2 by 1 by 2 MPI processor grid
Summary of lammps deepmd module ...
  >>> Info of deepmd-kit:
  installed to:       /u/sigbjobo/software/DEEPMD_FROM_SOURCE/deepmd-kit/install
  source:             v2.1.3
  source branch:       master
  source commit:      5a32c49
  source commit at:   2022-07-01 09:52:58 +0800
  surpport model ver.:1.1 
  build float prec:   double
  build with tf inc:  /u/sigbjobo/software/DEEPMD_FROM_SOURCE/tensorflow/install/include;/u/sigbjobo/software/DEEPMD_FROM_SOURCE/tensorflow/install/include
  build with tf lib:  /u/sigbjobo/software/DEEPMD_FROM_SOURCE/tensorflow/install/lib/libtensorflow_cc.so;/u/sigbjobo/software/DEEPMD_FROM_SOURCE/tensorflow/install/lib/libtensorflow_framework.so
  set tf intra_op_parallelism_threads: 0
  set tf inter_op_parallelism_threads: 0
  >>> Info of lammps module:
  use deepmd-kit at:  /u/sigbjobo/software/DEEPMD_FROM_SOURCE/deepmd-kit/install
  source:             v2.1.3
  source branch:      master
  source commit:      5a32c49
  source commit at:   2022-07-01 09:52:58 +0800
  build float prec:   double
  build with tf inc:  /u/sigbjobo/software/DEEPMD_FROM_SOURCE/tensorflow/install/include;/u/sigbjobo/software/DEEPMD_FROM_SOURCE/tensorflow/install/include
  build with tf lib:  /u/sigbjobo/software/DEEPMD_FROM_SOURCE/tensorflow/install/lib/libtensorflow_cc.so;/u/sigbjobo/software/DEEPMD_FROM_SOURCE/tensorflow/install/lib/libtensorflow_framework.so
  restoring pair style deepmd from restart
  2592 atoms
Finding 1-2 1-3 1-4 neighbors ...
  special bond factors lj:    0        0        0       
  special bond factors coul:  0        0        0       
     0 = max # of 1-2 neighbors
     0 = max # of 1-3 neighbors
     0 = max # of 1-4 neighbors
     1 = max # of special neighbors
  special bonds CPU = 0.001 seconds
  read_restart CPU = 0.008 seconds
include 	in.setup
variable	out_freq equal 2000
variable	out_freq2 equal 2000

timestep        0.0005

neigh_modify    delay 7 every 1

include         in.deepmd
# This is deepMD model

# create groups ###
#group ox type 2
#group hy type 1

mass 2 15.999
mass 1 1.008

pair_style      deepmd ../graph.pb
pair_coeff      * *

bond_style      none
angle_style     none
dihedral_style  none
improper_style  none
neigh_modify exclude none


neighbor        2.0 bin
neigh_modify    every 50 delay 0 check no

thermo          ${out_freq}
thermo          2000
thermo_style 	custom step temp pe etotal epair emol press lx ly lz vol pxx pyy pzz pxy pxz pyz

restart 	${out_freq} restart.lmp.${pid} restart2.lmp.${pid}
restart 	2000 restart.lmp.${pid} restart2.lmp.${pid}
restart 	2000 restart.lmp.0 restart2.lmp.${pid}
restart 	2000 restart.lmp.0 restart2.lmp.0


timer           timeout 23:50:00 every 1000
New timer settings: style=normal  mode=nosync  timeout=23:50:00


# Set number of time steps
variable 	nsteps_wall		equal	 6000000
variable 	nsteps_enhanced_coex    equal	300000000

variable     nsteps_enhanced_coex_upto equal (${nsteps_wall}+${nsteps_enhanced_coex})
variable     nsteps_enhanced_coex_upto equal (6000000+${nsteps_enhanced_coex})
variable     nsteps_enhanced_coex_upto equal (6000000+300000000)


# Set temperature for first step
if "$(step) < 1  " then    "velocity 	all create ${temperature} ${seed} dist gaussian"


# Always run thermo and barostat


######################################
# Run simulation with wall potential #
######################################
if " $(step) < ${nsteps_wall} " then    "fix             3 all plumed plumedfile plumed.equil.dat outfile plumed.equil.out"   "fix             1 all nph ${direction} ${pressure} ${pressure} ${pressureDamp}"   "fix             2 all temp/csvr ${temperature} ${temperature} ${tempDamp} ${seed}"   "run             ${nsteps_wall} upto"
if " $(step) == ${nsteps_wall} " then    "unfix 3"   "unfix 1"   "unfix 2"


############################
# Run enhanced coesistence #
############################
if "$(step) == ${nsteps_wall}" then    "fix             3 all plumed plumedfile plumed.start.dat outfile plumed.out" else    "fix             3 all plumed plumedfile plumed.dat outfile plumed.out"
fix             3 all plumed plumedfile plumed.dat outfile plumed.out

if "$(step) < ${nsteps_enhanced_coex_upto} && $(step) >= ${nsteps_wall} " then    "include         in.dump"    "fix             1 all nph ${direction} ${pressure} ${pressure} ${pressureDamp}"   "fix             2 all temp/csvr ${temperature} ${temperature} ${tempDamp} ${seed}"   "run             ${nsteps_enhanced_coex_upto} upto"    "unfix 3"   "unfix 1"   "unfix 2"
include         in.dump
dump            myDump all atom ${out_freq2} dump.water.${pid}
dump            myDump all atom 2000 dump.water.${pid}
dump            myDump all atom 2000 dump.water.0
dump            myDump2 all dcd ${out_freq2} dump.${pid}.dcd
dump            myDump2 all dcd 2000 dump.${pid}.dcd
dump            myDump2 all dcd 2000 dump.0.dcd
dump_modify     myDump append yes
dump_modify     myDump2 append yes

fix             1 all nph ${direction} ${pressure} ${pressure} ${pressureDamp}
fix             1 all nph z ${pressure} ${pressure} ${pressureDamp}
fix             1 all nph z 3039.75 ${pressure} ${pressureDamp}
fix             1 all nph z 3039.75 3039.75 ${pressureDamp}
fix             1 all nph z 3039.75 3039.75 1
fix             2 all temp/csvr ${temperature} ${temperature} ${tempDamp} ${seed}
fix             2 all temp/csvr 250 ${temperature} ${tempDamp} ${seed}
fix             2 all temp/csvr 250 250 ${tempDamp} ${seed}
fix             2 all temp/csvr 250 250 0.1 ${seed}
fix             2 all temp/csvr 250 250 0.1 745823
run             ${nsteps_enhanced_coex_upto} upto
run             306000000 upto

CITE-CITE-CITE-CITE-CITE-CITE-CITE-CITE-CITE-CITE-CITE-CITE-CITE

Your simulation uses code contributions which should be cited:

- USER-DEEPMD package:

@article{Wang_ComputPhysCommun_2018_v228_p178,
  author = {Wang, Han and Zhang, Linfeng and Han, Jiequn and E, Weinan},
  doi = {10.1016/j.cpc.2018.03.016},
  url = {https://doi.org/10.1016/j.cpc.2018.03.016},
  year = 2018,
  month = {jul},
  publisher = {Elsevier {BV}},
  volume = 228,
  journal = {Comput. Phys. Commun.},
  title = {{DeePMD-kit: A deep learning package for many-body potential energy representation and molecular dynamics}},
  pages = {178--184}
}

CITE-CITE-CITE-CITE-CITE-CITE-CITE-CITE-CITE-CITE-CITE-CITE-CITE

Generated 0 of 1 mixed pair_coeff terms from geometric mixing rule
Neighbor list info ...
  update every 50 steps, delay 0 steps, check no
  max neighbors/atom: 2000, page size: 100000
  master list distance cutoff = 8
  ghost atom cutoff = 8
  binsize = 4, bins = 13 9 9
  1 neighbor lists, perpetual/occasional/extra = 1 0 0
  (1) pair deepmd, perpetual
      attributes: full, newton on
      pair build: full/bin
      stencil: full/bin/3d
      bin: standard
Per MPI rank memory allocation (min/avg/max) = 7.299 | 7.301 | 7.302 Mbytes
   Step          Temp          PotEng         TotEng         E_pair         E_mol          Press            Lx             Ly             Lz           Volume          Pxx            Pyy            Pzz            Pxy            Pxz            Pyz      
 139336000   256.99197     -415.32504     -329.25508     -415.32504      0              3252.0164      31.138         21.471905      33.423199      22346.489      2009.6162      4930.2033      2816.2298      147.95868     -340.67926     -1779.0687    
 139338000   252.83688     -416.88565     -332.20728     -416.89427      0              3221.1218      31.138         21.471905      33.391499      22325.295      3015.4278      3127.1576      3520.7799      344.97097      247.4191      -1218.1375    
 139340000   247.0245      -418.18117     -335.44944     -418.19127      0              2787.5469      31.138         21.471905      33.39666       22328.745      2543.7845      2824.4551      2994.401       226.46844     -482.59798      336.43466    
 139342000   249.48946     -418.71449     -335.15722     -418.72078      0              4397.7222      31.138         21.471905      33.490842      22391.715      4349.6474      3873.2514      4970.2677      477.19331     -22.395289     -773.63045    
 139344000   250.30235     -418.40585     -334.57633     -418.41404      0              3969.8821      31.138         21.471905      33.402935      22332.941      3975.2995      4694.8156      3239.5311      790.33388     -140.94091     -908.70254    
 139346000   253.72224     -415.98195     -331.00706     -415.98548      0              3780.422       31.138         21.471905      33.235712      22221.137      4433.2354      4438.2371      2469.7935      818.31213     -11.37842      -927.85658    
 139348000   244.84016     -414.10061     -332.10045     -414.10216      0              4307.7809      31.138         21.471905      33.280379      22251.001      4203.0414      4592.7626      4127.5385     -517.80682      1059.1816     -1243.3167    
 139350000   247.84924     -418.75212     -335.74418     -418.76428      0              3210.7053      31.138         21.471905      33.328749      22283.341      3855.0088      3537.1801      2239.9269      378.59023      1656.4272     -378.86203    
 139352000   249.54555     -417.62178     -334.04572     -417.62751      0              4854.079       31.138         21.471905      33.310473      22271.122      5172.3384      5967.4864      3422.4121      504.50809      1226.827      -337.63664    
 139354000   249.5076      -419.63791     -336.07456     -419.64817      0              888.58946      31.138         21.471905      33.550516      22431.612      2117.7967     -1380.0421      1928.0138      1138.584       234.51921     -358.59781    
 139356000   242.51131     -417.0176      -335.7974      -417.02457      0              2611.5503      31.138         21.471905      33.407433      22335.949      2657.4823      2646.5975      2530.5711     -1602.7314      94.313913     -856.45886    
 139358000   245.20037     -415.95236     -333.83156     -415.96057      0              3115.2596      31.138         21.471905      33.399851      22330.879      4276.2657      2466.1983      2603.3149      782.88987      1432.9259     -230.62289    
 139360000   257.04751     -417.14841     -331.05985     -417.15617      0              2800.735       31.138         21.471905      33.439911      22357.663      3025.2928      3150.517       2226.3952      530.28407     -2064.4605     -482.1521     
 139362000   256.15349     -415.11912     -329.32997     -415.12387      0              3980.9761      31.138         21.471905      33.467233      22375.931      2848.2445      4594.8236      4499.8602     -354.68289     -942.40855      632.48334    
 139364000   247.33958     -417.05683     -334.21957     -417.06708      0              3326.2295      31.138         21.471905      33.705371      22535.148      2744.322       4479.456       2754.9104      484.03134     -945.72072     -1160.7505    
 139366000   257.13336     -415.11191     -328.9946      -415.11466      0              4839.0598      31.138         21.471905      33.41352       22340.018      5520.833       4435.9051      4560.4415      393.35041      1480.4657      565.14353    
 139368000   254.10106     -419.14318     -334.04143     -419.1505       0              3776.1132      31.138         21.471905      33.492752      22392.992      4488.422       2644.632       4195.2856     -1315.336       786.48344      792.6356     
 139370000   245.41504     -418.47682     -336.28413     -418.48048      0              3109.9287      31.138         21.471905      33.239886      22223.928      1465.5427      3545.6557      4318.5877     -456.99027      363.00862      502.48077    
 139372000   247.80124     -418.25273     -335.26086     -418.25812      0              2546.2343      31.138         21.471905      33.26364       22239.809      1969.6417      3313.3544      2355.7069     -260.40055      309.40916     -209.2807     
 139374000   255.45501     -417.47265     -331.91744     -417.47977      0              3353.725       31.138         21.471905      33.28566       22254.532      3304.1652      3276.2328      3480.7771      923.17701      841.26776     -549.3315     
 139376000   251.95669     -419.2283      -334.84472     -419.23988      0              2198.6299      31.138         21.471905      33.31532       22274.363      2905.8088      2498.8142      1191.2668      281.84743     -95.406865      441.50109    
 139378000   248.26097     -416.39787     -333.25204     -416.40634      0              3455.4634      31.138         21.471905      33.476135      22381.882      3620.5487      2104.8838      4640.9578      603.29758      621.29915      286.2917     
 139380000   245.4909      -417.71527     -335.49717     -417.73129      0              2958.7751      31.138         21.471905      33.414907      22340.946      3090.9266      1190.0679      4595.3307      354.9035       783.63746      560.49931    
 139382000   249.55769     -417.37976     -333.79964     -417.39045      0              2984.7967      31.138         21.471905      33.330131      22284.265      2241.7124      3446.6905      3265.9873      978.88064     -63.596262      385.36417    
 139384000   246.32882     -417.00184     -334.50311     -417.00123      0              2941.3444      31.138         21.471905      33.491716      22392.3        2675.8139      3676.2355      2471.9839      729.10761      2112.0309      1183.8171    
 139386000   252.03747     -416.0862      -331.67556     -416.08931      0              3954.9296      31.138         21.471905      33.586421      22455.618      3809.0475      4053.0899      4002.6515     -183.37468      1500.9354      808.62175    
 139388000   252.76445     -418.76208     -334.10797     -418.76881      0              3561.2689      31.138         21.471905      33.276366      22248.318      4719.6994      3975.6904      1988.4169      1032.1        -2029.728       1685.5616    
 139390000   250.35247     -416.19872     -332.35241     -416.19093      0              1546.0843      31.138         21.471905      33.439526      22357.406      972.53181      1279.4393      2386.2819      354.44665     -1300.903       794.91068    
 139392000   250.64591     -415.47168     -331.5271      -415.4754       0              2947.4586      31.138         21.471905      33.339652      22290.631      1992.0936      2864.9757      3985.3066     -490.63248     -214.22581     -320.27976    
 139394000   248.99754     -417.87741     -334.48489     -417.88647      0              3651.3966      31.138         21.471905      33.438339      22356.612      1683.7944      6175.6233      3094.7721      1029.646       1111.9886      355.02293    
 139396000   248.87715     -416.52734     -333.17514     -416.53633      0              1566.4139      31.138         21.471905      33.356149      22301.66       1241.7513      743.82679      2713.6635      1470.063       531.96792      738.99655    
 139398000   256.22777     -416.42447     -330.61045     -416.43111      0              1289.1146      31.138         21.471905      33.723562      22547.31      -205.5028       1885.9786      2186.8679     -565.11552      1408.2088     -330.38444    
 139400000   253.77908     -414.86702     -329.8731      -414.87256      0              3726.0524      31.138         21.471905      33.53594       22421.867      2961.6123      3493.3738      4723.171       90.409236      201.20599      1356.9063    
 139402000   254.61676     -414.90663     -329.63216     -414.90552      0              2966.9443      31.138         21.471905      33.391479      22325.281      3553.1635      1995.3345      3352.3348      297.51287      136.65318      540.17042    
 139404000   249.54959     -419.27897     -335.70156     -419.27303      0              2274.7654      31.138         21.471905      33.461781      22372.285     -1340.7222      3776.8124      4388.206      -77.038805      1231.568      -134.07678    
 139406000   252.52682     -419.18453     -334.61001     -419.1893       0              2652.3545      31.138         21.471905      33.504181      22400.633      4727.0577      1407.9776      1822.0283      844.59482      79.941209     -980.53397    
 139408000   256.38713     -415.11769     -329.25029     -415.11707      0              2623.2927      31.138         21.471905      33.517937      22409.83       3289.8064      1462.4699      3117.6018     -1151.7366      1263.7723     -705.40444    
 139410000   249.22302     -416.35006     -332.88202     -416.35273      0              3197.9577      31.138         21.471905      33.521166      22411.989      2833.8193      3497.0747      3262.9791     -980.81619     -20.247877      2406.066     
 139412000   248.434       -416.45138     -333.2476      -416.44795      0              3112.4172      31.138         21.471905      33.490474      22391.469      3376.0089      2283.1125      3678.1302      103.46627     -1065.6265     -889.18889    
 139414000   254.0194      -414.33798     -329.26357     -414.33656      0              2612.4392      31.138         21.471905      33.342479      22292.521      2012.8485      4878.1464      946.32265      1095.275      -537.57918      299.70661    
 139416000   250.82827     -416.34666     -332.341       -416.35259      0              4592.1683      31.138         21.471905      33.616236      22475.553      4797.6937      4848.9542      4129.8569      979.33741     -275.04828     -63.2525      
 139418000   254.44855     -420.10537     -334.88723     -420.11268      0              4796.5262      31.138         21.471905      33.305608      22267.869      4285.4124      5009.2326      5094.9335      2364.7511     -374.15235     -751.03019    
 139420000   251.04349     -415.41516     -331.33743     -415.41511      0              2743.7587      31.138         21.471905      33.240488      22224.33       3308.0691      1875.2427      3047.9642      524.62422     -501.23544      1613.166     
 139422000   249.85482     -417.39119     -333.71155     -417.39585      0              2564.9548      31.138         21.471905      33.273511      22246.409      2828.5376      2675.5374      2190.7894     -301.97387      541.31161     -41.458424    
 139424000   248.24315     -415.28126     -332.1414      -415.2723       0              4651.3699      31.138         21.471905      33.277329      22248.962      3977.171       6029.2594      3947.6793      22.148615     -319.81523     -412.61069    
 139426000   246.6616      -419.37258     -336.76239     -419.3816       0              1934.7621      31.138         21.471905      33.401591      22332.043      2308.7552      2768.0437      727.48725      492.81176     -1683.291       215.73537    
 139428000   249.71495     -416.08226     -332.44947     -416.08752      0              3459.1765      31.138         21.471905      33.382109      22319.017      4268.7948      3224.3248      2884.4097     -405.7197      -247.68176      646.59225    
 139430000   245.60676     -416.73569     -334.47879     -416.73994      0              3662.662       31.138         21.471905      33.230966      22217.964      4291.0487      3980.9083      2716.029      -74.614277      458.29245     -785.73529    
 139432000   248.19199     -418.08565     -334.96292     -418.09473      0              2328.3174      31.138         21.471905      33.328235      22282.997      2362.7349      1848.1262      2774.0911      1352.6972      599.57572      650.67403    
 139434000   250.30098     -418.95107     -335.12201     -418.95942      0              4129.3629      31.138         21.471905      33.34256       22292.575      3249.2774      4887.8821      4250.9292     -1393.6533      209.79054     -1951.7752    
 139436000   250.98199     -416.0529      -331.99576     -416.06304      0              2673.7229      31.138         21.471905      33.433894      22353.64       2775.7951      3087.0941      2158.2795      1049.0502     -1871.5059     -1360.7774    
 139438000   250.88707     -418.3892      -334.36385     -418.39442      0              2222.8718      31.138         21.471905      33.243567      22226.389      3175.6485      1649.0893      1843.8776      1972.667      -376.35875      356.92085    
 139440000   245.47633     -416.27888     -334.06565     -416.28553      0              2405.2752      31.138         21.471905      33.181196      22184.688      2001.8371      3062.2298      2151.7588     -266.11142      559.17642     -1842.0873    
 139442000   248.69569     -416.26549     -332.97407     -416.27075      0              3741.1471      31.138         21.471905      33.565003      22441.299      2516.6131      3682.7502      5024.078      -377.60213      37.086451      1311.6089    
 139444000   255.4679      -417.27773     -331.7182      -417.2903       0              878.49328      31.138         21.471905      33.381805      22318.814      336.1176       2012.3152      287.04708      1264.6308      661.96601     -1066.2688    
 139446000   246.15732     -415.52217     -333.08088     -415.53136      0              1870.4457      31.138         21.471905      33.282261      22252.259      3064.7135      3158.2973     -611.67366     -340.94973     -388.02041     -1195.2746    
 139448000   249.94284     -417.89725     -334.18813     -417.90469      0              4291.801       31.138         21.471905      33.366245      22308.411      3631.1733      6738.7956      2505.4341      566.18081     -334.81909     -353.40503    
 139450000   250.03792     -416.9838      -333.24284     -416.98961      0              2284.6395      31.138         21.471905      33.431755      22352.21       2054.9485      3226.5665      1572.4035     -1248.7026     -524.57911     -1126.2324    
 139452000   250.22428     -419.46088     -335.65751     -419.46521      0              897.37994      31.138         21.471905      33.359534      22303.924      73.34575       285.16528      2333.6288      333.68868     -127.34945     -277.27719    
 139454000   244.27384     -416.48083     -334.67033     -416.48911      0              4269.9978      31.138         21.471905      33.189153      22190.008      4725.2642      3867.1471      4217.5819      920.92032      569.60989      1034.2634    
 139456000   252.03276     -419.39667     -334.98761     -419.41406      0              1827.4586      31.138         21.471905      33.145141      22160.582      1343.0958      860.78013      3278.4999      15.873265      519.03471      337.78661    
 139458000   250.5184      -417.84756     -333.94568     -417.85547      0              4005.8378      31.138         21.471905      33.240637      22224.43       4004.8998      4650.4104      3362.2033      119.46642      877.01079      1794.1414    
 139460000   253.29592     -418.13038     -333.29827     -418.13659      0              5248.5071      31.138         21.471905      33.142682      22158.938      3800.392       6087.512       5857.6172      445.99481     -775.85116     -336.54577    
 139462000   256.18954     -419.05962     -333.25841     -419.06494      0              3110.5085      31.138         21.471905      33.230615      22217.729      3443.9921      2830.5382      3056.9952     -1829.1804      2359.9972     -1082.5475    
 139464000   251.93537     -418.36925     -333.99281     -418.37776      0              2412.9808      31.138         21.471905      33.116234      22141.255      1079.6505      3040.4773      3118.8145     -199.86219      2183.7416      1471.2947    
 139466000   250.5243      -418.43046     -334.52661     -418.43747      0              3285.9998      31.138         21.471905      33.300545      22264.484      4023.555       2755.2488      3079.1956      1183.9208     -946.65579     -750.24183    
 139468000   251.32192     -418.9475      -334.77651     -418.94807      0              4609.809       31.138         21.471905      33.09674       22128.221      4620.7987      4194.2218      5014.4065      74.21751      -827.98656      813.51808    
 139470000   251.98063     -417.11023     -332.71864     -417.1155       0              1496.3298      31.138         21.471905      33.15403       22166.525      1095.7571     -294.1297       3687.3619      304.45134     -649.22343      1162.9432    
 139472000   245.51508     -416.60184     -334.37563     -416.59902      0              3435.939       31.138         21.471905      33.162709      22172.328      2305.9642      4251.5535      3750.2993      1012.4416     -283.38442      514.84295    
 139474000   252.60317     -416.61779     -332.0177      -416.62473      0              2634.2658      31.138         21.471905      33.328258      22283.013      1689.3608      2674.4965      3538.9401      569.77568      761.29846      1214.0595    
 139476000   254.21576     -415.24725     -330.10708     -415.24651      0              2266.7988      31.138         21.471905      33.274531      22247.091      2709.6302      1481.3829      2609.3833     -645.29278      353.83189     -239.24775    
 139478000   255.0929      -418.2424      -332.80846     -418.25095      0              2859.3329      31.138         21.471905      33.312549      22272.51       3635.6216      2978.0476      1964.3295      1144.3132      1033.8208      471.64538    
 139480000   256.09264     -418.77664     -333.00788     -418.78024      0              3094.5711      31.138         21.471905      33.157573      22168.894      4374.667       3138.6983      1770.3479      624.32119      977.1346       1815.4549    
 139482000   248.45173     -416.34488     -333.13516     -416.33777      0              1457.5589      31.138         21.471905      33.259542      22237.07       1754.8674      1531.5711      1086.2383      1131.9098      227.65933      740.46602    
 139484000   243.42125     -415.45153     -333.92659     -415.45323      0              2314.0939      31.138         21.471905      33.437707      22356.19       2697.3258      2055.6243      2189.3316      1836.2564     -56.160354     -193.68675    
 139486000   246.19394     -418.10673     -335.65317     -418.10785      0              2767.741       31.138         21.471905      33.441577      22358.777      2791.4734      3157.4893      2354.2604     -763.90383      2081.3681     -678.01923    
 139488000   251.36882     -418.60932     -334.42262     -418.60752      0              3056.7355      31.138         21.471905      33.280316      22250.959      1942.133       3324.9073      3903.1663      937.13035      554.85518     -531.51029    
 139490000   253.13361     -417.83515     -333.0574      -417.83187      0              3801.9036      31.138         21.471905      33.269374      22243.643      2602.1965      4891.2526      3912.2618     -1019.2473      904.56814      1126.0669    
 139492000   247.09765     -420.02527     -337.26905     -420.02932      0              2548.2098      31.138         21.471905      33.302915      22266.069      1892.0338      3522.1597      2230.4357      1054.6876      856.3211       795.96221    
 139494000   246.94539     -418.39318     -335.68794     -418.39526      0              2939.723       31.138         21.471905      33.307303      22269.002      3466.9123      1306.0067      4046.2502     -201.12507      2962.7577      355.90866    
 139496000   243.63534     -414.75782     -333.16116     -414.7584       0              2314.6099      31.138         21.471905      33.229671      22217.098      1787.401       2747.4511      2408.9775      838.85592      2662.5236     -838.57828    
 139498000   248.45991     -416.71293     -333.50047     -416.71568      0              5285.6269      31.138         21.471905      33.207219      22202.087      4314.4832      6221.7461      5320.6514     -1169.3072      1347.1089     -257.19587    
 139500000   250.39083     -416.44867     -332.58952     -416.45016      0              3816.3946      31.138         21.471905      33.462424      22372.715      3815.7915      5153.1735      2480.2189     -198.14358     -312.16861     -1009.759     
 139502000   247.71105     -415.16529     -332.20363     -415.16083      0              3237.496       31.138         21.471905      33.353408      22299.828      3271.267       2418.5707      4022.6504      317.86623     -148.18097      452.68435    
 139504000   244.99478     -416.33321     -334.28126     -416.32854      0              3773.6361      31.138         21.471905      33.350238      22297.709      6189.7029      2204.1874      2927.018      -153.91126      511.70311     -587.008      
 139506000   251.7091      -417.57634     -333.27568     -417.57331      0              2423.1494      31.138         21.471905      33.419266      22343.86       3107.7264      2736.7478      1424.9739      623.3556       1936.3056     -664.15339    
 139508000   247.44327     -418.02989     -335.15791     -418.03577      0              2631.6622      31.138         21.471905      33.430751      22351.539      2262.3793      3399.8388      2232.7686     -977.4438      -264.80075     -110.96339    
 139510000   239.28347     -416.67365     -336.5345      -416.68107      0              2790.7257      31.138         21.471905      33.653345      22500.363      4869.8101      1136.2412      2366.1258     -502.34326     -471.44211     -576.49576    
 139512000   238.01344     -418.44938     -338.73558     -418.4586       0              1517.3721      31.138         21.471905      33.631768      22485.937      2691.3331      2747.476      -886.69292     -430.44809      1170.9557     -74.194406    
 139514000   250.2385      -416.33956     -332.53143     -416.33422      0              2961.5817      31.138         21.471905      33.510708      22404.997      2636.3379      3256.3589      2992.0484     -1285.3195      1257.84        472.16226    
 139516000   249.43763     -418.30171     -334.7618      -418.30397      0              3565.6021      31.138         21.471905      33.552285      22432.795      4435.2269      4280.2618      1981.3175      1173.6702     -986.618        278.51031    
 139518000   243.7669      -416.36173     -334.72101     -416.35785      0              4303.407       31.138         21.471905      33.456787      22368.946      2809.1416      4258.064       5843.0154     -56.67522      -1005.2415      644.78026    
 139520000   252.25614     -418.83883     -334.35496     -418.84217      0              2764.4404      31.138         21.471905      33.442021      22359.074      3556.0876      1533.0321      3204.2014      2059.6602     -566.07049      380.12603    
 139522000   256.5497      -418.39784     -332.47601     -418.39561      0              1486.0907      31.138         21.471905      33.356932      22302.184      1137.3104      1185.6447      2135.317      -1523.207      -1552.9131      290.66821    
 139524000   245.82871     -415.69128     -333.36004     -415.69372      0              3488.5986      31.138         21.471905      33.588507      22457.013      2478.361       3393.4256      4594.0093     -536.4834       380.40737     -602.97579    
 139526000   259.22489     -417.88321     -331.06541     -417.88723      0              5405.5608      31.138         21.471905      33.540834      22425.139      7123.238       4123.2052      4970.2391     -2088.2041      2131.2415      1214.2147    
 139528000   249.22549     -416.09946     -332.6306      -416.09347      0              7.7234017      31.138         21.471905      33.624561      22481.118     -251.61815     -124.35218      399.14054      924.51826     -383.82163     -1104.846     
 139530000   247.08171     -417.18374     -334.43286     -417.17418      0              3747.1244      31.138         21.471905      33.591327      22458.898      3706.9871      4816.1109      2718.2751      1375.8222      814.70186      636.93605    
 139532000   257.91457     -417.67817     -331.29922     -417.67858      0              2154.0601      31.138         21.471905      33.581134      22452.084      3422.4479      2016.8914      1022.841      -2095.2572     -815.94899     -70.850371    
 139534000   253.77756     -418.05528     -333.06187     -418.05375      0              2404.7898      31.138         21.471905      33.517893      22409.801      2286.1241      3545.7886      1382.4566      1773.5339      794.16511      1535.1028    
 139536000   250.64127     -417.52557     -333.58254     -417.52489      0              3851.1053      31.138         21.471905      33.659417      22504.423      3389.5915      2954.1982      5209.5264     -359.78744      1160.6404     -589.416      
 139538000   255.06828     -418.17426     -332.74857     -418.17214      0              2408.5814      31.138         21.471905      33.809296      22604.631      4009.2108      1668.2026      1548.3308     -229.8431      -797.94621     -1572.7508    
 139540000   250.77        -419.15907     -335.17293     -419.16494      0              1935.6091      31.138         21.471905      33.677291      22516.373      1853.6574      3307.0661      646.10387     -610.24464      1050.3771      447.45139    
 139542000   251.0557      -421.93776     -337.85593     -421.93641      0              2301.2997      31.138         21.471905      33.65197       22499.444      2196.673       2514.5636      2192.6626      1324.0912      868.89482     -1286.3549    
 139544000   247.53618     -417.98275     -335.07965     -417.99019      0              2131.6445      31.138         21.471905      33.621227      22478.89       2429.5975      2160.1801      1805.156      -863.24263      1527.3769     -373.24525    
 139546000   250.27005     -418.62728     -334.80858     -418.63336      0              3387.5123      31.138         21.471905      33.497314      22396.042      3755.6794      4002.8424      2404.0152      450.55115      1736.1052      536.92757    
 139548000   247.41753     -419.79431     -336.93096     -419.78891      0              3750.494       31.138         21.471905      33.511301      22405.394      4957.098       3257.4175      3036.9665     -1481.0324      822.94719     -3.0168672    
 139550000   253.99208     -418.32478     -333.25952     -418.32591      0              3663.9415      31.138         21.471905      33.403695      22333.45       4057.4976      3722.5762      3211.7506     -840.87372      754.09671     -596.89875    
 139552000   252.35649     -421.39018     -336.8727      -421.41104      0              3940.5642      31.138         21.471905      33.424191      22347.153      4050.1922      4374.4499      3397.0504      262.04357      861.36223      505.98669    
 139554000   245.63605     -415.87984     -333.61312     -415.8839       0              600.27215      31.138         21.471905      33.486262      22388.653      1044.9006     -156.52072      912.43656     -285.06012     -241.76265     -434.76682    
 139556000   249.6135      -419.43291     -335.8341      -419.44375      0              4034.2156      31.138         21.471905      33.403733      22333.475      4729.2867      3180.34        4193.0201     -784.03624     -895.8761       247.27758    
 139558000   242.18725     -419.58133     -338.46966     -419.59119      0              2368.0455      31.138         21.471905      33.367314      22309.125      2145.3862      2660.8554      2297.8948      305.91446      2319.6623     -1249.1866    
 139560000   249.23803     -416.63467     -333.16161     -416.64532      0              3331.4152      31.138         21.471905      33.36745       22309.216      3229.6535      4459.3835      2305.2088     -239.85526      1565.2565      457.37034    
 139562000   248.55104     -419.41199     -336.16901     -419.43216      0              3147.7419      31.138         21.471905      33.296124      22261.528      3235.2965      3914.6427      2293.2864      207.75623     -134.0789      -323.20571    
 139564000   256.60745     -417.99193     -332.05075     -418.00115      0              3881.6748      31.138         21.471905      33.225528      22214.328      3531.8054      5024.2196      3088.9995     -238.41916      229.27404     -154.22614    
 139566000   245.65775     -416.48647     -334.21249     -416.49324      0              4727.2473      31.138         21.471905      33.317605      22275.89       4765.0811      4678.0313      4738.6296     -370.01526      142.61801     -349.5475     
 139568000   244.78376     -415.75992     -333.77865     -415.76665      0              3658.2148      31.138         21.471905      33.376655      22315.37       4079.6387      3337.5148      3557.4908     -1074.1244     -635.62803      945.91051    
 139570000   252.12584     -417.4923      -333.05207     -417.50122      0              2430.4483      31.138         21.471905      33.250024      22230.706      1063.0411      2638.707       3589.5968      322.26037      34.902206      1568.8333    
 139572000   244.71411     -417.86476     -335.90681     -417.87074      0              2782.7532      31.138         21.471905      33.253158      22232.801      3883.8137      3060.6785      1403.7674      477.13313     -735.19131      996.03652    
 139574000   251.95644     -417.37751     -332.99401     -417.38655      0              3226.3811      31.138         21.471905      33.219021      22209.977      4964.8791      1252.7917      3461.4725     -325.13533     -782.6761       747.00493    
 139576000   248.40914     -417.14751     -333.95205     -417.15156      0              2356.2304      31.138         21.471905      33.191376      22191.494      439.34746      3389.2868      3240.0568      707.43945     -1688.3559      978.6433     
 139578000   253.10411     -416.59438     -331.82652     -416.60406      0              4895.1245      31.138         21.471905      33.223755      22213.143      4174.1334      5209.9087      5301.3313     -1168.1463     -86.784464     -188.37686    
 139580000   250.05273     -418.80391     -335.05799     -418.81216      0              3418.4876      31.138         21.471905      33.240027      22224.022      4098.4248      2453.5682      3703.4699      744.9183       209.0979      -895.19484    
 139582000   252.60648     -418.0374      -333.4362      -418.04644      0              4129.9483      31.138         21.471905      33.127144      22148.549      4439.0481      5246.7161      2704.0807     -1177.9683      259.1422      -448.30905    
 139584000   247.28099     -418.07192     -335.25429     -418.07891      0              3097.0327      31.138         21.471905      33.24727       22228.864      4007.455       4093.478       1190.1649      132.62247     -2306.4605     -68.579385    
 139586000   254.63375     -415.16613     -329.88597     -415.17593      0              4242.5444      31.138         21.471905      33.408338      22336.553      3426.958       4065.1819      5235.4933      168.51765      1101.6602     -332.00354    
 139588000   245.19795     -418.59707     -336.47708     -418.60077      0              4246.0668      31.138         21.471905      33.130785      22150.984      5233.2657      3350.5189      4154.4156     -1996.1173     -633.57262     -210.03643    
 139590000   247.54552     -415.70554     -332.79932     -415.70443      0              1552.0345      31.138         21.471905      33.254469      22233.678      2388.4357      1404.517       863.15081      418.89064     -684.02247      319.79331    
 139592000   254.97262     -415.67809     -330.28444     -415.68898      0              4377.7471      31.138         21.471905      33.284717      22253.902      6511.9906      3844.8807      2776.3698      848.43404     -1069.5253     -435.6473     
 139594000   246.94028     -418.18364     -335.48012     -418.18904      0             -233.16369      31.138         21.471905      33.479836      22384.356      13.139066      476.97779     -1189.6079     -801.14349      1181.7491     -137.46646    
 139596000   239.85074     -418.75578     -338.42664     -418.77051      0              1178.2454      31.138         21.471905      33.355838      22301.452      1713.8394      2632.6203     -811.72345     -1074.6862      104.59737      718.48539    
 139598000   252.08445     -418.97241     -334.54604     -418.9822       0              3637.677       31.138         21.471905      33.447389      22362.663      4423.5605      1905.2804      4584.1901     -574.91229     -837.71186      1707.4574    
 139600000   252.1772      -419.45588     -334.99845     -419.46075      0              1857.5158      31.138         21.471905      33.519147      22410.64       2822.8816      1674.836       1074.8299     -1278.0365     -372.51671     -72.918464    
 139602000   243.8818      -419.33455     -337.65535     -419.35425      0              5149.1454      31.138         21.471905      33.461726      22372.248      4639.0959      4782.1576      6026.1826      1011.714      -371.8672       13.669747    
 139604000   251.29408     -419.40142     -335.23975     -419.41473      0              3050.376       31.138         21.471905      33.413341      22339.899      3794.9901      3724.8405      1631.2973     -511.44395      1248.3362     -389.66982    
 139606000   243.62184     -416.07735     -334.48521     -416.09946      0              1315.0615      31.138         21.471905      33.282298      22252.284      1730.4872      1880.7735      333.92396     -207.3216      -438.46873      16.65975     
 139608000   254.47389     -417.0751      -331.84848     -417.08227      0              4331.0048      31.138         21.471905      33.283514      22253.097      4687.6618      3723.9044      4581.4482     -647.7559       87.021366     -1975.2764    
 139610000   255.04741     -416.90981     -331.49111     -416.92154      0              4342.8865      31.138         21.471905      33.323771      22280.013      4281.4473      5151.5115      3595.7006     -902.90664     -1244.0052     -205.48987    
 139612000   253.75485     -418.38047     -333.39466     -418.3894       0              2788.0385      31.138         21.471905      33.287301      22255.629      3324.0374      3109.3837      1930.6944      514.74543     -324.54862     -838.67077    
 139614000   249.58171     -416.84179     -333.25362     -416.84902      0              4086.7215      31.138         21.471905      33.408692      22336.79       4966.9927      3902.5328      3390.6391      638.93234     -276.87654     -646.99856    
 139616000   254.03072     -416.59071     -331.51251     -416.59811      0              3075.2675      31.138         21.471905      33.461562      22372.139      4593.0629      729.35947      3903.3801     -480.76019     -314.70136     -142.1394     
 139618000   249.8944      -416.92525     -333.23235     -416.9295       0              2352.473       31.138         21.471905      33.390188      22324.419      1434.8285      3330.9512      2291.6394      1111.9682     -184.57197      271.36215    
 139620000   254.2882      -417.17545     -332.01102     -417.25309      0              4443.0774      31.138         21.471905      33.264696      22240.515      4744.6432      3477.3788      5107.2102      335.16325     -938.10662     -768.78078    
 139622000   247.02677     -420.4068      -337.67432     -420.42124      0              4865.4823      31.138         21.471905      33.224083      22213.362      4688.0024      5991.5542      3916.8903      417.466       -674.50726      532.90316    
 139624000   244.44376     -420.20201     -338.33461     -420.21141      0              3660.6125      31.138         21.471905      33.275011      22247.412      3796.0612      4157.8637      3027.9126      273.5483      -589.63719      1161.6957    
 139626000   251.65155     -418.42668     -334.1453      -418.4447       0              3364.3594      31.138         21.471905      33.27273       22245.887      3867.5092      3599.8803      2625.6885      840.6257      -1766.8215     -34.788201    
 139628000   251.16527     -417.81352     -333.695       -417.82318      0              4840.7486      31.138         21.471905      33.118969      22143.084      6276.4526      4454.0511      3791.7421      180.45812      21.31899      -39.318345    
 139630000   254.37678     -419.41646     -334.22236     -419.45081      0              3525.4438      31.138         21.471905      33.148337      22162.719      2457.9429      5662.6444      2455.7441      1180.3982      62.406339     -16.488401    
 139632000   253.69079     -417.94864     -332.98429     -417.96248      0              4923.8063      31.138         21.471905      33.094409      22126.663      5195.5813      4416.4148      5159.4228     -641.14599      1361.6232      288.75316    
 139634000   247.16566     -419.21782     -336.43882     -419.22721      0              1669.8051      31.138         21.471905      33.29375       22259.94       2585.7247      342.41567      2081.2748      785.42775      711.91787     -1775.5039    
 139636000   254.61118     -418.64065     -333.36804     -418.64891      0              3198.1798      31.138         21.471905      33.258556      22236.41       1465.8308      4852.8204      3275.8881     -813.61438     -94.849055      278.14055    
 139638000   250.05159     -417.24483     -333.49929     -417.255        0              2309.9512      31.138         21.471905      33.193073      22192.629      3385.8074      3631.2505     -87.204433      879.69311     -723.61521     -1717.5393    
 139640000   248.02282     -419.2566      -336.19052     -419.27207      0              4270.6804      31.138         21.471905      33.211125      22204.698      4330.2451      2785.8759      5695.9203     -331.26073      353.8698      -1086.3444    
 139642000   250.70386     -418.32813     -334.36415     -418.33746      0              2851.7103      31.138         21.471905      33.252797      22232.56       2907.8006      3414.6627      2232.6676     -1064.1002     -1327.8056      133.02181    
 139644000   252.65106     -420.77103     -336.1549      -420.83223      0              4021.9431      31.138         21.471905      33.301543      22265.151      4401.2982      3556.2598      4108.2712      708.55561     -392.95993      406.26172    
 139646000   247.43614     -417.17292     -334.30333     -417.18107      0              3171.8878      31.138         21.471905      33.350592      22297.945      4245.775       2886.9871      2382.9013     -22.916217     -2400.8072     -733.24634    
 139648000   251.28569     -418.90651     -334.74766     -418.9174       0              2527.0713      31.138         21.471905      33.470769      22378.294      2581.0053      4101.6557      898.55277     -73.034701      791.33613      330.89916    
 139650000   255.09989     -417.42721     -331.99093     -417.44501      0              2816.3571      31.138         21.471905      33.229809      22217.191      3875.5048      815.02371      3758.5428     -461.38643     -729.9719      -395.32393    
 139652000   252.9028      -418.37663     -333.67619     -418.44649      0              5196.3312      31.138         21.471905      33.36563       22307.999      4298.1199      5681.4024      5609.4713     -1300.7069      632.54993      1180.1933    
 139654000   249.02778     -419.93466     -336.53201     -419.96779      0              1945.1592      31.138         21.471905      33.431372      22351.954      2195.5816      1526.0553      2113.8405      1338.0088     -875.60412      1776.8098    
 139656000   255.49667     -420.00585     -334.43668     -420.22877      0              5361.5007      31.138         21.471905      33.383124      22319.695      5115.1603      5864.1178      5105.2241      1883.1244      987.36509      177.21353    
 139658000   251.53853     -420.58711     -336.34358     -420.59392      0              2286.9784      31.138         21.471905      33.463173      22373.215      1567.8225      3371.4866      1921.6261      15.125911     -924.25474     -2862.5287    
 139660000   250.13657     -421.18386     -337.40986     -421.18427      0              4328.4957      31.138         21.471905      33.393111      22326.372      4105.3804      5510.6982      3369.4086     -713.24946      677.6771      -723.64921    
 139662000   246.22518     -418.45241     -335.98839     -418.45517      0              4808.3456      31.138         21.471905      33.371983      22312.247      5835.0025      4058.4584      4531.5761     -1712.3406     -255.56857     -898.17116    
 139664000   246.92099     -418.28344     -335.58639     -418.28466      0              2461.3113      31.138         21.471905      33.284378      22253.674      5757.8389      2197.1266     -571.0316      -170.36727     -713.393       -1470.8403    
 139666000   254.37983     -417.56718     -332.37206     -417.56772      0              2358.6832      31.138         21.471905      33.253629      22233.116      2845.4074      2660.0589      1570.5834     -1154.3976      987.52816      428.64999    
 139668000   257.4262      -418.67328     -332.45789     -418.67261      0              2335.5196      31.138         21.471905      33.317488      22275.812      1118.4847      1692.0417      4196.0325      805.01021      417.36967     -124.10134    
 139670000   254.33583     -418.26397     -333.08359     -418.30228      0              3083.5114      31.138         21.471905      33.499321      22397.384      2448.1821      3481.8108      3320.5414      825.39398      1157.9519     -1059.3845    
 139672000   246.73242     -415.29606     -332.66216     -415.29226      0              3195.9996      31.138         21.471905      33.503238      22400.003      3083.4401      3195.6586      3308.9002     -181.7325      -450.7689      -136.6238     
 139674000   251.21985     -421.7972      -337.6604      -421.7977       0              1578.1118      31.138         21.471905      33.452772      22366.262      1018.4266      1959.2175      1756.6912     -1207.6337     -432.11199     -1285.4725    
 139676000   254.867       -418.42999     -333.0717      -418.44522      0              2927.7492      31.138         21.471905      33.299822      22264          2408.21        3613.7775      2761.2601      235.9142      -793.68149     -892.86883    
 139678000   253.60138     -420.85696     -335.92256     -420.85815      0              2255.9052      31.138         21.471905      33.355858      22301.466      2380.8876      4539.2098     -152.38183      851.49349      1597.8251     -464.50508    
 139680000   241.89062     -419.32372     -338.3114      -419.33326      0              6025.1623      31.138         21.471905      33.18164       22184.985      5341.7397      6462.265       6271.4823     -223.38894     -786.75072     -1513.7217    
 139682000   247.72233     -420.96224     -337.9968      -420.9775       0              1625.2474      31.138         21.471905      33.194839      22193.809      754.21089      2960.6691      1160.8621     -217.77355      1549.6108      582.78907    
 139684000   247.00553     -421.37076     -338.64539     -421.37149      0              3028.5928      31.138         21.471905      33.272868      22245.979      3647.05        2671.756       2766.9724      355.19277      256.45248     -835.07838    
 139686000   250.75683     -420.35018     -336.36845     -420.35138      0              3057.8284      31.138         21.471905      33.405483      22334.645      2271.9028      3580.9413      3320.6412      703.78961      1199.2997      190.5689     
 139688000   248.96334     -419.46        -336.07894     -419.463        0              2857.2414      31.138         21.471905      33.455387      22368.01       3753.8161      2156.0575      2661.8506     -414.03707     -875.32531      1621.0816    
 139690000   252.28661     -419.27122     -334.77715     -419.27468      0              3448.348       31.138         21.471905      33.451554      22365.447      3415.2138      4307.1991      2622.6309     -1104.79       -819.03638     -1110.7672    
 139692000   250.17756     -418.92381     -335.13608     -418.92976      0              1994.2442      31.138         21.471905      33.309221      22270.284      1380.638       2852.3413      1749.7532      420.32327     -277.39788     -490.51306    
 139694000   253.03297     -422.53028     -337.78624     -422.56008      0              4943.8798      31.138         21.471905      33.356414      22301.838      6505.1841      3501.9529      4824.5024     -11.131823      1058.2998     -1024.1958    
 139696000   245.86175     -418.43972     -336.09741     -418.44651      0              2572.3203      31.138         21.471905      33.321527      22278.512      2611.58        3767.4238      1337.957      -209.43347      1719.4481      187.71288    
 139698000   244.53353     -420.10713     -338.20966     -420.12819      0              3244.6185      31.138         21.471905      33.493679      22393.612      3033.0207      2338.3034      4362.5315     -342.78407      1365.0131     -1705.5768    
 139700000   248.2605      -415.87188     -332.72621     -415.88079      0              2554.8343      31.138         21.471905      33.656708      22502.612      846.82323      2870.1018      3947.5778     -67.622251      142.46023     -277.16888    
 139702000   252.17613     -417.53756     -333.08049     -417.53683      0              2332.7946      31.138         21.471905      33.357831      22302.785      710.23733      2328.4689      3959.6775      115.21807      173.31508     -276.20072    
 139704000   249.69726     -417.26562     -333.63875     -417.26325      0              2450.8361      31.138         21.471905      33.442383      22359.316      1018.4544      4147.2936      2186.7601      78.965863     -916.49939     -1419.275     
 139706000   246.49584     -415.45775     -332.90308     -415.46092      0              3948.6323      31.138         21.471905      33.247882      22229.274      3959.2299      6339.2174      1547.4497     -1514.3514     -1152.8895     -2443.5501    
 139708000   253.51877     -419.20388     -334.29714     -419.2047       0              2003.4091      31.138         21.471905      33.222252      22212.138      1601.778       2833.6192      1574.8299      2284.3379      1083.4169     -1349.2045    
 139710000   252.12684     -418.4049      -333.96433     -418.40581      0              3765.0149      31.138         21.471905      33.272593      22245.796      2908.482       4232.8898      4153.6729      401.70479      1445.3729      1170.6026    
 139712000   257.22996     -418.27761     -332.12795     -418.27823      0              3079.2088      31.138         21.471905      33.078043      22115.721      3641.7008      3710.5768      1885.3487     -623.00057     -962.18134      260.55422    
 139714000   248.84388     -418.11825     -334.77719     -418.11874      0              4265.4659      31.138         21.471905      33.118841      22142.998      6747.6512      2166.9678      3881.7788      24.295257     -769.2554      -688.60449    
 139716000   243.22648     -420.3967      -338.93698     -420.40268      0              5654.653       31.138         21.471905      33.189842      22190.469      6249.1548      3622.8514      7091.953      -820.65246     -24.419042     -665.15771    
 139718000   252.69012     -418.88853     -334.25932     -418.88975      0              3939.6627      31.138         21.471905      33.250856      22231.262      3700.1859      3236.0072      4882.7949      1734.7773     -64.732011      830.78335    
 139720000   247.04981     -417.95073     -335.21053     -417.94914      0              284.29239      31.138         21.471905      33.266522      22241.736     -893.37813     -514.07031      2260.3256      2008.5654      650.57574     -475.44088    
 139722000   248.88853     -416.45248     -333.09647     -416.45702      0              3112.5216      31.138         21.471905      33.184491      22186.891      1248.9876      3985.8247      4102.7524      240.25751      2281.9574     -196.69394    
 139724000   241.48777     -418.37592     -337.49851     -418.37832      0              1489.1035      31.138         21.471905      33.423439      22346.65       1940.0839      1336.5187      1190.708      -364.42083     -120.81443      284.81145    
 139726000   238.90666     -418.99012     -338.97717     -418.99529      0              4399.3884      31.138         21.471905      33.225006      22213.979      4304.6175      4052.8242      4840.7234     -101.15698      168.26316      689.34582    
 139728000   252.48741     -420.67392     -336.11259     -420.68244      0              2350.2176      31.138         21.471905      33.224372      22213.555      2918.1211      2043.4159      2089.1159      789.40139     -597.85481     -588.34287    
 139730000   248.00309     -418.93425     -335.87479     -418.96355      0              3986.4549      31.138         21.471905      33.221647      22211.733      5207.88        2539.2625      4212.2222     -61.471201     -1955.1567      831.21483    
 139732000   251.09948     -420.33996     -336.24347     -420.3608       0              6046.9983      31.138         21.471905      33.18935       22190.14       7641.917       6709.3407      3789.7371     -350.29358     -1066.9548     -1672.8022    
 139734000   254.4694      -419.02097     -333.79585     -419.02282      0              2770.7513      31.138         21.471905      33.347944      22296.175      3849.7321      1894.3688      2568.1531     -703.79651     -587.596       -332.55286    
 139736000   245.89867     -420.42338     -338.06871     -420.45229      0              4693.711       31.138         21.471905      33.215659      22207.73       3985.8437      3626.1165      6469.1727      1666.3564      44.569456      2768.2542    
 139738000   247.35511     -418.11974     -335.27729     -418.12611      0              1907.7495      31.138         21.471905      33.24658       22228.403      3392.1318      1060.0478      1271.0688     -297.87374     -1192.6575     -1078.4146    
 139740000   248.30072     -420.7638      -337.60465     -420.8083       0              4677.7972      31.138         21.471905      33.344624      22293.955      7445.7941      3445.4384      3142.159       615.45566     -7.2369594     -613.83245    
 139742000   251.30731     -417.42645     -333.26036     -417.42979      0              1781.0893      31.138         21.471905      33.360413      22304.512      1046.4353      3047.1169      1249.7156      517.50063     -275.79718     -223.27335    
 139744000   249.55479     -415.44806     -331.86891     -415.4481       0              3285.3435      31.138         21.471905      33.266479      22241.707      3450.1231      3448.8389      2957.0685      571.27123     -229.18609      144.37181    
 139746000   248.14681     -417.64342     -334.53582     -417.6403       0              3875.7505      31.138         21.471905      33.347538      22295.903      6013.1613      3133.2325      2480.8578      1796.1705     -548.14326     -1106.6679    
 139748000   247.93602     -416.3553      -333.3183      -416.35376      0              3250.114       31.138         21.471905      33.286618      22255.172      5225.3889      2922.8788      1602.0742      114.88234     -285.67405     -1980.9413    
 139750000   247.25884     -417.73864     -334.92843     -417.73973      0              2147.6749      31.138         21.471905      33.475504      22381.46       2183.5079      3905.0801      354.43657     -1591.4132      398.7959      -1654.3053    
 139752000   252.56044     -418.76222     -334.17643     -418.76323      0              2732.7234      31.138         21.471905      33.369038      22310.278      1325.9385      2818.6418      4053.5898     -166.38674     -815.29983      657.1935     
 139754000   248.23873     -418.44928     -335.31089     -418.46769      0              2174.6534      31.138         21.471905      33.149957      22163.802      415.92435      3277.0063      2831.0294     -951.58479     -450.58894     -1076.453     
 139756000   251.49883     -418.1422      -333.91196     -418.14215      0              1535.5965      31.138         21.471905      33.331572      22285.228      191.443        2912.6971      1502.6493      651.90552      856.96367     -154.54317    
 139758000   252.49166     -416.42543     -331.86268     -416.42827      0              3583.7756      31.138         21.471905      33.2694        22243.661      3905.2363      2048.6917      4797.3989      853.5999      -1267.3423      1322.6379    
 139760000   246.14952     -418.73846     -336.29978     -418.73775      0              1232.6572      31.138         21.471905      33.331332      22285.068      1567.7492      405.93687      1724.2856     -1178.0437     -241.8439      -20.112974    
 139762000   246.26229     -416.54473     -334.06828     -416.54666      0              3613.9079      31.138         21.471905      33.414263      22340.515      4169.8116      3819.4451      2852.4672     -985.29692      375.9193      -988.98116    
 139764000   247.48934     -417.33355     -334.44614     -417.33416      0              3310.4753      31.138         21.471905      33.510308      22404.73       3603.5216      3221.2358      3106.6684      596.97978      199.41523     -94.975896    
 139766000   249.7376      -419.11153     -335.47115     -419.108        0              2933.2681      31.138         21.471905      33.397466      22329.284      2705.7949      3188.5948      2905.4146     -29.823317      1150.9793     -125.31913    
 139768000   254.33668     -417.72448     -332.54381     -417.74955      0              3344.0002      31.138         21.471905      33.365431      22307.866      4790.5325      2165.3881      3076.0802     -139.63319      323.47072      591.5419     
 139770000   248.53668     -417.18057     -333.9424      -417.18004      0              3559.197       31.138         21.471905      33.305809      22268.004      3298.4293      3480.0342      3899.1275     -1529.5603     -14.651963      1010.9697    
 139772000   242.64816     -417.74902     -336.48299     -417.74911      0              2345.6468      31.138         21.471905      33.211011      22204.622      2945.1282      1745.6846      2346.1276      101.15175      361.57016     -1037.7949    
 139774000   245.97888     -418.07677     -335.69524     -418.07815      0              1426.7256      31.138         21.471905      33.246414      22228.292      502.78901      2718.8003      1058.5875      623.91626      711.71421     -862.52327    
 139776000   246.71149     -417.7415      -335.11461     -417.74265      0              4274.6233      31.138         21.471905      33.150281      22164.019      3861.6892      5412.1742      3550.0064      870.61466     -213.01582     -1641.0485    
 139778000   252.37416     -419.22673     -334.70334     -419.26324      0              5036.5512      31.138         21.471905      33.276729      22248.56       4721.9802      5305.3759      5082.2975      2163.3332     -324.57026     -485.99047    
 139780000   252.13461     -419.43531     -334.99214     -419.43801      0              3589.3475      31.138         21.471905      33.300532      22264.475      4303.783       2579.5356      3884.724       768.39496      1592.4332      413.16769    
 139782000   250.7924      -417.59784     -333.60419     -417.60674      0              3556.7314      31.138         21.471905      33.20143       22198.217      3073.1648      3640.0176      3957.0117      1851.5546     -1920.9571     -37.075502    
 139784000   244.02217     -417.02129     -335.29509     -417.02369      0              2325.2334      31.138         21.471905      33.387586      22322.679      1231.2418      1299.6047      4444.8538     -2498.0375      1772.8712     -22.716495    
 139786000   248.31746     -417.50554     -334.34079     -417.52361      0              4036.2002      31.138         21.471905      33.382313      22319.153      4208.0004      3088.692       4811.9083      659.23949      1701.2092     -93.467077    
 139788000   248.68709     -417.46901     -334.18046     -417.47157      0              3938.4564      31.138         21.471905      33.298715      22263.26       5981.5596      2518.1682      3315.6415     -436.01277     -687.1365       984.05542    
 139790000   255.3663      -416.08585     -330.56035     -416.09423      0              1989.308       31.138         21.471905      33.420035      22344.374      3121.269       2516.745       329.91014     -457.63242      173.06774      860.17217    
 139792000   253.16625     -418.57852     -333.78984     -418.57787      0              3794.5574      31.138         21.471905      33.458538      22370.117      4183.9571      3061.679       4138.0361      1008.738       943.97456     -1152.4784    
 139794000   243.0283      -417.60686     -336.21351     -417.60903      0              3101.0361      31.138         21.471905      33.450111      22364.483      3224.7648      2326.2335      3752.11        1314.6765      1106.4735     -673.08653    
 139796000   251.96611     -417.35607     -332.96934     -417.35904      0              2101.2973      31.138         21.471905      33.280102      22250.816      1780.5767      3414.1873      1109.1278      222.60064     -62.727123      194.0328     
 139798000   250.61739     -417.15875     -333.22372     -417.16604      0              4509.5694      31.138         21.471905      33.157865      22169.089      4155.6277      4886.5026      4486.5778     -303.4466       916.32253     -341.32508    
 139800000   251.93021     -416.65836     -332.28365     -416.66399      0              3019.714       31.138         21.471905      33.176028      22181.233      2951.1536      3119.2398      2988.7485     -80.328974      90.365         530.93713    
 139802000   251.69766     -418.75857     -334.46174     -418.76254      0              2259.4469      31.138         21.471905      33.236903      22221.933      2689.9498      2184.799       1903.5919     -1049.3096      75.169968     -566.43065    
 139804000   252.37205     -417.83817     -333.31549     -417.83668      0              3378.9736      31.138         21.471905      33.25919       22236.834      1748.3242      4544.964       3843.6327      560.45917      1140.0121     -503.28691    
 139806000   251.74735     -417.88265     -333.56918     -417.8838       0              3294.8676      31.138         21.471905      33.193759      22193.088      3748.7483      3778.863       2356.9915      790.43528     -548.48073     -1301.2455    
 139808000   252.03298     -417.54729     -333.13816     -417.54665      0              4076.5267      31.138         21.471905      33.267302      22242.258      4743.0195      4292.063       3194.4975      1501.0284     -123.22028     -1274.7966    
 139810000   250.62598     -419.12198     -335.18407     -419.13411      0              2250.8581      31.138         21.471905      33.181319      22184.77       2922.8918      1927.717       1901.9654      1859.4542     -692.44875      578.8994     
 139812000   255.74162     -417.79747     -332.14626     -417.79728      0              5397.1574      31.138         21.471905      33.22634       22214.871      7880.5995      2601.2793      5709.5932     -963.01784      567.54986      1501.2489    
 139814000   248.34712     -416.45501     -333.28033     -416.46207      0              3750.4994      31.138         21.471905      33.283888      22253.347      4869.4836      3668.5826      2713.432       6.397152      -324.54951     -470.51134    
 139816000   252.3848      -418.61313     -334.08617     -418.61337      0              4354.9638      31.138         21.471905      33.335433      22287.81       4800.1906      3854.4877      4410.213       1150.2616      2003.0709     -119.49524    
 139818000   243.60598     -419.77277     -338.18595     -419.77855      0              5937.7617      31.138         21.471905      33.366886      22308.839      6073.1562      7045.078       4695.0509      1192.6597     -1129.9218      131.10285    
 139820000   252.68357     -419.23234     -334.60532     -419.22669      0              1784.4331      31.138         21.471905      33.348882      22296.802      1572.569       2111.8615      1668.8688      235.45769      1570.0189     -626.84672    
 139822000   245.09723     -420.87613     -338.78987     -420.88952      0              4706.3357      31.138         21.471905      33.439468      22357.367      6674.6404      3795.9409      3648.4257      797.5536      -151.45536     -337.17557    
 139824000   253.31627     -418.48126     -333.64234     -418.4984       0              7601.8007      31.138         21.471905      33.332904      22286.119      7559.5003      8372.0982      6873.8037     -313.96091     -1037.5049      593.56864    
 139826000   255.69751     -418.66587     -333.02944     -418.68251      0              3654.3671      31.138         21.471905      33.117091      22141.828      1369.7466      5839.2904      3754.0643      1733.7557     -200.83492     -1067.8147    
 139828000   249.7434      -418.75402     -335.1117      -418.75238      0              4305.471       31.138         21.471905      33.220409      22210.905      4709.4596      5490.5689      2716.3845     -614.48132      2097.1249     -225.79073    
 139830000   255.05661     -419.01859     -333.5968      -419.01976      0              4387.3427      31.138         21.471905      32.973866      22046.069      5339.2746      3265.9321      4556.8216     -196.84063     -1239.3663      1049.9646    
 139832000   246.86262     -417.57115     -334.89364     -417.57232      0              3235.9877      31.138         21.471905      33.112981      22139.08       3265.9817      3832.2434      2609.7381     -19.457115     -432.28446      657.18433    
 139834000   245.02674     -418.74732     -336.68467     -418.76221      0              5239.3248      31.138         21.471905      33.240022      22224.019      4820.8547      3902.013       6995.1068     -25.096414      300.03984      55.276558    
 139836000   251.37226     -417.4257      -333.23786     -417.49375      0              5456.0099      31.138         21.471905      33.256773      22235.218      5460.1916      6569.687       4338.1511     -16.983336      631.51196     -665.48128    
 139838000   249.59847     -417.86451     -334.27073     -417.87402      0              2212.1938      31.138         21.471905      33.250864      22231.267      2865.5958      1463.9027      2307.083      -1252.4372     -1031.9457     -192.86695    
 139840000   242.17212     -418.9534      -337.8468      -418.95968      0              2726.8457      31.138         21.471905      33.351475      22298.535      2870.2833      2063.8097      3246.4442     -1210.6441      1556.5919     -729.50889    
 139842000   250.2896      -418.05814     -334.23289     -418.08386      0              1896.9022      31.138         21.471905      33.354926      22300.843      2267.3164      2236.7137      1186.6766      902.92275      293.74949      408.15164    
 139844000   259.31583     -418.20522     -331.35697     -418.20597      0              3896.8551      31.138         21.471905      33.297713      22262.591      4928.6221      4196.5064      2565.4369      50.128593     -1175.144       2287.9992    
 139846000   251.28674     -419.02798     -334.86878     -419.02712      0              3681.9607      31.138         21.471905      33.301373      22265.037      2900.4321      3554.5035      4590.9465      2011.2703      1659.4716     -1064.4476    
 139848000   251.02544     -416.99655     -332.92485     -416.98122      0              2952.8671      31.138         21.471905      33.517419      22409.484      4336.5917      578.34427      3943.6654     -98.841408      524.42435      368.02681    
 139850000   256.31289     -416.38444     -330.54191     -416.3751       0              2490.175       31.138         21.471905      33.327337      22282.397      2420.2416      2240.2686      2810.0147     -881.04816     -1121.3308     -373.95399    
 139852000   248.89238     -418.0378      -334.6805      -418.0374       0              3093.7752      31.138         21.471905      33.34659       22295.269      3876.9975      2031.3552      3372.9729     -467.02927     -1436.6619     -855.92234    
 139854000   245.02576     -417.76197     -335.69965     -417.7632       0              3836.5467      31.138         21.471905      33.193923      22193.197      2769.9982      3494.8752      5244.7666     -1167.0663      227.46069      393.28712    
 139856000   251.91761     -417.63061     -333.26012     -417.63175      0              4410.193       31.138         21.471905      33.046412      22094.573      3916.63        5753.1345      3560.8145     -260.5029      -386.69917      1112.1414    
 139858000   249.05078     -418.62649     -335.21613     -418.62836      0              3880.8766      31.138         21.471905      32.987186      22054.975      4160.0409      3494.8359      3987.7529     -631.16347     -310.77127      1685.1671    
 139860000   249.84183     -416.97482     -333.29953     -416.97013      0              6640.0435      31.138         21.471905      32.93683       22021.307      7625.1072      6255.9344      6039.0889      528.55942      1156.265       665.90532    
 139862000   247.16278     -419.60284     -336.8248      -419.60341      0              3998.5054      31.138         21.471905      33.122121      22145.191      4269.0596      4470.0887      3256.3679     -868.24078      388.76641      401.06977    
 139864000   254.36237     -418.43024     -333.24097     -418.41811      0              3451.7928      31.138         21.471905      33.190335      22190.799      3160.7011      3026.103       4168.5743      1048.6616      836.78716      2389.1787    
 139866000   252.88625     -418.63512     -333.94022     -418.63543      0              4819.3401      31.138         21.471905      33.13646       22154.778      8276.9442      3150.2864      3030.7898      277.43812      245.42309      1282.7326    
 139868000   256.75615     -416.82745     -330.83647     -416.8203       0              2367.0653      31.138         21.471905      33.385252      22321.118      4045.7488      1589.0092      1466.4379      1730.5898     -1629.5086      601.48653    
 139870000   255.42458     -417.50952     -331.9645      -417.50964      0              2199.281       31.138         21.471905      33.214833      22207.177      1749.4114      2688.6051      2159.8263     -256.91447     -531.3406      -308.99023    
 139872000   246.47564     -419.41881     -336.8709      -419.42417      0              2326.7856      31.138         21.471905      33.284806      22253.961      2219.7136      3254.9921      1505.6513      5.5445728     -327.41356      270.20404    
 139874000   250.23353     -417.05721     -333.25074     -417.03854      0              3746.8875      31.138         21.471905      33.494905      22394.432      4004.1244      2671.0815      4565.4566      732.6986       359.21194     -133.19709    
 139876000   251.5379      -419.08625     -334.84293     -419.08664      0              3438.1109      31.138         21.471905      33.321701      22278.629      3594.0653      2838.1275      3882.1398     -179.36073     -977.20438      1180.4987    
 139878000   243.32875     -417.34169     -335.84772     -417.34074      0              2371.1436      31.138         21.471905      33.34913       22296.968      2357.4239      1590.559       3165.4479     -513.75077      866.37132     -883.82095    
 139880000   248.96436     -418.60922     -335.22781     -418.60236      0              2191.4618      31.138         21.471905      33.283223      22252.903      1598.6051      2833.8719      2141.9083     -568.74147      1014.4698     -1460.4747    
 139882000   245.8935      -416.8386      -334.48567     -416.8296       0              3591.1959      31.138         21.471905      33.284316      22253.633      3588.9824      4142.7868      3041.8184     -900.18577     -698.7138       1090.3871    
 139884000   250.86642     -418.24811     -334.22967     -418.23631      0              2858.1179      31.138         21.471905      33.245503      22227.683      3912.3493      3102.833       1559.1713     -196.06953      774.76059      793.55546    
 139886000   247.86292     -418.2091      -335.19658     -418.20064      0              3688.1113      31.138         21.471905      33.351647      22298.65       3738.4351      3076.059       4249.8399      789.51121      1344.0037      262.2995     
 139888000   249.13188     -420.73521     -337.2977      -420.72863      0              1028.1789      31.138         21.471905      33.281839      22251.977      126.99446      2872.2929      85.249429      1764.4648     -89.301217      1599.4037    
 139890000   255.19103     -419.65371     -334.1869      -419.64897      0              2119.1647      31.138         21.471905      33.431014      22351.714      2923.642       2605.545       828.30717      383.06581     -518.94569     -689.6341     
 139892000   245.17565     -419.11997     -337.00745     -419.11998      0              2429.6211      31.138         21.471905      33.38302       22319.626      2180.6327      4075.9729      1032.2575     -29.61509      -134.88502     -746.26311    
 139894000   252.01752     -421.38459     -336.98064     -421.38352      0              2530.2704      31.138         21.471905      33.34823       22296.366      3808.861       3378.8072      403.14292      476.03238     -1019.4012     -248.9773     
 139896000   250.97367     -418.52689     -334.47254     -418.51962      0              786.28459      31.138         21.471905      33.500551      22398.206     -549.63131      1069.2706      1839.2145      1525.3192      323.78757      808.30226    
 139898000   245.87396     -418.50767     -336.16127     -418.50909      0              2320.1114      31.138         21.471905      33.260287      22237.568      2707.5182      3613.4215      639.39441      34.369468     -480.74013     -661.97752    
 139900000   246.90229     -420.41122     -337.72042     -420.41163      0              2644.4483      31.138         21.471905      33.277052      22248.776      4042.2581      2202.7344      1688.3523      286.84859     -1029.2497     -479.72049    
 139902000   252.0882      -417.83194     -333.40432     -417.82912      0              2792.5092      31.138         21.471905      33.319135      22276.913      2558.1711      3738.4988      2080.8577      842.50958     -1357.3927     -1850.9608    
 139904000   248.73059     -417.3171      -334.01398     -417.32432      0              6064.548       31.138         21.471905      33.135164      22153.911      6052.1582      5755.1016      6386.3842     -315.9221       1126.7104     -81.137154    
[...]
 147316000   251.68473     -415.97108     -331.67859     -415.97029      0              2242.7394      31.138         21.471905      33.108468      22136.062      2137.6675      2195.0148      2395.536       571.25079     -736.28714      678.91522    
 147318000   250.14217     -416.86549     -333.08962     -416.86158      0              2169.6966      31.138         21.471905      33.270966      22244.708      642.64733      3654.9008      2211.5417      147.56154      984.46019      661.80559    
 147320000   246.82769     -413.7224      -331.05659     -413.70952      0              5464.9952      31.138         21.471905      33.172241      22178.701      6067.1726      4377.2422      5950.5707      1524.0063     -662.19566     -187.11134    
 147322000   244.61028     -419.04905     -337.12588     -419.03413      0              4242.5949      31.138         21.471905      33.17316       22179.315      3059.1879      4820.02        4848.5769      971.93009     -1555.5738     -212.25694    
 147324000   251.53575     -415.66063     -331.41803     -415.64393      0              3349.2989      31.138         21.471905      33.425072      22347.741      2869.8439      3944.4693      3233.5834      1446.5126     -120.34503      710.47893    
 147326000   251.43741     -415.83022     -331.62055     -415.82211      0              3462.4863      31.138         21.471905      33.396819      22328.852      4373.1021      2976.4916      3037.865       1682.7386      312.81741      812.03889    
 147328000   246.42026     -418.54439     -336.01503     -418.53107      0              2149.5692      31.138         21.471905      33.453582      22366.803      2138.3313      1875.8805      2434.4957     -37.43125      -1182.2553      535.71377    
 147330000   249.63822     -415.67064     -332.06355     -415.65306      0              4135.2626      31.138         21.471905      33.426505      22348.7        5920.8816      2127.847       4357.0593     -1555.4073     -875.32429      1398.4094    
 147332000   249.06345     -418.70577     -335.29118     -418.70336      0              2313.4238      31.138         21.471905      33.449237      22363.898      1294.4752      2365.8387      3279.9574      1046.1402      1112.0699      1184.5846    
 147334000   254.4333      -415.90248     -330.68945     -415.89564      0              1512.6348      31.138         21.471905      33.358633      22303.321      1237.7604      1521.4802      1778.6637     -1073.3553      587.18779      988.61028    
 147336000   250.23571     -416.70946     -332.90226     -416.70162      0              845.41764      31.138         21.471905      33.509805      22404.394      679.59851      1461.6691      394.9853       1917.119      -871.8707       522.87604    
 147338000   249.24725     -415.83727     -332.36112     -415.82656      0              4138.499       31.138         21.471905      33.391593      22325.358      2476.6664      6574.66        3364.1706     -268.29658      1494.079      -853.21595    
 147340000   250.28292     -418.61256     -334.78955     -418.60211      0              2133.5685      31.138         21.471905      33.398821      22330.191      1422.456       4843.1409      135.10861     -1234.8349      72.219988      458.12572    
 147342000   248.8574      -417.58407     -334.23849     -417.56595      0              2675.3276      31.138         21.471905      33.26137       22238.292      3390.8606      1321.7561      3313.3661     -410.46041     -441.43506     -29.096536    
 147344000   250.67272     -417.42617     -333.47261     -417.40725      0              3396.5601      31.138         21.471905      33.270569      22244.442      4835.5819      2660.2309      2693.8677      984.70122      569.3425       518.56675    
 147346000   258.11938     -421.87934     -335.4318      -421.87759      0              3216.4653      31.138         21.471905      33.417753      22342.848      2825.7573      4233.8627      2589.7759      1113.4935      817.87276     -950.14536    
 147348000   245.64134     -417.3142      -335.04571     -417.30046      0              3506.4793      31.138         21.471905      33.393708      22326.772      4131.1306      3035.6212      3352.686      -1858.0698     -2133.0839      661.61634    
 147350000   253.58958     -417.09142     -332.16096     -417.07016      0              2300.4997      31.138         21.471905      33.657695      22503.271      784.54793      2903.3877      3213.5636      847.25074      888.19765      710.11816    
 147352000   250.67955     -417.31672     -333.36087     -417.29835      0              2455.2919      31.138         21.471905      33.573693      22447.109      1234.9778      3693.1209      2437.7771     -826.04164      1251.2245     -1824.534     
 147354000   251.73662     -418.9078      -334.59793     -418.90176      0              2001.5689      31.138         21.471905      33.438138      22356.478      1988.977       1978.4603      2037.2694     -1466.8004      200.66243      854.43345    
 147356000   250.3897      -419.19537     -335.3366      -419.18673      0              3001.4535      31.138         21.471905      33.450936      22365.034      4060.1588      1107.153       3837.0486     -24.002395     -267.64267      1169.194     
 147358000   248.2739      -419.90967     -336.75951     -419.8967       0              4218.6015      31.138         21.471905      33.286982      22255.416      4438.7373      4975.1309      3241.9362      390.33297      194.43374      1115.0364    
 147360000   253.22784     -418.12604     -333.31673     -418.10545      0              4660.0792      31.138         21.471905      33.257607      22235.776      5366.2919      3483.8415      5130.1041     -1021.9725      161.903       -1173.5829    
 147362000   250.84753     -415.05013     -331.03802     -415.03186      0              3798.4228      31.138         21.471905      33.384234      22320.438      3467.2548      3974.7334      3953.2801      181.19935      634.77649     -369.41102    
 147364000   251.67106     -416.82399     -332.53607     -416.81807      0              2492.7014      31.138         21.471905      33.401176      22331.765      3707.3998      1279.0714      2491.633      -453.34535     -652.516       -687.64841    
 147366000   240.70176     -418.67841     -338.06425     -418.66571      0              2575.1411      31.138         21.471905      33.355628      22301.312      2824.1101      3489.4549      1411.8582     -981.53499     -201.96948     -474.49571    
 147368000   247.37592     -418.35577     -335.50635     -418.34869      0              2104.1941      31.138         21.471905      33.474425      22380.739      2523.8223      1981.3259      1807.4342     -1503.6453     -537.99253     -171.21405    
 147370000   255.68301     -418.23883     -332.60726     -418.22386      0              3444.7051      31.138         21.471905      33.275821      22247.954      3297.0591      3323.874       3713.1822      1251.3378      348.69602      882.6502     
 147372000   247.43318     -417.57966     -334.71106     -417.57195      0              1745.7308      31.138         21.471905      33.338802      22290.062      2492.3898      1241.5858      1503.2167      463.19491     -708.87678      781.71317    
 147374000   251.60066     -414.72919     -330.46484     -414.71421      0              2555.4012      31.138         21.471905      33.400497      22331.311      2194.6545      1283.4114      4188.1378      795.66718     -385.55055     -833.87711    
 147376000   252.60532     -416.56161     -331.9608      -416.54242      0              2973.3717      31.138         21.471905      33.577546      22449.684      1695.2416      5060.9262      2163.9472      794.68609      205.4534      -1009.7338    
 147378000   244.6429      -418.41782     -336.48372     -418.40717      0              2361.327       31.138         21.471905      33.51344       22406.824      4238.6637      97.503234      2747.814      -25.464267     -860.0434       578.24195    
 147380000   247.9106      -415.50558     -332.47709     -415.48502      0              1345.9488      31.138         21.471905      33.611671      22472.5        481.02686      1601.768       1955.0515      181.803       -428.92754      2385.712     
 147382000   247.5932      -419.21999     -336.2978      -419.20112      0              5545.6211      31.138         21.471905      33.415065      22341.051      5270.8482      5291.9403      6074.0749     -764.02281      1456.3455      1204.605     
 147384000   243.98046     -417.08873     -335.37649     -417.07543      0              1105.567       31.138         21.471905      33.444563      22360.773      1838.9573      565.58588      912.15782     -25.710384     -616.7711      -364.46351    
 147386000   255.56961     -420.24077     -334.64717     -420.22929      0              2270.3595      31.138         21.471905      33.448744      22363.568      1726.9719      1989.4716      3094.6351     -1045.2208     -489.28084      833.60493    
 147388000   248.43487     -417.00922     -333.80514     -416.9909       0              1652.6625      31.138         21.471905      33.60455       22467.74       548.07911      2727.4625      1682.4461      144.51067      1111.7184      973.90711    
 147390000   252.87168     -415.63542     -330.94539     -415.62642      0              1333.6211      31.138         21.471905      33.595594      22461.751      2051.6723      681.27865      1267.9125      130.72165      324.99301      1742.299     
 147392000   253.79661     -419.77668     -334.77688     -419.761        0              4714.2805      31.138         21.471905      33.579627      22451.076      2961.256       4598.3872      6583.1982     -988.34738      1598.1177      1196.4625    
 147394000   247.89576     -417.84803     -334.82451     -417.83661      0              1418.7958      31.138         21.471905      33.533684      22420.359      665.83067      900.00383      2690.5528     -792.01714     -457.55302      1882.3786    
 147396000   255.69127     -416.76633     -331.13199     -416.75081      0              2557.5424      31.138         21.471905      33.562402      22439.559      4158.1844      2336.65        1177.7929      375.9179      -394.37835     -663.6042     
 147398000   256.97801     -414.97309     -328.9078      -414.95698      0              1687.8267      31.138         21.471905      33.509352      22404.09       829.67467      1458.8197      2774.9857      182.04964     -317.52334      1161.315     
 147400000   246.64965     -419.31792     -336.71173     -419.31014      0              2227.6469      31.138         21.471905      33.677878      22516.766      2821.1036      2525.7889      1336.0484      167.22169      305.80635     -1817.1805    
 147402000   250.55064     -417.8205      -333.90782     -417.80982      0              2142.4319      31.138         21.471905      33.457564      22369.466      2160.1412      1363.6317      2903.5228      223.15685      609.11532      515.21482    
 147404000   249.44804     -415.55362     -332.01022     -415.53634      0              2713.2251      31.138         21.471905      33.482752      22386.306      3695.2168      900.18437      3544.274       623.77158     -910.18166      2094.5551    
 147406000   248.66383     -417.09016     -333.8094      -417.07994      0              2104.6175      31.138         21.471905      33.615961      22475.368      779.98424      2324.991       3208.8772     -747.99368     -181.31194      645.79583    
 147408000   251.95039     -413.95318     -329.57171     -413.95531      0              2155.767       31.138         21.471905      33.681903      22519.457      1619.4904      2075.1762      2772.6345      498.79456     -60.7985        1415.7103    
 147410000   252.9673      -416.48518     -331.76313     -416.47791      0              3014.8043      31.138         21.471905      33.538681      22423.7        4023.4226      2847.4639      2173.5264      323.47649     -1241.457       161.22568    
 147412000   251.04698     -420.4821      -336.4032      -420.48168      0              3680.7261      31.138         21.471905      33.583033      22453.353      3094.5086      3960.0063      3987.6633     -595.25698      464.57658      780.60477    
 147414000   251.61645     -415.13404     -330.86441     -415.12684      0              1588.8096      31.138         21.471905      33.67725       22516.346      732.39757      3872.1542      161.87707      595.45008     -634.67872     -486.44959    
 147416000   249.29232     -418.01234     -334.5211      -418.01612      0              3067.448       31.138         21.471905      33.33487       22287.433      2916.023       3148.5823      3137.7386      1531.415      -749.61824      898.23217    
 147418000   258.45609     -418.96924     -332.40892     -418.97474      0              2904.0805      31.138         21.471905      33.420489      22344.677      2519.09        3879.9196      2313.2318     -678.76637      189.0175       991.21132    
 147420000   248.45773     -420.87158     -337.65984     -420.87587      0              6253.0118      31.138         21.471905      33.446695      22362.198      6015.4648      5911.2734      6832.2972     -78.870257      821.39907     -636.18562    
 147422000   249.99028     -417.62383     -333.89883     -417.61503      0              4793.7741      31.138         21.471905      33.360209      22304.375      6107.6062      3500.632       4773.0841      1197.3193      464.80336     -120.89335    
 147424000   253.59688     -418.74424     -333.81134     -418.74414      0              3201.5731      31.138         21.471905      33.426516      22348.707      2945.9031      4898.4999      1760.3163     -985.79302     -1113.1671     -2057.5162    
 147426000   246.93109     -417.78187     -335.08143     -417.78907      0              2330.4844      31.138         21.471905      33.617887      22476.656      953.53101      1494.1035      4543.8188      736.63263     -396.6007       268.81586    
 147428000   245.69046     -419.37243     -337.08749     -419.37396      0             -1109.7005      31.138         21.471905      33.701103      22532.294     -1986.9276      1671.5128     -3013.6867     -177.85631     -98.945473     -2423.7803    
 147430000   259.01847     -421.4851      -334.73643     -421.48398      0              172.13396      31.138         21.471905      33.370278      22311.107      766.92596     -938.88363      688.35955     -1061.8183     -1020.8973     -1343.6657    
 147432000   247.08        -417.66008     -334.90977     -417.66148      0              3593.3305      31.138         21.471905      33.382559      22319.318      4522.4422      3148.46        3109.0893      1165.1261     -154.87313     -1173.6647    
 147434000   248.99467     -416.85755     -333.46599     -416.86164      0              2982.1596      31.138         21.471905      33.40018       22331.099      2177.322       3497.3868      3271.77        110.53697     -166.66362      348.99878    
 147436000   253.80762     -419.02832     -334.02484     -419.025        0              2480.2766      31.138         21.471905      33.377588      22315.995      2018.6949      1753.4178      3668.717       1752.6164      72.267127      1131.3319    
 147438000   254.00409     -419.73198     -334.6627      -419.73098      0              3266.9439      31.138         21.471905      33.573897      22447.245      2739.5485      5037.0649      2024.2182      1681.034      -1045.6428      291.30076    
 147440000   243.47623     -416.6947      -335.15133     -416.68853      0              2358.9867      31.138         21.471905      33.528802      22417.095      2677.1399      3675.8327      723.98737      1294.3735      1116.1309      608.17218    
 147442000   247.2509      -417.36909     -334.56154     -417.36624      0              1958.8012      31.138         21.471905      33.502239      22399.335      2934.3811      2868.1206      73.901834     -292.49461     -433.11529     -590.65047    
 147444000   254.28608     -416.6642      -331.50047     -416.66705      0              5357.257       31.138         21.471905      33.163514      22172.866      6303.2122      5638.4473      4130.1115     -318.40276     -358.34984      736.7625     
 147446000   252.42103     -420.45193     -335.91284     -420.45261      0              2801.2085      31.138         21.471905      33.257443      22235.666      2156.5426      4678.4863      1568.5967      454.38772      1268.3724      727.39226    
 147448000   243.29829     -418.1282      -336.64443     -418.11836      0              1915.4758      31.138         21.471905      33.430387      22351.296      1951.6593      2379.3233      1415.4448      482.2506       588.34847     -434.51239    
 147450000   242.14889     -421.26019     -340.16137     -421.26054      0              2929.5846      31.138         21.471905      33.315923      22274.766      2236.8915      4031.765       2520.0972      82.384999      652.98486      883.41226    
 147452000   249.25517     -421.26507     -337.78626     -421.25544      0              2429.1912      31.138         21.471905      33.339053      22290.23       2591.1495      1195.8563      3500.5677     -977.97102      666.64291      976.74989    
 147454000   249.46204     -418.18584     -334.63775     -418.18417      0              3410.7184      31.138         21.471905      33.177384      22182.14       4068.9423      2940.7404      3222.4724     -953.8441      -440.75694      798.96068    
 147456000   255.26021     -415.54223     -330.05226     -415.53618      0              5779.5954      31.138         21.471905      33.349         22296.88       6735.5282      4912.8427      5690.4153     -536.57499     -1562.3074     -415.04221    
 147458000   249.83308     -417.57054     -333.89818     -417.57095      0              3052.7145      31.138         21.471905      33.325153      22280.937      2796.79        3658.7748      2702.5785      1279.2203     -316.50838      992.37866    
WARNING: Wall time limit reached (../timer.cpp:193)
Loop time of 85794.9 on 4 procs for 8122000 steps with 2592 atoms

Performance: 4.090 ns/day, 5.868 hours/ns, 94.668 timesteps/s
1544.6% CPU use with 4 MPI tasks x no OpenMP threads

MPI task timing breakdown:
Section |  min time  |  avg time  |  max time  |%varavg| %total
---------------------------------------------------------------
Pair    | 22479      | 22754      | 23062      | 160.3 | 26.52
Bond    | 0.85646    | 0.87272    | 0.90644    |   2.1 |  0.00
Neigh   | 680.85     | 690.7      | 699.85     |  33.8 |  0.81
Comm    | 2485.9     | 2797.2     | 3073.9     | 461.3 |  3.26
Output  | 303.4      | 303.42     | 303.45     |   0.1 |  0.35
Modify  | 59219      | 59226      | 59233      |   2.6 | 69.03
Other   |            | 22.62      |            |       |  0.03

Nlocal:            648 ave         659 max         629 min
Histogram: 1 0 0 0 0 1 0 0 0 2
Nghost:        4161.25 ave        4168 max        4145 min
Histogram: 1 0 0 0 0 0 0 0 1 2
Neighs:              0 ave           0 max           0 min
Histogram: 4 0 0 0 0 0 0 0 0 0
FullNghs:       161688 ave      167197 max      154508 min
Histogram: 1 0 0 1 0 0 0 0 0 2

Total # of neighbors = 646750
Ave neighs/atom = 249.51775
Ave special neighs/atom = 0
Neighbor list builds = 162440
Dangerous builds not checked
unfix 3
unfix 1
unfix 2


# Finalize simulation
write_restart	restart.lmp.${pid}
write_restart	restart.lmp.0
System init for write_restart ...
Generated 0 of 1 mixed pair_coeff terms from geometric mixing rule
write_data	data.final.${pid} nocoeff
write_data	data.final.0 nocoeff
System init for write_data ...
Generated 0 of 1 mixed pair_coeff terms from geometric mixing rule
Total wall time: 23:50:09
