LAMMPS (23 Jun 2022)
include procedure.lmp
echo both
include		in.partitions
variable        pid world 0
include		in.temp
variable	temperature equal 250
variable        tempDamp equal 0.100 # this is 0.1 ps
include		in.pressure
variable        pressure equal 3039.75
variable        pressureDamp equal 1.0 #this is 1ps

variable	barostat string	   tri
variable	direction string   z
variable	direction_x_bool equal 0
variable	direction_y_bool equal 0
variable	direction_z_bool equal 1

include		in.seed
variable        seed world 745823

units           metal
atom_style	full
box tilt large
read_restart 	restart.lmp.${pid}
read_restart 	restart.lmp.0
Reading restart file ...
  restart file = 23 Jun 2022, LAMMPS = 23 Jun 2022
  restoring atom style full from restart
  triclinic box = (0 0 -0.67976854) to (31.138 21.471905 32.875608) with tilt (-9.185133 -9.074093 10.845648)
WARNING: Triclinic box skew is large (../domain.cpp:224)
  2 by 1 by 2 MPI processor grid
Summary of lammps deepmd module ...
  >>> Info of deepmd-kit:
  installed to:       /u/sigbjobo/software/DEEPMD_FROM_SOURCE/deepmd-kit/install
  source:             v2.1.3
  source branch:       master
  source commit:      5a32c49
  source commit at:   2022-07-01 09:52:58 +0800
  surpport model ver.:1.1 
  build float prec:   double
  build with tf inc:  /u/sigbjobo/software/DEEPMD_FROM_SOURCE/tensorflow/install/include;/u/sigbjobo/software/DEEPMD_FROM_SOURCE/tensorflow/install/include
  build with tf lib:  /u/sigbjobo/software/DEEPMD_FROM_SOURCE/tensorflow/install/lib/libtensorflow_cc.so;/u/sigbjobo/software/DEEPMD_FROM_SOURCE/tensorflow/install/lib/libtensorflow_framework.so
  set tf intra_op_parallelism_threads: 0
  set tf inter_op_parallelism_threads: 0
  >>> Info of lammps module:
  use deepmd-kit at:  /u/sigbjobo/software/DEEPMD_FROM_SOURCE/deepmd-kit/install
  source:             v2.1.3
  source branch:      master
  source commit:      5a32c49
  source commit at:   2022-07-01 09:52:58 +0800
  build float prec:   double
  build with tf inc:  /u/sigbjobo/software/DEEPMD_FROM_SOURCE/tensorflow/install/include;/u/sigbjobo/software/DEEPMD_FROM_SOURCE/tensorflow/install/include
  build with tf lib:  /u/sigbjobo/software/DEEPMD_FROM_SOURCE/tensorflow/install/lib/libtensorflow_cc.so;/u/sigbjobo/software/DEEPMD_FROM_SOURCE/tensorflow/install/lib/libtensorflow_framework.so
  restoring pair style deepmd from restart
  2592 atoms
Finding 1-2 1-3 1-4 neighbors ...
  special bond factors lj:    0        0        0       
  special bond factors coul:  0        0        0       
     0 = max # of 1-2 neighbors
     0 = max # of 1-3 neighbors
     0 = max # of 1-4 neighbors
     1 = max # of special neighbors
  special bonds CPU = 0.000 seconds
  read_restart CPU = 0.056 seconds
include 	in.setup
variable	out_freq equal 2000
variable	out_freq2 equal 2000

timestep        0.0005

neigh_modify    delay 7 every 1

include         in.deepmd
# This is deepMD model

# create groups ###
#group ox type 2
#group hy type 1

mass 2 15.999
mass 1 1.008

pair_style      deepmd ../graph.pb
pair_coeff      * *

bond_style      none
angle_style     none
dihedral_style  none
improper_style  none
neigh_modify exclude none


neighbor        2.0 bin
neigh_modify    every 50 delay 0 check no

thermo          ${out_freq}
thermo          2000
thermo_style 	custom step temp pe etotal epair emol press lx ly lz vol pxx pyy pzz pxy pxz pyz

restart 	${out_freq} restart.lmp.${pid} restart2.lmp.${pid}
restart 	2000 restart.lmp.${pid} restart2.lmp.${pid}
restart 	2000 restart.lmp.0 restart2.lmp.${pid}
restart 	2000 restart.lmp.0 restart2.lmp.0


timer           timeout 23:50:00 every 1000
New timer settings: style=normal  mode=nosync  timeout=23:50:00


# Set number of time steps
variable 	nsteps_wall		equal	 6000000
variable 	nsteps_enhanced_coex    equal	60000000

variable     nsteps_enhanced_coex_upto equal (${nsteps_wall}+${nsteps_enhanced_coex})
variable     nsteps_enhanced_coex_upto equal (6000000+${nsteps_enhanced_coex})
variable     nsteps_enhanced_coex_upto equal (6000000+60000000)


# Set temperature for first step
if "$(step) < 1  " then    "velocity 	all create ${temperature} ${seed} dist gaussian"


# Always run thermo and barostat


######################################
# Run simulation with wall potential #
######################################
if " $(step) < ${nsteps_wall} " then    "fix             3 all plumed plumedfile plumed.equil.dat outfile plumed.equil.out"   "fix             1 all nph ${direction} ${pressure} ${pressure} ${pressureDamp}"   "fix             2 all temp/csvr ${temperature} ${temperature} ${tempDamp} ${seed}"   "run             ${nsteps_wall} upto"
if " $(step) == ${nsteps_wall} " then    "unfix 3"   "unfix 1"   "unfix 2"


############################
# Run enhanced coesistence #
############################
if "$(step) == ${nsteps_wall}" then    "fix             3 all plumed plumedfile plumed.start.dat outfile plumed.out" else    "fix             3 all plumed plumedfile plumed.dat outfile plumed.out"
fix             3 all plumed plumedfile plumed.dat outfile plumed.out

if "$(step) < ${nsteps_enhanced_coex_upto} && $(step) >= ${nsteps_wall} " then    "include         in.dump"    "fix             1 all nph ${direction} ${pressure} ${pressure} ${pressureDamp}"   "fix             2 all temp/csvr ${temperature} ${temperature} ${tempDamp} ${seed}"   "run             ${nsteps_enhanced_coex_upto} upto"    "unfix 3"   "unfix 1"   "unfix 2"
include         in.dump
dump            myDump all atom ${out_freq2} dump.water.${pid}
dump            myDump all atom 2000 dump.water.${pid}
dump            myDump all atom 2000 dump.water.0
dump            myDump2 all dcd ${out_freq2} dump.${pid}.dcd
dump            myDump2 all dcd 2000 dump.${pid}.dcd
dump            myDump2 all dcd 2000 dump.0.dcd
dump_modify     myDump append yes
dump_modify     myDump2 append yes

fix             1 all nph ${direction} ${pressure} ${pressure} ${pressureDamp}
fix             1 all nph z ${pressure} ${pressure} ${pressureDamp}
fix             1 all nph z 3039.75 ${pressure} ${pressureDamp}
fix             1 all nph z 3039.75 3039.75 ${pressureDamp}
fix             1 all nph z 3039.75 3039.75 1
fix             2 all temp/csvr ${temperature} ${temperature} ${tempDamp} ${seed}
fix             2 all temp/csvr 250 ${temperature} ${tempDamp} ${seed}
fix             2 all temp/csvr 250 250 ${tempDamp} ${seed}
fix             2 all temp/csvr 250 250 0.1 ${seed}
fix             2 all temp/csvr 250 250 0.1 745823
run             ${nsteps_enhanced_coex_upto} upto
run             66000000 upto

CITE-CITE-CITE-CITE-CITE-CITE-CITE-CITE-CITE-CITE-CITE-CITE-CITE

Your simulation uses code contributions which should be cited:

- USER-DEEPMD package:

@article{Wang_ComputPhysCommun_2018_v228_p178,
  author = {Wang, Han and Zhang, Linfeng and Han, Jiequn and E, Weinan},
  doi = {10.1016/j.cpc.2018.03.016},
  url = {https://doi.org/10.1016/j.cpc.2018.03.016},
  year = 2018,
  month = {jul},
  publisher = {Elsevier {BV}},
  volume = 228,
  journal = {Comput. Phys. Commun.},
  title = {{DeePMD-kit: A deep learning package for many-body potential energy representation and molecular dynamics}},
  pages = {178--184}
}

CITE-CITE-CITE-CITE-CITE-CITE-CITE-CITE-CITE-CITE-CITE-CITE-CITE

Generated 0 of 1 mixed pair_coeff terms from geometric mixing rule
Neighbor list info ...
  update every 50 steps, delay 0 steps, check no
  max neighbors/atom: 2000, page size: 100000
  master list distance cutoff = 8
  ghost atom cutoff = 8
  binsize = 4, bins = 13 9 9
  1 neighbor lists, perpetual/occasional/extra = 1 0 0
  (1) pair deepmd, perpetual
      attributes: full, newton on
      pair build: full/bin
      stencil: full/bin/3d
      bin: standard
Per MPI rank memory allocation (min/avg/max) = 7.299 | 7.299 | 7.3 Mbytes
   Step          Temp          PotEng         TotEng         E_pair         E_mol          Press            Lx             Ly             Lz           Volume          Pxx            Pyy            Pzz            Pxy            Pxz            Pyz      
  61508000   248.837       -415.89549     -332.55673     -415.89549      0              3670.3296      31.138         21.471905      33.555376      22434.862      2899.4681      4723.6839      3387.8369      648.37889     -1389.9557     -355.00564    
  61510000   248.62837     -414.47494     -331.20606     -414.44968      0              1395.2459      31.138         21.471905      33.614545      22474.422      2292.972       1157.9912      734.77456      687.59959      22.027053      321.93942    
  61512000   247.90234     -417.77944     -334.75371     -417.7543       0              1992.5689      31.138         21.471905      33.499624      22397.587      3090.3399      2226.6656      660.70118     -340.687        171.69227     -646.24049    
  61514000   255.04986     -418.71108     -333.29155     -418.68757      0              2786.5058      31.138         21.471905      33.615553      22475.096      5212.1362      1461.962       1685.4191      364.71233     -1378.4952     -1581.9583    
  61516000   245.93575     -416.55728     -334.19019     -416.53243      0              3253.5167      31.138         21.471905      33.478188      22383.255      3593.0403      3018.0434      3149.4666      67.577503      153.89689      511.60504    
  61518000   251.61084     -414.68723     -330.41948     -414.66237      0              3500.7782      31.138         21.471905      33.523771      22413.731      3765.3574      3612.0711      3124.9062      1905.7003      808.90726      1881.2356    
  61520000   256.1161      -416.84607     -331.06945     -416.82089      0              3734.3114      31.138         21.471905      33.429576      22350.753      4630.8188      3444.0272      3128.0883      814.07744      684.07382     -628.78916    
  61522000   241.7025      -416.06052     -335.1112      -416.03532      0              4932.5025      31.138         21.471905      33.490684      22391.609      3875.9537      6219.648       4701.906       1798.8524     -524.72692      564.31898    
  61524000   246.58571     -415.1639      -332.57913     -415.13993      0              2006.4572      31.138         21.471905      33.44942       22364.02       2109.0287      2261.3143      1649.0285      505.14742      789.11659     -142.82042    
  61526000   243.67684     -417.25051     -335.63996     -417.22539      0              2671.2746      31.138         21.471905      33.385635      22321.375      3055.9867      2197.7508      2760.0864     -141.4883       1394.0326     -271.23986    
  61528000   247.86152     -418.86288     -335.85083     -418.83941      0              1723.0373      31.138         21.471905      33.189335      22190.13       2281.4046      445.23056      2442.4768      712.65844      455.33115      1511.2477    
  61530000   246.07025     -416.33238     -333.92025     -416.3075       0              1787.8709      31.138         21.471905      33.462802      22372.968      3693.4673      677.50079      992.64473      1793.5564     -274.04357     -515.96331    
  61532000   251.59426     -414.53774     -330.27554     -414.51268      0              2988.7568      31.138         21.471905      33.39237       22325.877      2520.5733      4479.1224      1966.5748     -440.70081     -1626.4842     -1220.1423    
  61534000   255.57858     -414.57811     -328.98151     -414.55387      0              3412.8571      31.138         21.471905      33.457534      22369.446      3473.9976      1864.6401      4899.9335      269.62056      696.4844      -322.33843    
  61536000   248.20272     -417.2575      -334.13118     -417.23178      0              3355.0651      31.138         21.471905      33.264149      22240.15       2832.1543      3172.1411      4060.8999      1436.5823     -194.71239      1224.6993    
  61538000   259.93827     -414.07166     -327.01495     -414.04695      0              2989.3021      31.138         21.471905      33.423573      22346.739      3016.4036      3081.9241      2869.5786      288.06628     -538.43194      501.71311    
  61540000   245.96932     -415.70748     -333.32915     -415.68383      0              1779.7247      31.138         21.471905      33.362402      22305.841      1937.8142      3195.8425      205.5174       1417.9795     -338.78115     -1251.8279    
  61542000   247.02612     -419.07672     -336.34445     -419.0533       0              3953.2943      31.138         21.471905      33.355745      22301.39       4990.3752      3734.869       3134.6386      1390.617      -1328.5226     -807.58663    
  61544000   251.23614     -416.96337     -332.82111     -416.94012      0              1742.666       31.138         21.471905      33.381796      22318.808      2370.7423      637.85293      2219.4027     -16.758781     -37.488409      1661.8       
  61546000   253.25392     -414.98148     -330.16344     -414.95809      0              5386.9646      31.138         21.471905      33.31339       22273.072      6783.969       4556.9052      4820.0198      1079.6044      798.46354      1467.2786    
  61548000   251.24033     -417.49302     -333.34936     -417.47133      0              4210.4724      31.138         21.471905      33.358232      22303.053      3423.2468      5389.2976      3818.8728     -383.72678      1363.3047     -1026.2272    
  61550000   249.68957     -415.15848     -331.53419     -415.13377      0              4808.2479      31.138         21.471905      33.509407      22404.127      3834.3341      6033.2896      4557.1201     -187.72856     -730.23422     -1010.9707    
  61552000   246.7627      -417.36399     -334.71995     -417.34631      0              2915.7906      31.138         21.471905      33.393991      22326.961      3469.6342      3424.0263      1853.7112      1550.9617     -495.88733      1194.0244    
  61554000   246.39332     -415.18774     -332.6674      -415.16012      0              3878.0914      31.138         21.471905      33.283808      22253.294      4170.144       3405.3939      4058.7364     -230.93876      2103.0435     -1335.6381    
  61556000   246.47861     -415.97078     -333.42188     -415.94664      0              2720.6187      31.138         21.471905      33.256687      22235.161      3725.6006      3744.0521      692.20325     -897.1556      -127.90776     -718.18223    
  61558000   253.155       -414.7638      -329.97889     -414.74035      0              84.089301      31.138         21.471905      33.245637      22227.773     -954.74627      1003.5893      203.42492      156.7739       1067.3016      1447.7912    
  61560000   253.27153     -418.44157     -333.61763     -418.41824      0              2539.3482      31.138         21.471905      33.233903      22219.927      1478.8618      2405.8976      3733.2851      34.397362      385.16942      60.803718    
  61562000   257.70395     -416.22223     -329.91382     -416.26988      0              5232.9653      31.138         21.471905      33.378311      22316.478      4159.4076      7137.0365      4402.4519      1698.5394     -697.51153     -738.9564     
  61564000   247.08374     -413.32739     -330.57582     -413.3035       0              2878.8364      31.138         21.471905      33.429512      22350.71       3148.2448      3485.0756      2003.1889      152.92856     -932.11375     -1300.9916    
  61566000   247.8454      -416.43486     -333.4282      -416.41304      0              1006.9415      31.138         21.471905      33.370168      22311.033      1658.8607      401.61066      960.35327      453.06366     -652.90489     -228.08804    
  61568000   252.45012     -417.97672     -333.42788     -417.9549       0              2194.5962      31.138         21.471905      33.427169      22349.144      1932.0659      1838.2668      2813.4559      1246.8048      1737.8625     -616.91297    
  61570000   249.56225     -414.67598     -331.09433     -414.65519      0              4208.1699      31.138         21.471905      33.521112      22411.954      3825.0832      4060.2262      4739.2003      508.95235      691.71529      523.44688    
  61572000   253.67089     -414.1898      -329.23211     -414.19497      0              4850.602       31.138         21.471905      33.296128      22261.531      5768.7739      3923.3335      4859.6987      161.89222     -120.11934      882.49239    
  61574000   256.95272     -414.95371     -328.8969      -414.93525      0              3473.7009      31.138         21.471905      33.469908      22377.719      2555.8179      3616.0968      4249.1882      1155.8698      811.03268      144.30796    
  61576000   243.85717     -416.07523     -334.40428     -416.05358      0              2607.6915      31.138         21.471905      33.141395      22158.078      3012.9043      1800.8062      3009.3638      483.6184      -1225.9593      1065.457     
  61578000   249.39656     -416.46975     -332.94359     -416.44466      0              3108.3777      31.138         21.471905      33.228609      22216.388      2881.4855      3061.1983      3382.4493     -813.98686      1346.1238      561.07265    
  61580000   256.00574     -413.97476     -328.23509     -413.99995      0              3583.1883      31.138         21.471905      33.206126      22201.356      4156.6962      2432.1396      4160.7293      1352.5211      1132.3396      205.59075    
  61582000   248.34005     -415.9597      -332.78738     -415.93625      0              2947.5665      31.138         21.471905      33.289025      22256.782      4300.9032      1729.4353      2812.3611      137.59293      238.68588     -1241.9515    
  61584000   247.89939     -416.6081      -333.58337     -416.61552      0              2712.6818      31.138         21.471905      33.430714      22351.514      2663.4534      3646.1934      1828.3987      989.37792     -281.76948     -828.4289     
  61586000   249.88778     -413.72956     -330.03888     -413.70627      0              2568.0564      31.138         21.471905      33.565875      22441.882      2841.839       2272.378       2589.9523      762.21622     -1361.3316      337.05528    
  61588000   251.89327     -417.42286     -333.06052     -417.41894      0              4330.4157      31.138         21.471905      33.361855      22305.475      5207.0195      2122.4971      5661.7306      500.65613      637.02854      183.24896    
  61590000   248.90707     -418.5374      -335.17517     -418.53738      0              3345.2761      31.138         21.471905      33.341957      22292.172      2971.0366      4098.0375      2966.7543     -583.25194     -630.82435      338.06342    
  61592000   251.29879     -415.8004      -331.63716     -415.77728      0              2444.158       31.138         21.471905      33.141731      22158.302      1090.5904      4285.2745      1956.609      -1467.4785     -482.30523      1927.9849    
  61594000   246.73283     -416.86747     -334.23343     -416.84316      0              3792.7482      31.138         21.471905      33.271878      22245.317      2960.8092      2270.8618      6146.5736      916.17471     -987.36826     -713.66983    
  61596000   253.72562     -417.8815      -332.90549     -417.85882      0              1746.1341      31.138         21.471905      33.511696      22405.658      1996.3383      1520.8171      1721.2469      701.60921     -603.20067     -728.81586    
  61598000   242.80917     -418.82293     -337.50297     -418.79964      0              3928.9558      31.138         21.471905      33.294667      22260.554      3094.8978      4092.8389      4599.1306      2405.7404     -685.30283      750.21307    
  61600000   255.87276     -418.23064     -332.53552     -418.20857      0              3104.6382      31.138         21.471905      33.390804      22324.83       2668.7611      3967.042       2678.1117      529.84294      441.77827     -296.61882    
  61602000   250.19467     -418.66389     -334.87043     -418.63687      0              2801.9832      31.138         21.471905      33.402406      22332.587      3619.0226      2528.7265      2258.2006     -408.92255      593.79151     -1313.7066    
  61604000   249.88714     -418.94009     -335.24963     -418.91524      0              3333.4227      31.138         21.471905      33.274951      22247.372      3992.9063      2416.7147      3590.6471     -849.58111      1388.4003     -934.85174    
  61606000   253.0879      -419.47228     -334.70985     -419.45033      0              5783.2789      31.138         21.471905      33.318374      22276.404      5018.1236      5909.8479      6421.8653      1020.827      -445.46047      550.08079    
  61608000   255.99921     -418.10888     -332.3714      -418.09282      0              2689.9954      31.138         21.471905      33.45085       22364.977      2220.2725      2134.4426      3715.271       2224.176       507.3538       1026.3908    
  61610000   248.88723     -417.67367     -334.31809     -417.65701      0              5606.13        31.138         21.471905      33.472923      22379.734      6504.004       4136.0821      6178.3041      989.1801      -504.91272     -525.83111    
  61612000   249.1525      -417.40353     -333.95911     -417.38044      0              5527.0816      31.138         21.471905      33.376688      22315.393      6464.3697      5257.215       4859.66        712.53299      120.81234      405.53399    
  61614000   252.94631     -418.19261     -333.47759     -418.16962      0              3044.8961      31.138         21.471905      33.476217      22381.937      2534.817       1186.1743      5413.697       376.28171     -1204.4907      1968.9897    
  61616000   252.07349     -415.86078     -331.43808     -415.83759      0              1751.7473      31.138         21.471905      33.677163      22516.288      3134.5968      1638.0865      482.55866     -1133.5702      220.03752     -375.51139    
  61618000   246.81201     -415.5666      -332.90604     -415.565        0              4070.7261      31.138         21.471905      33.786308      22589.261      4040.8542      5937.9638      2233.3603     -200.68318     -617.51294     -1086.5617    
  61620000   249.99523     -417.4359      -333.70923     -417.41276      0              2697.428       31.138         21.471905      33.685652      22521.964      3895.8158      3370.7898      825.67839     -380.77495     -958.52186     -143.21406    
  61622000   251.60736     -416.07108     -331.8045      -416.04798      0              3340.7565      31.138         21.471905      33.576179      22448.771      3089.5156      4110.556       2822.1979      586.9529      -110.39967     -193.162      
  61624000   244.77946     -416.91234     -334.9325      -416.8966       0              1619.8512      31.138         21.471905      33.572993      22446.641      2433.4788      2079.74        346.33486     -1081.4768     -2192.6799      530.75064    
  61626000   252.0397      -418.94444     -334.53306     -418.92153      0              3845.2143      31.138         21.471905      33.48334       22386.699      3387.9714      3759.5113      4388.1603     -82.605554     -98.869854      428.09916    
  61628000   245.81753     -416.61403     -334.28654     -416.59603      0              3678.2679      31.138         21.471905      33.493835      22393.716      5888.7298      3460.2388      1685.8352     -2850.5252     -1348.8169      705.01457    
  61630000   251.87838     -417.66268     -333.30532     -417.65009      0              3992.28        31.138         21.471905      33.45977       22370.94       5123.8225      2856.104       3996.9134      1921.5724     -19.028791      43.261677    
  61632000   252.89353     -417.3767      -332.67936     -417.3547       0              4194.9733      31.138         21.471905      33.390185      22324.417      5612.508       3201.1598      3771.2521     -227.99871     -1417.9988      306.46973    
  61634000   252.27101     -417.0738      -332.58495     -417.05075      0              5493.8779      31.138         21.471905      33.525956      22415.192      7448.6894      6060.6411      2972.303      -395.9003       305.61328      171.88948    
  61636000   249.76666     -418.10162     -334.45151     -418.07847      0              3351.4626      31.138         21.471905      33.673916      22514.117      4229.4433      2492.3001      3332.6445      223.15826     -642.60169     -940.70264    
  61638000   249.52874     -417.97461     -334.40418     -417.95172      0              1542.9714      31.138         21.471905      33.673978      22514.158      3096.8545      1428.6289      103.43078     -154.02265     -1798.5632     -835.00712    
  61640000   249.77018     -418.19579     -334.5445      -418.18682      0              4680.6296      31.138         21.471905      33.587884      22456.596      4357.5552      4682.8565      5001.4773      1526.9683     -856.75901     -423.7967     
  61642000   249.20227     -417.20628     -333.74519     -417.19509      0              3273.7102      31.138         21.471905      33.415844      22341.572      4057.9864      4119.7258      1643.4185     -616.93911     -867.76247     -1318.4946    
  61644000   253.20162     -419.43432     -334.6338      -419.40996      0              2475.4717      31.138         21.471905      33.416276      22341.861      1578.2977      4164.7291      1683.3881      818.86246      99.519012      487.08307    
  61646000   251.6353      -416.69609     -332.42015     -416.67309      0              2580.4651      31.138         21.471905      33.615664      22475.17       3971.8643      2547.4926      1222.0383     -517.52757     -228.43233      235.50598    
  61648000   260.33889     -417.6996      -330.50871     -417.67488      0              3488.5441      31.138         21.471905      33.5574        22436.215      4269.2401      3545.8503      2650.5418      953.90319      481.91486      1218.2374    
  61650000   253.25334     -417.63842     -332.82057     -417.61547      0              3298.6086      31.138         21.471905      33.541882      22425.84       3965.2804      2826.8684      3103.6769      761.79443     -1643.4581     -759.55157    
  61652000   252.4203      -416.36693     -331.82809     -416.34107      0              3307.7922      31.138         21.471905      33.524551      22414.253      2191.945       3891.7921      3839.6395     -792.51703      214.75032      2581.8113    
  61654000   242.62568     -414.84166     -333.58316     -414.82035      0              1889.1701      31.138         21.471905      33.272086      22245.457      2864.3044      1357.514       1445.6919      278.97165      44.332057      166.33508    
  61656000   246.48059     -416.17724     -333.62768     -416.15273      0              3979.9185      31.138         21.471905      33.386928      22322.239      2889.4091      5787.0367      3263.3096     -23.243318     -183.10111      318.28638    
  61658000   249.16362     -418.76128     -335.31314     -418.73712      0              2466.8511      31.138         21.471905      33.367211      22309.056      2229.6186      2847.6231      2323.3116      941.03717     -1696.52       -706.69195    
  61660000   250.14301     -416.94158     -333.16542     -416.91588      0              4162.9123      31.138         21.471905      33.278524      22249.761      4205.3293      4625.2965      3658.1109      587.14224     -56.666594     -464.91419    
  61662000   255.87796     -417.48742     -331.79055     -417.46359      0              2049.3643      31.138         21.471905      33.235038      22220.687      3147.6372      741.93337      2258.5225     -446.73639     -48.413795      472.81985    
  61664000   242.52214     -417.56692     -336.34309     -417.54384      0              2634.2673      31.138         21.471905      33.293107      22259.511      5512.2655      515.62729      1874.9092      193.41816     -342.93133      2922.5774    
  61666000   248.58193     -417.95522     -334.70189     -417.93247      0              2426.7931      31.138         21.471905      32.979246      22049.666      4009.2903      1128.9123      2142.1768      411.60613      534.92767     -505.47946    
  61668000   254.98133     -416.69636     -331.29979     -416.67348      0              3435.8309      31.138         21.471905      33.302713      22265.934      3830.6006      1665.1124      4811.7796     -110.53014     -227.05316      985.81883    
  61670000   251.73209     -416.65845     -332.3501      -416.63558      0              2305.9368      31.138         21.471905      33.16417       22173.305      3590.279       589.85956      2737.6719      954.29448     -887.57662      1580.7025    
  61672000   253.13204     -416.50208     -331.72486     -416.48889      0              2562.5135      31.138         21.471905      33.324811      22280.708      2033.434       2092.6298      3561.4768      1087.7474      362.57851      410.73624    
  61674000   251.09865     -414.89576     -330.79955     -414.87111      0              2778.9566      31.138         21.471905      33.289765      22257.277      1845.6638      982.74754      5508.4583     -2538.5132     -321.65305     -14.593239    
  61676000   245.51179     -415.67644     -333.45134     -415.65258      0              3710.7273      31.138         21.471905      33.401124      22331.73       5091.1126      2984.6038      3056.4654     -473.30247      163.9266      -360.24828    
  61678000   251.95563     -415.37516     -330.99193     -415.35235      0              1836.6464      31.138         21.471905      33.658369      22503.722      2416.3197      1370.1846      1723.4351      101.26688      457.76503      1552.7438    
  61680000   248.1928      -415.66062     -332.53761     -415.65312      0              2230.1355      31.138         21.471905      33.505037      22401.206      1246.0404      3578.3682      1865.9979     -1578.4437      161.42393      309.6729     
  61682000   244.2071      -417.23222     -335.44408     -417.20934      0              3257.1827      31.138         21.471905      33.621325      22478.955      3369.96        2025.0725      4376.5157     -543.20112     -201.52408     -282.24653    
  61684000   242.48812     -418.14637     -336.93394     -418.12218      0              3084.7334      31.138         21.471905      33.454659      22367.523      2133.3329      3228.9379      3891.9293      187.20227      1188.6857     -107.18627    
  61686000   255.78665     -416.85947     -331.19319     -416.83453      0              1609.7657      31.138         21.471905      33.368217      22309.729      826.00396      3175.0537      828.23937      1889.7524      1444.1466      714.80317    
  61688000   248.64783     -415.78997     -332.51457     -415.76504      0              1254.2227      31.138         21.471905      33.440754      22358.227      693.56848      2984.9577      84.141788      686.51729     -837.01498      206.72416    
  61690000   248.99        -416.28327     -332.89327     -416.26086      0              4313.7774      31.138         21.471905      33.28603       22254.779      4107.0433      4300.1718      4534.117       362.43805     -745.69941      913.89593    
  61692000   247.50062     -413.09041     -330.19923     -413.06729      0              3707.9662      31.138         21.471905      33.327167      22282.283      3964.6613      3015.9313      4143.306       522.85351      1166.8662     -1221.5464    
  61694000   252.40172     -413.89559     -329.36297     -413.8729       0              1576.0791      31.138         21.471905      33.409668      22337.443      2965.0167      1326.3161      436.90454     -94.368598     -1317.245       844.22043    
  61696000   250.62909     -415.51591     -331.57696     -415.49319      0              2373.9154      31.138         21.471905      33.300477      22264.438      3240.861       1311.7199      2569.1651      1080.5014     -460.79446      621.38785    
  61698000   255.68085     -415.32417     -329.69333     -415.29953      0              3193.6139      31.138         21.471905      33.445204      22361.202      5112.5938      2689.614       1778.6339      30.584527     -186.10265      235.27538    
  61700000   251.84085     -415.77525     -331.43047     -415.75265      0              3161.7455      31.138         21.471905      33.316311      22275.025      3658.0566      2704.2606      3122.9195     -560.22965     -86.740748      371.39681    
  61702000   248.63935     -415.82855     -332.55599     -415.80446      0              3145.7966      31.138         21.471905      33.354377      22300.475      2829.8381      2346.8307      4260.7211      1070.5922      1090.689       777.79581    
  61704000   254.30576     -415.48078     -330.31047     -415.4575       0              2359.7062      31.138         21.471905      33.5012        22398.64       1653.9853      2722.3336      2702.7997      830.89391      633.97999      1512.6658    
  61706000   252.54176     -416.97392     -332.3944      -416.98892      0              3215.5664      31.138         21.471905      33.245872      22227.93       569.51108      3979.4829      5097.7052      1068.3459     -745.842        591.39049    
  61708000   253.05338     -417.78008     -333.0292      -417.75649      0              3580.9869      31.138         21.471905      33.581072      22452.042      2547.9729      3168.1732      5026.8146     -890.55949      287.6351      -10.789401    
  61710000   254.29828     -417.98465     -332.81685     -417.96003      0              3352.6006      31.138         21.471905      33.704812      22534.774      3377.0564      4456.9599      2223.7856      25.533354     -1398.2762     -1916.9032    
  61712000   248.14983     -417.17748     -334.06886     -417.15565      0              3846.078       31.138         21.471905      33.528287      22416.75       3517.9282      3951.7054      4068.6003     -94.48793       61.880582     -29.481352    
  61714000   244.23565     -418.12168     -336.32398     -418.09996      0              2674.0858      31.138         21.471905      33.558606      22437.022      3485.9591      2795.9722      1740.3262      179.51662      190.73312      759.15387    
  61716000   248.80451     -415.84812     -332.52024     -415.83411      0              1248.9046      31.138         21.471905      33.535753      22421.742      555.24147      79.492121      3111.9801      509.50586     -25.627921      102.72667    
  61718000   245.28453     -413.83103     -331.68204     -413.80643      0              3388.2187      31.138         21.471905      33.420055      22344.387      3275.2483      3930.3405      2959.0672     -57.147959      2528.5273     -947.3056     
  61720000   248.53902     -418.19205     -334.95309     -418.16729      0              1961.5236      31.138         21.471905      33.546099      22428.66       3297.3377      1458.4452      1128.7878     -42.33149       489.9161       198.90109    
  61722000   253.40075     -415.81337     -330.94615     -415.78755      0              3593.1087      31.138         21.471905      33.503408      22400.117      2672.5617      4860.1988      3246.5655     -242.99187      445.90326     -276.74224    
  61724000   250.60988     -418.33429     -334.40177     -418.31163      0              3345.7161      31.138         21.471905      33.602069      22466.08       2614.3205      3421.9204      4000.9074      60.051842      887.53848     -212.32093    
  61726000   256.2119      -417.23163     -331.42292     -417.21129      0              2590.5083      31.138         21.471905      33.590736      22458.503      4783.8411      1661.3878      1326.2958      721.32561      934.55216      560.32688    
  61728000   250.76486     -418.43554     -334.45112     -418.4133       0              5316.5498      31.138         21.471905      33.378161      22316.378      4272.0603      6636.2386      5041.3504     -439.25461     -740.75224     -743.3721     
  61730000   243.78166     -417.98042     -336.33477     -417.95788      0              3829.0147      31.138         21.471905      33.443177      22359.847      1523.7837      4025.6963      5937.5642      1672.7769     -712.90352      386.97198    
  61732000   256.53791     -416.89304     -330.97515     -416.86931      0              2948.8716      31.138         21.471905      33.423494      22346.686      2180.8761      3790.9227      2874.8161     -332.12953     -349.39371     -1591.4681    
  61734000   246.65242     -417.27216     -334.66505     -417.24968      0              1270.39        31.138         21.471905      33.464649      22374.203      1246.3872      2848.1429     -283.36011      37.591415      96.908478      43.390432    
  61736000   255.66846     -415.27835     -329.65164     -415.25511      0              3994.3874      31.138         21.471905      33.364072      22306.958      3962.1617      4186.6365      3834.3642      681.48645      110.19816     -892.22637    
  61738000   246.23952     -414.98947     -332.52064     -414.96695      0              3694.1013      31.138         21.471905      33.299874      22264.036      4066.1176      3922.9731      3093.2132     -14.227295     -1202.2713      103.26688    
  61740000   245.32039     -415.79452     -333.63353     -415.77129      0              3907.4847      31.138         21.471905      33.427148      22349.13       4998.7597      3071.6323      3652.0622      618.83008     -799.46949      589.81638    
  61742000   244.58812     -414.29701     -332.38126     -414.27449      0              3498.0272      31.138         21.471905      33.239702      22223.805      2662.3928      3969.2751      3862.4137      197.52369      1201.728       1148.7263    
  61744000   244.91128     -416.40951     -334.38553     -416.38484      0              2291.0583      31.138         21.471905      33.36056       22304.609      2329.58        1367.3623      3176.2326      723.74213      855.83026      921.07326    
  61746000   253.02409     -416.39111     -331.65004     -416.37282      0              4195.5615      31.138         21.471905      33.423463      22346.666      5659.0692      1640.9712      5286.6443      1532.817      -616.33493      914.94731    
  61748000   251.35611     -416.88397     -332.70153     -416.8612       0              4875.7359      31.138         21.471905      33.415304      22341.211      4924.2713      4243.6814      5459.2549     -741.44338      316.89506      1396.0475    
  61750000   256.53229     -416.68122     -330.76521     -416.65839      0              115.56069      31.138         21.471905      33.312975      22272.795      310.60356     -1234.3525      1270.431       609.26053     -42.971103      1492.8301    
  61752000   248.63242     -415.77621     -332.50597     -415.75141      0              5574.9312      31.138         21.471905      33.330911      22284.786      5344.1374      7477.1731      3903.483       63.786578     -1106.8215      655.82855    
  61754000   250.14042     -415.69451     -331.91922     -415.66972      0              2362.6334      31.138         21.471905      33.533692      22420.364      2383.2061      1138.9334      3565.7608     -260.69715     -896.85334      116.12028    
  61756000   252.28996     -418.26514     -333.76994     -418.24042      0              3248.2323      31.138         21.471905      33.42535       22347.928      3567.7625      4586.4718      1590.4625      767.3407      -141.7652       1030.0418    
  61758000   255.2303      -413.27219     -327.79223     -413.24626      0              3403.3561      31.138         21.471905      33.012286      22071.756      2716.5612      2844.6942      4648.813      -384.21963     -715.10625      195.81252    
  61760000   248.25058     -416.86237     -333.72001     -416.83752      0              4389.9169      31.138         21.471905      33.259072      22236.755      3655.8736      5162.793       4351.0841      553.38677     -523.99993     -216.83066    
  61762000   251.08143     -414.91996     -330.82951     -414.89537      0              3704.4445      31.138         21.471905      33.280395      22251.012      3691.0906      2178.4448      5243.798      -1939.5534     -508.16123     -167.38375    
  61764000   260.14413     -415.31341     -328.18775     -415.28879      0              3921.4082      31.138         21.471905      33.209231      22203.432      5221.5574      2798.9516      3743.7157      1042.7993      1131.6154      2793.4914    
  61766000   242.35744     -413.96989     -332.80123     -413.94218      0              2483.097       31.138         21.471905      33.205409      22200.877      2697.6013      1419.4766      3332.213      -620.06617      131.79139     -317.82179    
  61768000   240.77081     -416.37196     -335.73468     -416.34885      0              4237.8635      31.138         21.471905      33.186106      22187.971      4300.0191      3859.4934      4554.0781      2772.3274     -1385.4595      661.76333    
  61770000   254.71354     -416.57236     -331.26548     -416.54781      0              5894.9111      31.138         21.471905      33.216407      22208.23       7808.4398      4353.2382      5523.0552     -700.48056     -354.10061     -401.69128    
  61772000   251.8603      -415.34336     -330.99206     -415.31918      0              3783.7911      31.138         21.471905      33.245305      22227.551      4898.4398      3382.7268      3070.2067      966.20294     -756.50046      601.07538    
  61774000   248.04415     -417.55097     -334.47775     -417.52634      0              3141.9019      31.138         21.471905      33.111112      22137.831      3046.5441      2831.7132      3547.4484      2596.0209      2299.509       680.51973    
  61776000   245.44269     -414.52545     -332.3235      -414.49933      0              3453.7835      31.138         21.471905      33.217734      22209.117      2647.6824      4745.9427      2967.7255      121.80237      75.094597      463.90422    
  61778000   250.76737     -416.2882      -332.30294     -416.26022      0              2330.4783      31.138         21.471905      33.531552      22418.933      4423.6279      167.4454       2400.3615      1117.2448     -1065.0217      671.42803    
  61780000   249.98772     -413.73222     -330.00807     -413.70667      0              3150.2378      31.138         21.471905      33.357713      22302.706      5220.7642      1122.6563      3107.293       77.29916       1034.3039      762.47584    
  61782000   249.88469     -412.46393     -328.7743      -412.43667      0              2226.4888      31.138         21.471905      33.470548      22378.147      3889.7701      2271.0072      518.689        1605.9599     -737.78449      1530.1777    
  61784000   252.78303     -414.82978     -330.16945     -414.80367      0              4364.8888      31.138         21.471905      33.422891      22346.283      5186.254       3306.3379      4602.0744      1189.6631      547.84004      913.6554     
  61786000   247.86003     -414.18922     -331.17766     -414.16479      0              730.68898      31.138         21.471905      33.425928      22348.314      348.57419      2396.6201     -553.12733      1452.4711     -1010.8142      1466.4808    
  61788000   258.58292     -414.3139      -327.7111      -414.28818      0              1906.0236      31.138         21.471905      33.289805      22257.304      1716.9503      1982.4999      2018.6204     -68.806051      901.24677     -282.16629    
  61790000   253.49506     -414.10312     -329.20432     -414.07497      0              3076.9894      31.138         21.471905      33.399961      22330.952      2684.4898      3884.446       2662.0322      489.84071      1038.4994      37.28288     
  61792000   250.01369     -412.28579     -328.55294     -412.25767      0              2687.8821      31.138         21.471905      33.351874      22298.802      2210.4232      2981.9433      2871.2798     -1292.4283     -1035.6053      127.14653    
  61794000   240.9962      -415.77689     -335.06413     -415.75092      0              4403.2651      31.138         21.471905      33.163114      22172.599      4145.814       4689.8976      4374.0835     -461.78585     -1108.7651      1559.1114    
  61796000   245.87984     -418.93566     -336.5873      -418.91308      0              2729.1999      31.138         21.471905      33.158497      22169.512      1238.6255      5019.0112      1929.9629      1154.2286      2357.6476      825.04211    
  61798000   249.00469     -414.25022     -330.85531     -414.2279       0              4747.1049      31.138         21.471905      33.403646      22333.417      5810.8626      5515.2888      2915.1632     -254.52595      13.784         767.54399    
  61800000   251.85917     -414.78602     -330.4351      -414.76393      0              3918.0881      31.138         21.471905      33.274249      22246.903      4899.0602      3395.737       3459.4671      1337.852       455.77104     -909.72379    
  61802000   253.59492     -416.30192     -331.36967     -416.27775      0              3396.9447      31.138         21.471905      33.088415      22122.655      4299.6096      2215.3607      3675.8639     -484.98778     -646.89996      1257.3924    
  61804000   251.50571     -414.56423     -330.33169     -414.54082      0              5107.0818      31.138         21.471905      33.086168      22121.153      5709.8506      5202.1012      4409.2936     -223.10478     -897.8149      -615.80943    
  61806000   243.22741     -415.08262     -333.62259     -415.05796      0              2043.6551      31.138         21.471905      33.162313      22172.063      539.68168      2383.7618      3207.5218      710.03845      816.72676      315.60307    
  61808000   250.96642     -414.8586      -330.80667     -414.83615      0              5381.6886      31.138         21.471905      33.196036      22194.61       5708.1096      4764.5744      5672.3818     -613.61429      880.38152      475.46408    
  61810000   252.29818     -416.73441     -332.23646     -416.71205      0              3472.2233      31.138         21.471905      33.177522      22182.232      2410.9497      4925.3874      3080.3328      195.65334      659.4588      -147.67632    
  61812000   250.02176     -417.58921     -333.85366     -417.5665       0              4144.1068      31.138         21.471905      33.216464      22208.268      2583.946       4716.0496      5132.3247      1152.718       1342.4978      289.30339    
  61814000   249.92302     -415.97161     -332.26913     -415.94721      0              4774.6906      31.138         21.471905      33.282853      22252.655      3946.1808      5031.6257      5346.2651      801.11236      237.33613     -622.58158    
  61816000   250.09997     -417.56467     -333.80293     -417.54219      0              2570.1136      31.138         21.471905      33.394036      22326.991      2139.6339      3495.1807      2075.5264      297.79587     -43.317405      1733.9706    
  61818000   254.05697     -416.53944     -331.45245     -416.51504      0              4768.6347      31.138         21.471905      33.405945      22334.953      3641.6064      5232.0088      5432.2888      410.86622     -741.12404      987.55997    
  61820000   254.52656     -417.20345     -331.95919     -417.17882      0              2157.1136      31.138         21.471905      33.292467      22259.083      4081.9693      839.1829       1550.1885     -859.03845      275.83124     -551.03157    
  61822000   253.8884      -414.07573     -329.04519     -414.05114      0              4476.3692      31.138         21.471905      33.296375      22261.696      3352.5094      6096.788       3979.81        687.41319      397.01255      765.90251    
  61824000   254.98274     -414.78006     -329.38302     -414.75336      0              3445.5191      31.138         21.471905      33.218806      22209.834      3874.7669      3008.7225      3453.068      -716.6156       342.41619      1181.1624    
  61826000   249.72177     -415.52965     -331.89457     -415.50567      0              3149.0253      31.138         21.471905      33.068333      22109.229      251.02672      5966.5448      3229.5043     -75.073058      933.61965      687.16859    
  61828000   249.93296     -414.56338     -330.85757     -414.53899      0              4880.2441      31.138         21.471905      33.293481      22259.761      4303.5776      5940.2771      4396.8777     -1601.6335      968.86655      398.30314    
  61830000   251.46946     -416.22988     -332.00948     -416.2024       0              4054.6244      31.138         21.471905      33.129612      22150.199      3010.7678      4136.9623      5016.1431      478.16918     -649.46626     -1342.3658    
  61832000   246.97812     -416.1105      -333.3943      -416.11021      0              5606.5111      31.138         21.471905      33.204278      22200.12       5888.2356      4229.4974      6701.8001     -598.31933      1147.6038     -1256.5611    
  61834000   252.92178     -417.67178     -332.96498     -417.65039      0              4112.0286      31.138         21.471905      33.26237       22238.961      3242.4993      5529.7802      3563.8064      142.42716     -610.51473     -627.96817    
  61836000   246.18979     -415.12782     -332.67565     -415.10159      0              4832.3651      31.138         21.471905      33.379544      22317.302      5908.6377      4371.9472      4216.5104     -712.6009       529.03136      317.23614    
  61838000   257.69216     -417.15961     -330.85514     -417.13925      0              2379.5097      31.138         21.471905      33.262656      22239.152      2089.5272      3178.179       1870.8229     -41.565674     -885.9006       294.55114    
  61840000   256.41671     -415.43943     -329.56213     -415.41505      0              3149.3032      31.138         21.471905      33.396984      22328.962      2980.2731      3023.7739      3443.8626      674.23048     -126.43897     -804.19053    
  61842000   248.14438     -413.43293     -330.32614     -413.40846      0              3570.6099      31.138         21.471905      33.260761      22237.885      3898.7776      5606.5751      1206.4768     -1297.5516      1633.2989     -490.4108     
  61844000   248.78065     -412.88323     -329.56335     -412.86033      0              3449.0238      31.138         21.471905      33.391226      22325.113      2933.648       4021.0605      3392.3629      783.17233     -1076.5564     -143.29911    
  61846000   246.4916      -416.67947     -334.12622     -416.6572       0              3044.3572      31.138         21.471905      33.210134      22204.036      5040.0229      3790.3721      302.67669     -722.99207     -1181.2189     -1255.8269    
  61848000   251.19        -413.08432     -328.95751     -413.0606       0              3825.4729      31.138         21.471905      33.206046      22201.303      3715.1541      2026.9894      5734.275      -780.74783     -580.96621      1023.4583    
  61850000   249.84832     -416.23278     -332.55532     -416.21053      0              3132.4369      31.138         21.471905      33.360798      22304.769      3237.4354      3105.5088      3054.3665     -30.818077      115.02476     -294.35019    
  61852000   243.8482      -416.3762      -334.70826     -416.35385      0              4192.85        31.138         21.471905      33.353624      22299.972      4263.4992      5686.0498      2629.001       282.09         518.43947      317.80035    
  61854000   247.42859     -417.45171     -334.58465     -417.42965      0              2884.7858      31.138         21.471905      33.125083      22147.171      3232.348       3331.0359      2090.9736     -554.6058       915.13204      949.57962    
  61856000   243.71502     -416.90319     -335.27985     -416.88089      0              3145.8342      31.138         21.471905      33.539421      22424.194      4721.3378      2487.2119      2228.953      -1103.4347      539.69116     -434.30131    
  61858000   249.60404     -416.45309     -332.85744     -416.4286       0              1745.205       31.138         21.471905      33.299232      22263.606      2497.2871      664.85025      2073.4776      972.97247      1332.7869     -212.42138    
  61860000   252.79236     -415.71837     -331.05491     -415.69889      0              2793.0035      31.138         21.471905      33.355223      22301.041      1885.8119      4040.1324      2453.0662      112.7756      -158.63741     -157.44727    
  61862000   246.33995     -413.37343     -330.87096     -413.35092      0              3100.8705      31.138         21.471905      33.242597      22225.741      2448.8075      2857.0536      3996.7505     -60.09242       1705.5805      1442.3767    
  61864000   250.29458     -416.05442     -332.2275      -416.03226      0              2948.6278      31.138         21.471905      33.399487      22330.636      3679.0766      2273.7461      2893.0606     -592.0737       953.04805     -219.33711    
  61866000   243.51339     -415.49604     -333.94023     -415.47375      0              2361.6517      31.138         21.471905      33.393685      22326.757      1134.3879      2631.1852      3319.3818      470.99333      917.9439       332.44084    
  61868000   251.39471     -415.68168     -331.48632     -415.6574       0              3772.7231      31.138         21.471905      33.394406      22327.239      2781.8066      3979.9258      4556.4368      954.29321     -205.88084     -1389.3653    
  61870000   247.09115     -415.76205     -333.008       -415.74108      0              2703.2751      31.138         21.471905      33.301391      22265.05       2077.825       3419.1254      2612.8748     -36.007248     -611.59165      1061.5098    
  61872000   248.66053     -413.14278     -329.86313     -413.12064      0              4104.1586      31.138         21.471905      33.483647      22386.904      3283.7592      5606.3989      3422.3178     -548.65792      584.38269     -336.66489    
  61874000   248.93629     -412.3209      -328.94889     -412.30705      0              3311.373       31.138         21.471905      33.523073      22413.264      3663.7459      1093.9426      5176.4304      1764.3982      506.10925      431.01507    
  61876000   249.50637     -414.85521     -331.29228     -414.833        0              2728.2842      31.138         21.471905      33.627066      22482.793      4438.1312      2611.9614      1134.7599     -1479.8033      263.56684     -2166.8477    
  61878000   251.02798     -413.5007      -329.42816     -413.47625      0              2702.005       31.138         21.471905      33.529204      22417.363      2128.2423      2465.2235      3512.5493     -330.4495       839.54006     -707.25629    
  61880000   250.80604     -415.48962     -331.49141     -415.48112      0              3908.5395      31.138         21.471905      33.685886      22522.12       4100.3112      3504.4541      4120.8532     -63.685439      1352.5136     -210.69426    
  61882000   248.32475     -414.50419     -331.33699     -414.48072      0              2277.1916      31.138         21.471905      33.765237      22575.174      2800.2185      2565.5348      1465.8216      514.57882     -1373.9559     -79.131042    
  61884000   248.85572     -412.61516     -329.27013     -412.59282      0              3381.7964      31.138         21.471905      33.518241      22410.034      2748.2502      3376.1305      4021.0085      457.4162      -624.19034     -409.92203    
  61886000   254.21536     -416.70157     -331.56153     -416.68504      0              2711.5681      31.138         21.471905      33.560956      22438.593      3376.3727      2901.2841      1857.0476     -460.69872      735.96558     -604.89744    
  61888000   243.04526     -417.99839     -336.59937     -417.97395      0              2094.7452      31.138         21.471905      33.503402      22400.113      2953.7196      2842.6745      487.84133     -522.36685     -54.429422      371.80674    
  61890000   254.43599     -416.81566     -331.60173     -416.79068      0              2775.9515      31.138         21.471905      33.436436      22355.34       1633.429       4008.2116      2686.2138     -583.70752      1017.1022     -171.67539    
  61892000   250.37098     -417.45786     -333.60536     -417.43363      0              2500.0391      31.138         21.471905      33.211638      22205.041      1405.5014      3927.5218      2167.0941     -529.09745      916.55217     -917.57722    
  61894000   243.97309     -412.88428     -331.17451     -412.86052      0              3318.8209      31.138         21.471905      33.18332       22186.108      1610.1473      5418.5064      2927.8089      412.43276     -2453.3282     -783.36506    
  61896000   245.65131     -417.10314     -334.83131     -417.08053      0              2544.4549      31.138         21.471905      33.272605      22245.803      2182.7323      3786.0037      1664.6289      1501.3011      71.040452     -337.26121    
  61898000   243.49441     -418.56394     -337.01449     -418.54145      0              3806.8118      31.138         21.471905      33.30732       22269.013      3593.9721      4725.8339      3100.6293     -1633.2624      1033.9627     -1955.7803    
  61900000   250.39712     -417.5673      -333.70604     -417.54309      0              2329.55        31.138         21.471905      33.342197      22292.332      3262.849       1607.1895      2118.6115     -1014.5078      3.8672213      1247.0277    
  61902000   249.99546     -417.5408      -333.81406     -417.51891      0              3994.8241      31.138         21.471905      33.154609      22166.912      4975.6482      2194.8093      4814.0148      750.27361     -764.44781      331.21769    
  61904000   249.38622     -417.41775     -333.89506     -417.39195      0              5106.1283      31.138         21.471905      33.195061      22193.958      5089.1132      4202.5561      6026.7155      863.35918      2.1724947      85.016036    
  61906000   252.0889      -416.78534     -332.35748     -416.75732      0              1501.021       31.138         21.471905      33.086419      22121.321      2289.9664     -21.866603      2234.9633      1117.0363      218.6761       1072.064     
  61908000   242.40332     -416.61451     -335.43048     -416.59027      0              3587.5735      31.138         21.471905      32.943952      22026.069      3596.1086      3490.6693      3675.9425     -2011.7361      722.12195      495.84572    
  61910000   248.6833      -415.6681      -332.38082     -415.64178      0              2727.5548      31.138         21.471905      33.186355      22188.138      5250.716       1975.4863      956.46216      34.589427     -24.67376       2383.121     
  61912000   244.94973     -417.52013     -335.48328     -417.49596      0              2288.9305      31.138         21.471905      33.146237      22161.315      3080.6642      2938.0283      848.09902      569.14712     -1063.9193     -1672.6461    
  61914000   249.94232     -414.68714     -330.97819     -414.66359      0              3124.9348      31.138         21.471905      33.271643      22245.161      3193.0318      2604.1544      3577.6181     -966.35356     -1421.2406      9.7088372    
  61916000   256.87786     -416.16729     -330.13555     -416.13942      0              4525.8762      31.138         21.471905      33.197416      22195.533      3836.5802      4110.3465      5630.7019      487.7725      -349.55926      376.48505    
  61918000   245.1461      -413.2293      -331.12667     -413.21144      0              2189.4619      31.138         21.471905      33.157497      22168.843      1570.1883      2863.2718      2134.9257      337.73618     -73.460046     -762.48816    
  61920000   255.7077      -416.97309     -331.33325     -416.9488       0              1364.1183      31.138         21.471905      33.187809      22189.11       401.98058      2349.6392      1340.7351      1116.6005      665.03296     -804.89837    
  61922000   246.27937     -415.98863     -333.50646     -415.96664      0              4173.2505      31.138         21.471905      33.212525      22205.635      3018.7547      5201.8836      4299.1133     -685.16445     -1117.8167      440.29691    
  61924000   249.01177     -415.56399     -332.1667      -415.53985      0              4618.8248      31.138         21.471905      33.393374      22326.548      4919.2717      5444.9439      3492.2589      1248.3191      114.85325     -1005.552     
  61926000   248.40563     -417.53191     -334.33762     -417.50993      0              1706.3417      31.138         21.471905      33.448371      22363.319      2367.5602      2270.1033      481.36177     -1679.8406      1556.4968     -1538.3177    
  61928000   248.02713     -416.52195     -333.45443     -416.49764      0              1911.5519      31.138         21.471905      33.381347      22318.507      1525.0339      2460.3374      1749.2844      658.30404     -455.88657      171.22331    
  61930000   254.70486     -415.76909     -330.46511     -415.74498      0              2380.2576      31.138         21.471905      33.302481      22265.778      2452.3076      3285.8012      1402.664       65.439218     -100.72075      129.53306    
  61932000   247.52132     -416.72847     -333.83035     -416.70519      0              2934.8278      31.138         21.471905      33.409899      22337.597      2478.2337      3824.0339      2502.216       318.94139     -1169.0012     -694.77787    
  61934000   255.96536     -417.95189     -332.22576     -417.92948      0              2475.4076      31.138         21.471905      33.515898      22408.467      3682.5546      1198.5316      2545.1365     -1707.5544      2069.3808     -714.3568     
  61936000   251.65134     -416.12078     -331.83946     -416.09666      0              2273.6372      31.138         21.471905      33.429253      22350.537      3519.5633      4018.9652     -717.61676     -2035.3135     -41.785179     -1612.1399    
  61938000   253.98378     -417.70609     -332.64361     -417.67987      0              2835.1299      31.138         21.471905      33.669801      22511.365      1981.5033      4223.0183      2300.868      -628.69225      1389.5614     -1552.3259    
  61940000   250.37329     -414.02424     -330.17097     -413.99986      0              1815.2505      31.138         21.471905      33.546326      22428.811      3913.7739      176.90226      1355.0753      783.59162      356.32289      1180.4243    
  61942000   252.07463     -417.05105     -332.62797     -417.02301      0              1454.0581      31.138         21.471905      33.529785      22417.752      1614.9849      227.90098      2519.2884      52.69909      -887.93307     -116.63958    
  61944000   241.91768     -415.17705     -334.15566     -415.15511      0              3636.1441      31.138         21.471905      33.593746      22460.516      4844.3583      1379.2866      4684.7873      901.13867      160.9587       0.85640077   
  61946000   249.72723     -417.82648     -334.18958     -417.80244      0              1867.7794      31.138         21.471905      33.681747      22519.353      480.57496      3435.6462      1687.1172     -333.4901      -1660.1754     -2618.9399    
  61948000   246.25313     -416.60287     -334.12949     -416.58432      0              3629.4146      31.138         21.471905      33.523532      22413.571      2107.5665      4438.0131      4342.6643     -134.10821      526.37637      286.73649    
  61950000   248.01832     -415.34547     -332.2809      -415.32122      0              2744.0676      31.138         21.471905      33.473374      22380.036      3650.8202      2270.7096      2310.673      -1016.0707      335.09712     -876.5576     
  61952000   249.43508     -416.18589     -332.64684     -416.16285      0              3675.4482      31.138         21.471905      33.512155      22405.965      3028.083       3575.8431      4422.4184      681.19526     -608.0937       593.20224    
  61954000   252.36679     -415.35749     -330.83656     -415.33159      0              2194.7059      31.138         21.471905      33.699614      22531.298      1423.0604      2860.0833      2300.9739      284.36953     -702.69215     -188.22822    
  61956000   250.00824     -416.38938     -332.65836     -416.36513      0              1247.8325      31.138         21.471905      33.627019      22482.762      1008.8684      1460.7105      1273.9185      831.41498     -502.59834     -241.03392    
  61958000   250.35015     -415.97374     -332.12822     -415.9512       0              2916.009       31.138         21.471905      33.446255      22361.905      2656.5506      2226.8339      3864.6426     -1854.5531     -484.55871      414.40807    
  61960000   253.02307     -417.30822     -332.5675      -417.2874       0              2123.5169      31.138         21.471905      33.697286      22529.742      2217.9302      2670.7411      1481.8794     -601.50234     -443.40023     -356.98483    
  61962000   253.46696     -414.5944      -329.70501     -414.57252      0              3573.2863      31.138         21.471905      33.572546      22446.342      977.70214      4878.9127      4863.2441      38.45436       661.18521      7.723886     
  61964000   251.00493     -415.37264     -331.30782     -415.3687       0              3997.7569      31.138         21.471905      33.442279      22359.246      4849.8388      2713.7848      4429.6471     -1022.6624      1100.4853      1487.2431    
  61966000   248.69212     -416.58081     -333.29057     -416.55869      0              4443.9669      31.138         21.471905      33.296879      22262.033      5837.9451      5130.0255      2363.9301     -134.30363      140.83876     -1384.4701    
  61968000   251.99022     -415.31258     -330.91777     -415.29078      0              3547.5306      31.138         21.471905      33.22557       22214.356      3446.2598      5140.6411      2055.6909      328.5411       1583.6493     -100.24642    
  61970000   254.0835      -415.54701     -330.45114     -415.5255       0              2177.5177      31.138         21.471905      33.423228      22346.509      3885.531       2262.5874      384.43467     -361.12948     -156.18382     -1844.8       
  61972000   247.69304     -412.45213     -329.4965      -412.43031      0              2976.5359      31.138         21.471905      33.420643      22344.78       2671.4038      3903.1779      2355.026      -706.49826      1851.7059     -576.66244    
  61974000   245.82305     -414.48682     -332.15748     -414.46341      0              4790.2078      31.138         21.471905      33.215206      22207.427      5240.2898      6086.3765      3043.9571      589.97908     -684.86181     -795.65128    
  61976000   255.32279     -416.54334     -331.0324      -416.52155      0              1607.1889      31.138         21.471905      33.386853      22322.189      1290.4292      3198.2046      332.9328       83.762277      1517.831      -468.29191    
  61978000   250.89413     -416.29283     -332.26512     -416.27107      0              3493.4482      31.138         21.471905      33.319683      22277.279      3875.0967      4421.5324      2183.7154      255.80442     -182.46071     -8.1956172    
  61980000   251.71766     -414.44098     -330.13745     -414.41923      0              5157.6456      31.138         21.471905      33.268907      22243.331      5125.1461      5293.1235      5054.6672     -1863.7867      248.50621      610.30562    
  61982000   246.55053     -414.95668     -332.3837      -414.93499      0              3108.623       31.138         21.471905      33.250981      22231.346      1968.864       4006.1327      3350.8724      2259.7923      5.7045719      318.51548    
  61984000   246.059       -411.09821     -328.68984     -411.08083      0              4941.1818      31.138         21.471905      33.228134      22216.07       4069.4397      4469.9713      6284.1346      353.48422      1565.6225     -404.22482    
  61986000   247.94463     -414.60919     -331.5693      -414.58767      0              3695.9916      31.138         21.471905      33.39201       22325.636      4561.1854      3682.9256      2843.8637      1053.5965     -953.48459     -387.24639    
  61988000   251.97867     -416.65895     -332.26801     -416.63728      0              4855.8808      31.138         21.471905      33.3966        22328.706      3669.6547      3833.7458      7064.2419      15.837745     -76.098246      1123.6783    
  61990000   250.07792     -420.22467     -336.47031     -420.20507      0              3013.0507      31.138         21.471905      33.252463      22232.337      1817.2387      4035.6682      3186.245       1554.6913      1037.8283      329.1504     
  61992000   249.12742     -415.81812     -332.3821      -415.79622      0              3047.1335      31.138         21.471905      33.340795      22291.395      2825.0189      3507.2752      2809.1065      1573.887       829.94672     -20.414375    
  61994000   243.28835     -418.09224     -336.6118      -418.07522      0              2261.2249      31.138         21.471905      33.228282      22216.169      2408.9878      1196.3417      3178.3452      561.51503      653.38272      670.15715    
  61996000   256.81691     -418.77387     -332.76254     -418.77779      0              6078.1914      31.138         21.471905      33.333127      22286.268      4583.579       6368.8449      7282.1502      665.98588     -800.00474      1128.095     
  61998000   258.26773     -417.78816     -331.29093     -417.76544      0              2655.5652      31.138         21.471905      33.397592      22329.369      3241.1484      2647.3346      2078.2126     -739.95688     -243.75334     -786.8777     
  62000000   249.67365     -417.16412     -333.54516     -417.14584      0              1965.0331      31.138         21.471905      33.346523      22295.224      326.21234      1861.6889      3707.198      -374.13706      1093.7065     -195.24085    
  62002000   250.05295     -415.91667     -332.17068     -415.89508      0              3176.8329      31.138         21.471905      33.235805      22221.199      3189.486       1875.1862      4465.8265      1195.3686      118.46937      933.70759    
  62004000   248.9444      -416.0791      -332.70438     -416.09833      0              2587.2165      31.138         21.471905      33.241596      22225.071      2012.1372      3815.2384      1934.2739      311.28936      959.8099      -551.73079    
  62006000   249.23108     -418.35168     -334.88095     -418.33573      0              4166.3672      31.138         21.471905      33.198599      22196.324      1209.0175      4692.4116      6597.6724      537.94187      871.06301      1348.4097    
  62008000   251.14274     -415.9013      -331.79032     -415.8836       0              4107.975       31.138         21.471905      33.431676      22352.157      4605.8707      4751.1587      2966.8956     -384.50424     -684.28092     -703.01227    
  62010000   249.12021     -415.91814     -332.48454     -415.89295      0              3242.525       31.138         21.471905      33.402495      22332.647      2304.2471      4202.3228      3221.0051      242.31181     -91.215605     -139.35386    
  62012000   249.56047     -419.76731     -336.18626     -419.74589      0              4089.1284      31.138         21.471905      33.343375      22293.12       4437.4413      4100.8151      3729.1288      542.65154     -841.81736     -1204.3532    
  62014000   245.78596     -415.48325     -333.16633     -415.46038      0              2093.0612      31.138         21.471905      33.488956      22390.454      2063.5258      3041.3377      1174.32       -35.791987     -664.73949     -24.467117    
  62016000   255.27632     -414.72394     -329.22858     -414.70239      0              3426.2626      31.138         21.471905      33.419384      22343.939      4979.2055      3610.9673      1688.615       1049.663      -640.05553      262.16771    
  62018000   250.50001     -416.72988     -332.83416     -416.70836      0              2808.5621      31.138         21.471905      33.299056      22263.488      3870.0901      1566.0328      2989.5633     -511.69161      255.91375      1721.8431    
  62020000   253.28701     -416.18491     -331.35579     -416.1634       0              2203.554       31.138         21.471905      33.261779      22238.566      2125.9948      2761.3458      1723.3212      390.45971      1619.0397     -363.64255    
  62022000   250.16501     -412.72958     -328.94606     -412.70205      0              2046.289       31.138         21.471905      33.307495      22269.131      3520.0884      802.9529       1815.8258      1255.2492     -47.587442     -425.74589    
  62024000   250.78107     -416.76161     -332.77176     -416.74172      0              5416.3975      31.138         21.471905      33.297287      22262.306      5134.9529      4759.0647      6355.1748     -41.413604     -500.93296      390.1753     
  62026000   245.59812     -415.87069     -333.61668     -415.84936      0              3163.1678      31.138         21.471905      33.295352      22261.012      2938.4912      3879.9199      2671.0924      124.54312      817.71965     -49.128346    
  62028000   254.89867     -415.83417     -330.46529     -415.81275      0              1218.3354      31.138         21.471905      33.482755      22386.308     -622.00404      2633.8552      1643.155       691.66433     -62.501811     -529.88024    
  62030000   249.26124     -417.27628     -333.79545     -417.26578      0              3152.9631      31.138         21.471905      33.381971      22318.925      2351.5981      2692.3115      4414.9797     -415.39814     -231.25874      40.319803    
  62032000   249.46333     -415.22626     -331.67774     -415.20223      0              1823.6137      31.138         21.471905      33.348192      22296.34       3033.8505      1722.6335      714.35697     -516.20896      627.55978     -1085.2096    
  62034000   252.19111     -420.01314     -335.55105     -419.99152      0              3585.9615      31.138         21.471905      33.329879      22284.096      2708.9964      4168.0174      3880.8705      18.9919       -1553.3124      512.91273    
  62036000   247.9365      -415.67427     -332.6371      -415.65098      0              1836.0139      31.138         21.471905      33.35159       22298.612      2121.1222      1830.6743      1556.2453     -2358.3367      1138.5727     -324.9024     
  62038000   250.87279     -416.61792     -332.59736     -416.60448      0              3936.7569      31.138         21.471905      33.377686      22316.06       4193.6778      3690.4897      3926.1031     -546.486       -73.177413      1134.7524    
  62040000   255.95714     -414.29697     -328.57359     -414.27036      0              1759.194       31.138         21.471905      33.477426      22382.745      2933.0802      2018.1717      326.33022      596.83937     -1872.8573     -1072.0661    
  62042000   257.34137     -417.54374     -331.35676     -417.52417      0              1563.8453      31.138         21.471905      33.472272      22379.299      1894.5243      2549.4824      247.52913      529.08594      1075.6349     -217.92368    
  62044000   243.98663     -417.49301     -335.7787      -417.47628      0              3545.7596      31.138         21.471905      33.521425      22412.163      4582.3075      2351.427       3703.5444      7.8940777     -332.29843      861.93717    
  62046000   248.94319     -414.35494     -330.98062     -414.33374      0              2271.9098      31.138         21.471905      33.533109      22419.975      3411.7023      3477.022      -72.994964     -361.28835     -722.46564      243.74426    
  62048000   247.48089     -416.23269     -333.34812     -416.22664      0              5549.8354      31.138         21.471905      33.336313      22288.398      7013.6984      4332.703       5303.1046      334.20239      727.32591      250.68327    
  62050000   251.91969     -419.47182     -335.10063     -419.45936      0              2959.764       31.138         21.471905      33.193346      22192.812      3728.8234      2161.5167      2988.9519      927.54581      133.08791      196.69125    
  62052000   251.49235     -417.79547     -333.56741     -417.78449      0              2891.8247      31.138         21.471905      33.289173      22256.88       1583.9639      4065.6116      3025.8986      702.62895      109.3517      -875.04692    
  62054000   252.49101     -417.30181     -332.73928     -417.28084      0              602.16559      31.138         21.471905      33.338239      22289.686      2026.176      -51.823162     -167.85603     -894.71107     -480.60116      520.49084    
  62056000   248.32579     -416.16953     -333.00198     -416.14825      0              3099.7674      31.138         21.471905      33.293055      22259.476      1978.3546      4296.1678      3024.7798      816.03497     -550.61558      1088.2513    
  62058000   253.00672     -418.91455     -334.1793      -418.89701      0              1214.5973      31.138         21.471905      33.365916      22308.191      624.94942      1284.809       1734.0334      237.40485      8.3727685      3003.193     
  62060000   245.05115     -417.54822     -335.4774      -417.52458      0              3712.446       31.138         21.471905      33.328041      22282.868      3403.7629      4588.5852      3144.99       -1163.1526     -1258.0388      811.31379    
  62062000   251.21286     -415.83349     -331.69903     -415.81129      0              5081.1506      31.138         21.471905      33.213708      22206.425      6295.1912      3514.1639      5434.0967     -694.78155      83.641345      867.80629    
  62064000   244.99485     -417.32259     -335.27062     -417.30201      0              6105.9605      31.138         21.471905      33.257001      22235.371      7228.6741      4686.8778      6402.3297      144.31312     -1050.1787      223.66297    
  62066000   248.43942     -418.65861     -335.45301     -418.63445      0              2366.6379      31.138         21.471905      33.426743      22348.859      2769.0642      903.86069      3426.9889     -148.06877     -1102.9644      1172.2507    
  62068000   254.18732     -417.36324     -332.23259     -417.34189      0              3433.3042      31.138         21.471905      33.334225      22287.002      4006.6081      3840.3234      2452.981       164.8659      -151.02962     -110.23354    
  62070000   248.99855     -416.44388     -333.05102     -416.43082      0              4007.2955      31.138         21.471905      33.235525      22221.012      2469.4361      5394.8975      4157.553       327.49587      744.28689      1390.9253    
  62072000   245.2558      -417.45282     -335.31345     -417.43128      0              2706.3491      31.138         21.471905      33.244519      22227.026      687.76265      3959.2737      3472.0109      217.61434      1582.917      -250.6007     
  62074000   253.67769     -416.45788     -331.49791     -416.43422      0              3725.8839      31.138         21.471905      33.491858      22392.394      4477.9678      4793.8417      1905.8423     -715.29322     -2362.2136      1471.9607    
  62076000   258.96023     -419.60443     -332.87527     -419.58342      0              1636.3737      31.138         21.471905      33.350808      22298.09       224.13215      1232.2992      3452.6898      1321.061       276.18279      210.58205    
[...]
  65858000   243.62187     -416.4254      -334.83326     -416.40763      0              706.53868      31.138         21.471905      33.466718      22375.586      1005.4162      890.89339      223.30643     -2029.2279     -126.43618      375.85395    
  65860000   247.83238     -418.20318     -335.20088     -418.18208      0              473.79924      31.138         21.471905      33.710519      22538.589     -1491.0671      1173.1721      1739.2928      14.237363      1084.7427      79.836671    
  65862000   252.35478     -416.85531     -332.33841     -416.83478      0              4249.5302      31.138         21.471905      33.51261       22406.269      3465.4852      4192.8633      5090.2422     -1969.9543      1219.3977     -1543.5952    
  65864000   252.82302     -417.73739     -333.06367     -417.71747      0              3425.1064      31.138         21.471905      33.387821      22322.836      4206.4015      3482.1629      2586.7548      478.05534     -1001.504       668.03407    
  65866000   254.63446     -416.18522     -330.90482     -416.16941      0              4938.0756      31.138         21.471905      33.284496      22253.753      5953.6759      3735.0012      5125.5498     -712.10379      615.8899       439.08923    
  65868000   246.44745     -415.93608     -333.39762     -415.93783      0              5280.8361      31.138         21.471905      33.312773      22272.659      4188.3866      5536.6371      6117.4846      546.92818     -252.4233       542.21823    
  65870000   254.72855     -418.14512     -332.8332      -418.12954      0              2086.5923      31.138         21.471905      33.365843      22308.142      2994.489       1281.5588      1983.7291     -566.57517     -811.55052     -1647.7486    
  65872000   248.65487     -417.44737     -334.16961     -417.42887      0              4078.0166      31.138         21.471905      33.455737      22368.244      4291.5753      3457.3984      4485.0761     -282.04598      613.37168     -358.15452    
  65874000   259.20578     -417.37173     -330.56033     -417.36137      0              2638.7722      31.138         21.471905      33.402016      22332.327      3961.3278      1140.1996      2814.7892     -461.32634      316.32674     -703.11563    
  65876000   253.95714     -418.07309     -333.01953     -418.06177      0              3572.1025      31.138         21.471905      33.317459      22275.792      1865.5436      3734.9736      5115.7902      244.38907     -581.2928       1206.91      
  65878000   250.7795      -413.59093     -329.60161     -413.57397      0              3612.9288      31.138         21.471905      33.356358      22301.8        3622.5223      2975.2394      4241.0247     -1618.9896     -728.67104      416.24371    
  65880000   243.99734     -416.55727     -334.83938     -416.53645      0              3223.8         31.138         21.471905      33.461697      22372.229      1054.0279      4521.4406      4095.9316      537.82466      405.18398     -524.51018    
  65882000   251.75277     -414.84687     -330.53159     -414.83116      0              3618.4453      31.138         21.471905      33.380305      22317.811      1709.6315      4965.6249      4180.0796     -82.502296     -2148.0029     -1475.8369    
  65884000   246.47148     -413.67369     -331.12718     -413.65804      0              3292.6811      31.138         21.471905      33.484846      22387.706      4583.8935      2699.2285      2594.9214     -750.00261      504.81444      1696.2591    
  65886000   250.93573     -416.37919     -332.33755     -416.36345      0              4006.8135      31.138         21.471905      33.362203      22305.708      1797.1027      4537.1809      5686.1569      315.94115      1815.7842     -414.37958    
  65888000   252.20992     -416.19286     -331.72447     -416.17452      0             -97.183931      31.138         21.471905      33.382859      22319.518      1029.2178     -1570.208       249.43842      524.45558     -664.25068      56.575654    
  65890000   249.67467     -416.16526     -332.54596     -416.14673      0              5476.3449      31.138         21.471905      33.322891      22279.424      4142.1136      5853.3138      6433.6072     -2099.4605     -659.3436       587.70648    
  65892000   252.05945     -416.98501     -332.56702     -416.96988      0              3901.689       31.138         21.471905      33.308432      22269.757      4547.1817      2394.5529      4763.3324      347.04891     -1060.9096     -976.62108    
  65894000   252.06076     -417.67748     -333.25904     -417.66306      0              3927.3505      31.138         21.471905      33.411551      22338.701      4918.1516      3200.5587      3663.3412      493.5079       726.80607      836.63046    
  65896000   258.93402     -418.13839     -331.41801     -418.12288      0              2460.6309      31.138         21.471905      33.440053      22357.758      1037.9688      2878.1148      3465.8092     -509.06659     -444.29784      303.50226    
  65898000   256.85447     -417.44203     -331.41812     -417.42484      0              1459.9904      31.138         21.471905      33.638557      22490.476      941.55701      2231.5044      1206.9096      212.3397       963.23926     -455.38361    
  65900000   243.7729      -414.91689     -333.27416     -414.89544      0              2880.5315      31.138         21.471905      33.427795      22349.562      2567.0189      3579.023       2495.5527     -543.46073     -1364.3678     -525.79184    
  65902000   244.16502     -415.97646     -334.20241     -415.95764      0              2583.5591      31.138         21.471905      33.358133      22302.987      3112.4234      911.06048      3727.1935     -2460.6186     -333.59026     -249.30138    
  65904000   243.50949     -415.88354     -334.32904     -415.86519      0              1507.4099      31.138         21.471905      33.379709      22317.412      524.22385      3852.5238      145.48221     -721.93145      933.11427      1023.064     
  65906000   247.23751     -416.75564     -333.95258     -416.73851      0              4841.1491      31.138         21.471905      33.455805      22368.289      4988.5686      6135.5327      3399.3458     -1937.9132      290.93434     -1883.3558    
  65908000   249.61615     -413.80384     -330.20413     -413.78794      0              2444.1522      31.138         21.471905      33.363553      22306.611      3291.9915      3067.4168      973.04818      760.86578      29.876447     -664.17569    
  65910000   246.51253     -415.29255     -332.73229     -415.2696       0              3447.2138      31.138         21.471905      33.399575      22330.695      2726.9776      3291.4388      4323.2249      337.85108     -282.92116     -1789.7996    
  65912000   255.05054     -416.78823     -331.36849     -416.76921      0              2918.7722      31.138         21.471905      33.178815      22183.096      4301.9572      1254.9592      3199.4001     -824.30633      608.34406     -387.98018    
  65914000   250.00158     -415.75242     -332.02363     -415.73674      0              2954.0385      31.138         21.471905      33.350595      22297.947      2599.7406      1366.5748      4895.8001     -48.469584      1761.8647      1310.4784    
  65916000   248.41983     -418.00189     -334.80285     -417.9892       0              2131.2472      31.138         21.471905      33.410323      22337.88       2878.9082      2290.7062      1224.1272     -606.76456     -1109.8681     -1441.663     
  65918000   247.25513     -415.16347     -332.35451     -415.13974      0              1075.8498      31.138         21.471905      33.326299      22281.703      997.9305       661.50395      1568.1151      1424.8077      554.1581      -794.54745    
  65920000   244.30255     -416.58397     -334.76386     -416.56849      0              2391.1083      31.138         21.471905      33.214302      22206.823      2427.0576      850.89035      3895.3769     -1203.1486      457.90115     -1187.0355    
  65922000   245.60232     -415.96276     -333.70734     -415.94477      0              1612.9858      31.138         21.471905      33.464927      22374.389     -994.16281      3371.6619      2461.4583     -568.0655      -87.691539     -951.22089    
  65924000   244.25503     -417.8013      -335.9971      -417.78566      0              2636.7237      31.138         21.471905      33.306671      22268.58       2232.038       3471.2901      2206.8431     -336.91457     -2691.9924     -849.2578     
  65926000   254.14927     -419.36669     -334.24879     -419.35641      0              5014.1135      31.138         21.471905      33.313543      22273.174      5315.2572      5782.4563      3944.6269     -398.48026      846.64542     -607.96889    
  65928000   250.49745     -419.56244     -335.66757     -419.54603      0              1720.0234      31.138         21.471905      33.191677      22191.695      1469.6692      1445.0996      2245.3014     -483.81759      899.9626      -782.21103    
  65930000   247.54413     -416.58866     -333.6829      -416.57163      0              2891.0921      31.138         21.471905      33.238675      22223.118      2096.4625      2978.0673      3598.7465      625.41072     -418.55175     -1729.1031    
  65932000   246.62973     -418.80126     -336.20175     -418.78274      0              2821.775       31.138         21.471905      33.247529      22229.038      4232.0083      2598.5986      1634.7181     -351.51648     -276.17221      273.84457    
  65934000   250.04327     -414.56413     -330.82138     -414.5474       0              4492.3339      31.138         21.471905      33.155681      22167.629      4219.906       5651.0811      3606.0145     -629.17957     -880.02442     -370.93349    
  65936000   249.21845     -420.24779     -336.78128     -420.23218      0              2665.1499      31.138         21.471905      33.188525      22189.588      3013.4587      2873.5147      2108.4761     -674.50327     -891.14413     -713.96094    
  65938000   247.93242     -416.22814     -333.19234     -416.21249      0              4068.4752      31.138         21.471905      33.085121      22120.453      3749.844       4607.4877      3848.094       445.14894     -1199.3153     -854.69766    
  65940000   248.9528      -417.69404     -334.3165      -417.67849      0              3686.5944      31.138         21.471905      33.130445      22150.756      4914.6277      3676.9148      2468.2408      1699.598       690.43412      78.543816    
  65942000   250.93304     -417.60181     -333.56106     -417.58629      0              2831.0814      31.138         21.471905      33.170463      22177.512      3022.7323      2505.4519      2965.06       -716.14922      86.250417      644.46817    
  65944000   248.33609     -417.0299      -333.8589      -417.01331      0              3257.8152      31.138         21.471905      33.090247      22123.88       2722.124       3050.4759      4000.8458     -1119.3199     -1840.8889      870.57498    
  65946000   255.87628     -417.37946     -331.68316     -417.36027      0              4239.5709      31.138         21.471905      32.948512      22029.118      4856.5447      4049.2715      3812.8966      1031.3588     -744.98811     -359.27334    
  65948000   248.26165     -419.13989     -335.99383     -419.12257      0              3059.5273      31.138         21.471905      33.254417      22233.643      933.926        4085.0895      4159.5664      2245.6417     -1005.6311      145.36364    
  65950000   248.70884     -415.80434     -332.50851     -415.78668      0              2587.3095      31.138         21.471905      33.186373      22188.149      963.60711      3212.0455      3586.2758      780.8477      -1419.5335      200.58885    
  65952000   248.91664     -416.51081     -333.14538     -416.48752      0              1810.3507      31.138         21.471905      33.430224      22351.186      576.53915      3256.9773      1597.5356     -1257.57       -1805.2141     -308.28228    
  65954000   246.4839      -417.90076     -335.35008     -417.8852       0              2099.1221      31.138         21.471905      33.248845      22229.918      2741.6471      1334.5783      2221.1408      527.44529      1351.0403      1677.0519    
  65956000   246.22812     -416.06416     -333.59916     -416.04868      0              3223.1192      31.138         21.471905      33.253646      22233.128      2640.2077      2530.468       4498.682      -834.38347      1737.594      -1392.9623    
  65958000   245.28752     -416.10689     -333.95691     -416.08912      0              2357.3437      31.138         21.471905      33.219364      22210.207      1745.7471      2971.4119      2354.8722     -645.85319      1985.8048     -420.45898    
  65960000   251.72435     -415.39545     -331.08968     -415.38013      0              3148.8015      31.138         21.471905      33.287287      22255.62       1995.1387      3417.7744      4033.4913      864.56787      236.58752      434.75862    
  65962000   246.75155     -417.66162     -335.02131     -417.64616      0              3563.6278      31.138         21.471905      33.171082      22177.926      3342.7466      3313.0671      4035.0697      696.58528     -309.87727     -661.02467    
  65964000   249.02641     -416.79308     -333.39089     -416.77778      0              3039.3319      31.138         21.471905      33.408459      22336.634      3467.0143      2837.2013      2813.7802      433.69825     -1077.783      -1571.6135    
  65966000   251.12255     -419.65289     -335.54868     -419.63514      0              2710.9687      31.138         21.471905      33.317456      22275.79       3462.9802      2853.4513      1816.4747     -231.47613      121.66897     -1579.7083    
  65968000   246.60391     -416.26636     -333.6755      -416.25099      0              2665.2304      31.138         21.471905      33.073642      22112.778      4713.9564      740.40999      2541.3247      258.82146      636.4295      -1355.6319    
  65970000   251.13261     -417.19496     -333.08738     -417.17718      0              4431.947       31.138         21.471905      33.187342      22188.797      4284.8909      5108.1747      3902.7753     -1211.4089     -1604.4781      305.03772    
  65972000   248.85605     -414.81259     -331.46746     -414.79735      0              2555.9645      31.138         21.471905      33.141353      22158.05       4074.6019      2898.8727      694.41893      981.57867     -926.48163     -930.84569    
  65974000   249.52254     -415.08481     -331.51646     -415.06678      0              3746.5945      31.138         21.471905      33.186978      22188.554      5440.1043      4315.4995      1484.1797     -237.87178     -751.22202     -222.7354     
  65976000   247.72077     -418.52512     -335.5602      -418.50879      0              2773.458       31.138         21.471905      33.367352      22309.151      2943.6119      3435.7324      1941.0297      991.93858     -1584.7914     -646.89219    
  65978000   247.40846     -416.44695     -333.58664     -416.43198      0              4138.1637      31.138         21.471905      33.156313      22168.051      3276.008       5462.2855      3676.1978      1244.0604     -77.615471      841.8745     
  65980000   254.88088     -419.40138     -334.03845     -419.38688      0              1682.7978      31.138         21.471905      33.349587      22297.273     -1088.7599      3554.38        2582.7732     -782.58354      183.44753      366.60118    
  65982000   249.26613     -416.1246      -332.64212     -416.10931      0              4391.3561      31.138         21.471905      33.207356      22202.179      4007.1462      4733.7246      4433.1974      61.690557     -595.70368      1256.3749    
  65984000   244.79295     -416.48638     -334.50204     -416.47119      0              2903.1549      31.138         21.471905      33.225981      22214.631      2323.2252      2538.4995      3847.7399     -1361.658       836.20952     -1319.3984    
  65986000   244.02647     -417.88887     -336.16122     -417.87362      0              4625.1615      31.138         21.471905      33.220377      22210.884      4873.0324      3898.9934      5103.4588     -142.446        305.15461      1087.3071    
  65988000   256.18867     -418.34378     -332.54285     -418.32863      0              3899.1671      31.138         21.471905      33.354996      22300.89       4561.3713      3450.9634      3685.1667      1862.0859      383.49002     -1037.0036    
  65990000   245.93337     -418.76638     -336.40009     -418.75124      0              3347.1495      31.138         21.471905      33.330727      22284.664      3467.437       2878.534       3695.4776     -1823.9175      1696.6411      1128.9802    
  65992000   251.56315     -415.63039     -331.37861     -415.61504      0              3996.1798      31.138         21.471905      33.21554       22207.65       3572.8504      3100.8672      5314.8219      479.82848      269.62649      1044.0762    
  65994000   245.52844     -414.36714     -332.13646     -414.40409      0              5500.5739      31.138         21.471905      33.122177      22145.228      5294.2934      4411.5564      6795.8718      688.39708      119.261       -313.19632    
  65996000   253.68258     -418.78806     -333.82646     -418.77297      0              4558.4206      31.138         21.471905      33.236678      22221.783      3794.5926      4460.447       5420.2222      235.00196     -2071.3632     -351.06893    
  65998000   251.41611     -416.06239     -331.85986     -416.04727      0              3097.923       31.138         21.471905      32.985966      22054.159      1196.5308      3653.7543      4443.4839     -388.56114      243.6643       614.78751    
  66000000   249.75845     -415.72589     -332.07853     -415.70482      0              1657.8734      31.138         21.471905      33.221471      22211.616      686.04345      3559.5047      728.07197      1463.6539     -10.549822      535.80667    
Loop time of 52293.6 on 4 procs for 4492000 steps with 2592 atoms

Performance: 3.711 ns/day, 6.468 hours/ns, 85.900 timesteps/s
1497.2% CPU use with 4 MPI tasks x no OpenMP threads

MPI task timing breakdown:
Section |  min time  |  avg time  |  max time  |%varavg| %total
---------------------------------------------------------------
Pair    | 12418      | 12610      | 12868      | 169.9 | 24.11
Bond    | 0.4392     | 0.45031    | 0.4625     |   1.4 |  0.00
Neigh   | 371.45     | 377.18     | 383.47     |  24.6 |  0.72
Comm    | 1359.1     | 1619.8     | 1811.4     | 477.0 |  3.10
Output  | 1946       | 1946.1     | 1946.4     |   0.4 |  3.72
Modify  | 35724      | 35728      | 35732      |   1.8 | 68.32
Other   |            | 12.43      |            |       |  0.02

Nlocal:            648 ave         660 max         631 min
Histogram: 1 0 0 0 0 1 0 0 1 1
Nghost:        4152.75 ave        4185 max        4125 min
Histogram: 1 0 0 1 1 0 0 0 0 1
Neighs:              0 ave           0 max           0 min
Histogram: 4 0 0 0 0 0 0 0 0 0
FullNghs:       161830 ave      167422 max      154454 min
Histogram: 1 0 0 0 1 0 0 0 1 1

Total # of neighbors = 647320
Ave neighs/atom = 249.73765
Ave special neighs/atom = 0
Neighbor list builds = 89840
Dangerous builds not checked
unfix 3
unfix 1
unfix 2


# Finalize simulation
write_restart	restart.lmp.${pid}
write_restart	restart.lmp.0
System init for write_restart ...
Generated 0 of 1 mixed pair_coeff terms from geometric mixing rule
write_data	data.final.${pid} nocoeff
write_data	data.final.0 nocoeff
System init for write_data ...
Generated 0 of 1 mixed pair_coeff terms from geometric mixing rule
Total wall time: 14:32:00
