LAMMPS data file via write_data, version 29 Sep 2021, timestep = 2000000

864 atoms
2 atom types

0.30623473590275196 17.90133826409542 xlo xhi
0.36070405227144064 21.085410947726082 ylo yhi
0.3736056535688803 21.839590346430057 zlo zhi

Masses

1 1.008
2 15.999

Atoms # full

168 0 2 0.5897 4.702123621862528 1.5664844146594168 2.3158440586380564 0 1 2
788 0 2 0.5897 2.502915146399937 2.691599495287196 1.6315762489169645 0 1 0
787 0 1 -1.1794 1.5677913091765352 2.9708046609237835 1.6729188237626411 0 1 0
642 0 2 0.5897 1.7438095420709014 2.2344100050691758 4.238679471367682 0 0 0
166 0 1 -1.1794 4.33854663570798 2.155920348563514 1.6827485354336713 0 1 2
640 0 1 -1.1794 2.006255937119027 1.2729314171529649 4.195795381590395 0 0 0
641 0 2 0.5897 2.1315513983235603 1.1614867907043154 3.2732152487100725 0 0 0
789 0 2 0.5897 1.5347086970990544 3.9096531309846436 1.9126856084057362 0 1 0
167 0 2 0.5897 4.69677755746346 1.986130514580708 0.8142089460650459 0 1 2
486 0 2 0.5897 4.815143496624772 3.880946484403855 1.9044233693589274 1 0 1
570 0 2 0.5897 6.473208102735819 2.020607887303762 4.181599755095492 1 0 1
55 0 1 -1.1794 7.31148314245373 3.619679044937335 3.2170382810966416 1 0 0
57 0 2 0.5897 7.414786712248231 3.1730017611351533 2.3339286710253946 1 0 0
56 0 2 0.5897 8.001211972441553 3.2990153549303343 3.8087797730471316 1 0 0
568 0 1 -1.1794 5.899585954642299 1.2310677397387244 4.06442143321936 1 0 1
569 0 2 0.5897 6.361225545300716 0.577397942197877 4.560927181751438 1 0 1
192 0 2 0.5897 9.002420543491818 0.6371460408748979 0.904828940318013 1 1 0
585 0 2 0.5897 9.754488637596545 3.143194560892169 0.9701504420772981 0 0 0
494 0 2 0.5897 11.201578316466739 3.1555262983203165 2.91904575643984 1 1 1
456 0 2 0.5897 11.285047472468621 0.9771918664480582 3.607643690067725 0 0 0
493 0 1 -1.1794 10.95515449912886 3.9736639118067187 2.322400232883977 1 1 1
455 0 2 0.5897 12.640832479764642 1.6550363296180266 3.6729096418358678 0 -1 0
454 0 1 -1.1794 11.707834033394187 1.8164568358100537 3.8159357966741765 0 -1 0
524 0 2 0.5897 10.243300639063873 4.499206645275896 3.939515830456069 0 1 1
190 0 1 -1.1794 9.930343127840182 0.49999021007202005 1.2208512801405482 1 0 0
495 0 2 0.5897 11.817803253832954 4.494646447522679 2.3008309148877455 1 1 0
66 0 2 0.5897 11.3811994987997 1.3639769910694057 0.5000572823609832 0 1 0
849 0 2 0.5897 17.748995431305957 3.939807461499714 4.511827728946837 -1 1 0
188 0 2 0.5897 17.880600493013254 1.587867477354391 2.480609030259287 -1 0 0
187 0 1 -1.1794 16.993446237477098 1.248525458082391 2.5409372691704455 -1 1 0
322 0 1 -1.1794 14.750487479615288 2.357493924175755 3.9468273538859258 0 1 0
324 0 2 0.5897 15.480199858236858 1.7812252156997928 3.7390340107805913 0 1 0
719 0 2 0.5897 15.876116860460419 4.1691386636727845 2.9520711216512954 -1 1 0
720 0 2 0.5897 15.694282148817676 4.371604598621067 4.434942649088905 -1 1 0
387 0 2 0.5897 16.28625025914568 2.6621775895903816 1.358008918604032 0 0 1
385 0 1 -1.1794 15.878209468164256 3.5321162304241756 1.127269067522403 0 0 1
848 0 2 0.5897 1.4930666548946219 4.562581287399379 4.116097002540212 0 0 0
99 0 2 0.5897 2.902104286927072 6.120262948168649 2.6470633217546466 1 0 1
98 0 2 0.5897 1.3143252352262225 6.116692426757465 2.7852077035279854 1 0 1
243 0 2 0.5897 0.9506998610004895 6.685282540688596 0.8670447105756398 0 0 0
282 0 2 0.5897 4.351831600459769 6.114857186842044 0.9195433718498882 0 0 0
314 0 2 0.5897 3.7361201772123724 8.36953230519531 3.553739147246183 0 0 0
313 0 1 -1.1794 4.018039605375833 8.165555248543175 2.635319299535096 0 0 0
97 0 1 -1.1794 2.1284360625775625 5.693274455804475 2.9912057191669934 1 0 1
797 0 2 0.5897 7.800346694893565 5.001670023977904 0.4278722071463247 0 0 0
484 0 1 -1.1794 4.837864041259472 4.85175359784634 1.96842294344573 1 0 1
798 0 2 0.5897 6.623801849878572 5.57955639980985 1.358687588036474 0 0 0
485 0 2 0.5897 4.991475864576265 5.011674558775309 2.9292400401130676 1 0 1
375 0 2 0.5897 8.115131545961924 6.495032416764804 2.1889138663441803 0 1 0
443 0 2 0.5897 7.048777709723561 8.180744368136661 3.541796091550696 0 0 1
796 0 1 -1.1794 7.384620123256916 5.784163175651824 0.8290970282712729 0 0 0
373 0 1 -1.1794 8.340860134901371 6.974173167757918 2.9962291725883454 0 1 0
315 0 2 0.5897 4.93648386436438 8.35309189111807 2.7591939744012426 0 0 0
27 0 2 0.5897 7.584402339411708 6.0958060941495 4.2882224151940225 0 0 0
374 0 2 0.5897 9.301011041559956 6.94147149532429 3.2656636259812375 0 1 0
218 0 2 0.5897 10.129842848950378 5.117008606472957 0.8571909109166407 0 0 1
219 0 2 0.5897 11.036613878059125 6.275220319790906 1.387454176596469 0 0 1
844 0 1 -1.1794 11.044450949297543 7.220667592342059 3.265166593385247 -1 0 -1
846 0 2 0.5897 11.793513336841764 6.72010976167723 3.7182913608922084 -1 0 -1
845 0 2 0.5897 11.340054506356825 8.100208126335307 3.0393934461198393 -1 0 -1
217 0 1 -1.1794 10.558791524202036 5.942839700451263 0.5989596305462161 0 0 1
376 0 1 -1.1794 13.270209342046815 6.232239939741133 4.5993001807368605 0 0 0
238 0 1 -1.1794 17.442420909853457 7.254063784772127 2.434707319879712 1 0 1
94 0 1 -1.1794 13.523606178871868 5.507970880557813 1.853958279239022 0 0 1
718 0 1 -1.1794 16.17359271725207 4.7677263044605445 3.6678371696647676 -1 1 0
861 0 2 0.5897 13.962299188850583 7.316226941445422 1.4051627321181608 0 0 1
96 0 2 0.5897 14.148586315997894 4.907975307128243 1.4199959783802731 0 0 1
95 0 2 0.5897 13.933942797968598 5.594772718111921 2.7683109661824092 0 0 1
239 0 2 0.5897 17.523772927470173 7.911408820211039 3.10058894962602 1 0 1
240 0 2 0.5897 16.71821296380468 6.651920051265253 2.6158601259980614 1 0 1
859 0 1 -1.1794 14.575958229459847 8.08924465943208 1.4161866478836909 0 0 1
288 0 2 0.5897 14.437915799944529 8.561311836411118 3.095852201411828 -1 0 0
286 0 1 -1.1794 14.38167822870194 8.61128419772722 4.061334884606405 -1 0 0
377 0 2 0.5897 13.556411821690824 7.130286420076154 4.599564216903691 0 0 0
461 0 2 0.5897 3.170492004653885 9.309992610085448 1.7934278132278252 0 -1 0
462 0 2 0.5897 2.1109487766488346 10.381097466289797 2.2950675727234313 0 -1 0
460 0 1 -1.1794 2.8229914363659514 10.17494362235116 1.6380699234134273 0 -1 0
368 0 2 0.5897 4.52620384375764 11.023880435430089 1.5086360868958193 1 0 1
442 0 1 -1.1794 6.523530545526703 8.974648801534356 3.524158280088459 0 0 1
367 0 1 -1.1794 4.988255644716712 11.853455291786966 1.3048230000428773 1 0 1
409 0 1 -1.1794 8.669037459998181 9.964931432761853 1.9198813248156488 2 0 0
411 0 2 0.5897 7.828736493381358 9.821020810176396 2.4253641250755114 2 0 0
410 0 2 0.5897 8.766752303701775 9.167328965799305 1.348347654165399 2 0 0
803 0 2 0.5897 5.441257473408598 12.167772754894123 2.980417750743989 -1 0 0
444 0 2 0.5897 6.48194532547788 9.264416151569963 4.455769468871428 0 0 1
369 0 2 0.5897 5.810971942043803 11.537790646521296 0.8644519753405845 1 0 1
802 0 1 -1.1794 6.151053679748155 12.637437299190372 3.510974500297819 -1 0 0
792 0 2 0.5897 7.9642956222160555 11.016431154587279 0.4113809054293263 0 0 1
610 0 1 -1.1794 11.468992789856367 9.90686003742203 2.3634616291692607 0 1 0
611 0 2 0.5897 10.542373323173699 10.123800271906813 2.233134170308304 0 1 0
612 0 2 0.5897 11.953803478681511 9.829837530654173 1.5311260071797406 0 1 0
545 0 2 0.5897 9.761058199138185 11.684140540525657 4.0578678644180055 0 0 1
458 0 2 0.5897 11.185552838861678 12.428757068806002 0.588580789430998 -1 0 0
457 0 1 -1.1794 10.230701726073121 12.46082877365651 0.4923374154861022 -1 0 0
155 0 2 0.5897 12.690324966495618 11.276040411380807 4.338901057547625 0 -1 1
148 0 1 -1.1794 13.041686151221338 12.487486267988984 0.44356426337641336 0 0 0
860 0 2 0.5897 14.214727586892673 8.736229898647283 0.7821635172396824 0 0 1
156 0 2 0.5897 14.087192068347642 11.880244212275935 4.056934185638404 0 -1 1
604 0 1 -1.1794 17.752740179438522 10.784212355411361 2.6430133732922343 -1 0 1
414 0 2 0.5897 17.192977633350374 12.41279335383299 3.3348956812692823 0 0 1
606 0 2 0.5897 17.281607128688876 10.214002989050522 3.2518126354682066 -1 0 1
605 0 2 0.5897 17.351789268405668 10.6424819176978 1.7868237640431115 -1 0 1
150 0 2 0.5897 13.524206506599398 12.55912561687907 1.2817267159892165 0 0 0
332 0 2 0.5897 16.338415733424604 8.896307110715304 0.4430910903355258 -1 -1 1
287 0 2 0.5897 13.933203281096613 9.423158085765273 4.298690366433744 -1 0 0
690 0 2 0.5897 2.6603500276072833 12.915180063349833 0.5499095271367362 1 0 0
8 0 2 0.5897 2.0234484827999695 12.945485849889273 3.978817331719392 0 0 1
7 0 1 -1.1794 2.6686286147959852 13.17379648331925 4.636805940217874 0 0 1
9 0 2 0.5897 3.032029408266351 14.06064632248067 4.338956834316098 -1 0 1
171 0 2 0.5897 1.472944671863862 14.626388156442344 2.015727943249247 0 -1 0
169 0 1 -1.1794 1.095404064889216 15.228511838065812 2.676126920236296 0 -1 0
689 0 2 0.5897 2.9508836732799835 14.319416421822 0.4424786844271915 1 0 0
19 0 1 -1.1794 4.578768498675414 15.11543931213251 3.7120003354629514 0 0 1
688 0 1 -1.1794 2.202337515427821 13.756759724004823 0.5050342172175419 1 0 0
170 0 2 0.5897 0.34453255388720805 14.720299407773483 2.970049216548985 0 -1 0
215 0 2 0.5897 1.5573704802229353 16.46978634718145 4.376280768313883 1 -1 0
89 0 2 0.5897 8.136494593892746 13.067764533321233 2.921853536217674 -1 0 0
20 0 2 0.5897 4.750430474855854 15.88540464748829 4.248909442601299 0 0 1
21 0 2 0.5897 4.779669099494813 15.340382871676551 2.8047759734918896 0 0 1
724 0 1 -1.1794 4.873119353327837 15.145903185586704 0.8234777892384803 0 1 1
726 0 2 0.5897 5.79245721727254 14.676046238849988 0.780835873392058 0 1 1
804 0 2 0.5897 5.811401155470109 13.55790743935576 3.5326462879991585 -1 0 0
774 0 2 0.5897 7.831917476853733 15.43049926498809 3.112050597927723 -1 0 0
107 0 2 0.5897 8.023123470510761 14.66908986271065 1.070875800754519 -1 0 0
772 0 1 -1.1794 8.080220336808402 16.023723250880778 2.3410250980215284 -1 0 0
106 0 1 -1.1794 7.421636406199193 14.274614508049577 0.44221868053010027 -1 0 0
773 0 2 0.5897 8.938478463096649 16.367417907597588 2.517534673744688 -1 0 0
88 0 1 -1.1794 9.09532716641499 13.076884122939973 2.971486494275568 -1 0 0
90 0 2 0.5897 9.418408509632393 12.915258902755347 2.0626451713681355 -1 0 0
441 0 2 0.5897 10.80938070940368 16.24680622309679 3.922361729438667 0 0 1
625 0 1 -1.1794 13.031684358654473 15.374163868528056 2.514747068592045 -1 0 1
627 0 2 0.5897 12.57060675781665 15.813625809601866 1.7436332251408744 -1 0 1
626 0 2 0.5897 13.395438054509317 16.13554856067152 2.9706107243488815 -1 0 1
665 0 2 0.5897 11.096068779957331 13.631090516773485 3.4403199254048626 1 0 0
664 0 1 -1.1794 11.556084550681625 13.582741998823167 4.246910673596281 1 0 0
32 0 2 0.5897 14.243399472428507 13.928346593623209 2.754156659637971 -1 1 1
413 0 2 0.5897 16.347603681042393 13.374644149650434 4.180363751441046 0 0 1
33 0 2 0.5897 15.514556171630703 13.25917938468578 2.186234875090715 -1 1 0
412 0 1 -1.1794 17.119741357825948 13.302212044265753 3.640320072015676 0 0 1
31 0 1 -1.1794 14.624076564366693 13.019551217138428 2.557686819601962 -1 1 1
786 0 2 0.5897 15.428075260175335 16.020059988923407 2.4805647166326024 -1 0 0
817 0 1 -1.1794 15.809568187439663 15.279918522009 0.6689034414564421 -1 0 0
784 0 1 -1.1794 15.236627305454952 16.58138201555224 3.2552119921718363 -1 0 0
35 0 2 0.5897 17.472569053644012 16.612980794667674 1.2917845758098827 -1 -1 1
351 0 2 0.5897 2.05994877624082 20.61196369647155 1.1122394335548824 0 0 0
349 0 1 -1.1794 1.8732588054863624 20.307549728555525 2.0097805632936003 0 0 0
327 0 2 0.5897 2.694267665251652 17.67356256913409 3.216096844148907 -1 0 0
326 0 2 0.5897 3.8755096579756407 17.515975090191112 2.3225827989600365 -1 0 0
325 0 1 -1.1794 3.014436317295965 17.84354713817772 2.3628977234821864 -1 0 0
350 0 2 0.5897 2.4469398466228798 19.522129699091092 2.0229610815855095 0 0 0
36 0 2 0.5897 1.232174322842457 17.403176036191006 1.2788107201269407 0 -1 1
34 0 1 -1.1794 0.3363431411913748 17.382043336832744 0.9045345395123016 0 -1 1
321 0 2 0.5897 6.757247180104804 17.314046351727608 2.1377615940329173 0 1 1
319 0 1 -1.1794 6.0162562714390235 17.909724452814267 2.324780264576683 0 1 1
429 0 2 0.5897 6.055938345982337 18.465038343363567 4.122927726734277 1 0 0
320 0 2 0.5897 6.143823664532181 18.444832870967165 1.5191695638712073 0 1 1
191 0 2 0.5897 9.91315807274845 20.779506234021326 2.063187357354681 1 0 0
440 0 2 0.5897 10.97086928190599 17.741632120798595 3.663126000112691 0 0 1
439 0 1 -1.1794 10.31108160930219 17.089361220980877 3.602184196942205 0 0 1
232 0 1 -1.1794 10.285781916495736 20.165892574044346 3.5797711645257597 0 -1 1
234 0 2 0.5897 11.075583031109014 19.637422806174158 3.5801096414124656 0 -1 1
233 0 2 0.5897 9.706344930347267 19.942163799563296 4.340335776744974 0 -1 1
76 0 1 -1.1794 12.628823066317826 18.69026570762816 3.4109717764493532 0 0 1
77 0 2 0.5897 13.119918067656727 18.812803421542167 2.5756650167642396 0 0 1
78 0 2 0.5897 13.180112804469738 18.760136090796752 4.14544462198268 0 0 1
189 0 2 0.5897 17.04373679757345 21.025919758539118 2.59175171181109 -1 0 0
82 0 1 -1.1794 14.181719548037014 18.942567424122913 1.1175582924756244 -1 -1 1
785 0 2 0.5897 15.58797889592896 17.499669269188658 3.054539160900246 -1 0 0
83 0 2 0.5897 15.118349035625364 19.119880063976264 1.2297031678301626 -1 -1 1
554 0 2 0.5897 17.41259772835711 18.633810444735165 2.3340985499057645 -1 0 1
555 0 2 0.5897 17.180213578414328 19.22572786106406 3.7298954492064134 -1 0 0
553 0 1 -1.1794 16.714755766123616 18.970652538885965 2.8887881533921433 -1 0 0
847 0 1 -1.1794 1.1309452594288507 3.9461397760564445 4.749408819671811 0 1 0
676 0 1 -1.1794 2.016197430107357 1.1360391938032124 7.438731352115372 0 1 1
677 0 2 0.5897 1.092526122203043 1.439548173218112 7.587891374789716 0 1 1
212 0 2 0.5897 3.3579912090491866 2.0477902903771517 6.42570703123732 0 -1 0
211 0 1 -1.1794 4.192751918583672 2.4772191677164823 6.0617246440453645 0 -1 0
213 0 2 0.5897 4.388158334033568 1.8541954605735051 5.349529416856922 0 -1 0
636 0 2 0.5897 4.271054102124407 4.333038747209486 5.491693488711072 1 0 1
650 0 2 0.5897 8.388371579482733 1.3309604105111572 5.987795392687256 0 1 0
158 0 2 0.5897 5.4641914175189354 3.055595266940849 7.293249020044501 0 1 0
157 0 1 -1.1794 6.337079617518847 3.1296605751305675 7.739736426657532 0 1 0
651 0 2 0.5897 7.829640934041695 2.727129480311274 6.6075941068860535 0 1 0
649 0 1 -1.1794 8.262658471860838 2.3294644646847793 5.829711242755945 0 1 0
24 0 2 0.5897 6.983638364064842 1.6905908626604425 8.510068676854454 0 1 0
159 0 2 0.5897 6.534158472186437 4.028071454307275 8.11017750378523 0 0 0
23 0 2 0.5897 6.4662158194438195 0.3627138914463437 8.901433924644872 0 1 0
523 0 1 -1.1794 9.896885345643136 4.480253513694543 4.81475268344219 0 1 1
525 0 2 0.5897 9.710485770386637 3.591829470859815 5.094019403672904 0 1 1
826 0 1 -1.1794 12.614174867031531 1.8607172438856892 6.681923126047899 0 0 1
422 0 2 0.5897 12.823567025948027 4.167057454018564 7.1555243831659014 0 0 0
828 0 2 0.5897 12.070001425500468 1.9968417844258641 5.910720372416366 0 0 1
380 0 2 0.5897 11.51653994922578 2.739703095682445 8.174598683467565 0 0 0
827 0 2 0.5897 12.311095912535174 0.9337620466832454 6.921627885440916 0 0 1
323 0 2 0.5897 14.736040266952628 2.253381827531333 4.902355848771876 0 1 0
691 0 1 -1.1794 17.25252535657786 1.9798678036560358 7.600783698177712 -1 1 -1
693 0 2 0.5897 16.831620133147002 2.821720551300967 7.262471861282522 -1 1 -1
692 0 2 0.5897 16.689461621197452 1.5558252019220817 8.325098342578194 -1 1 -1
589 0 1 -1.1794 15.694603861008236 4.477381524885625 6.413225675656321 0 0 0
182 0 2 0.5897 1.1829141118341382 4.777203535526271 6.753386890688208 1 0 0
181 0 1 -1.1794 1.3578701830759536 4.825191526580746 7.698894128866089 1 1 0
80 0 2 0.5897 3.764537575096179 6.761685613599857 5.2850026314092835 0 0 0
183 0 2 0.5897 2.306483168594068 4.678523193668989 7.876181003141394 1 1 0
79 0 1 -1.1794 3.6927162668604967 7.730663080106134 5.368367541757998 0 0 0
757 0 1 -1.1794 3.893375933102928 4.982966671316637 8.45910609739088 1 0 0
81 0 2 0.5897 2.8699112735198176 7.9541780152590515 5.868527872518969 0 0 0
766 0 1 -1.1794 1.9384580052585791 7.7892216419824685 7.594456101072755 2 1 0
767 0 2 0.5897 2.571503090677501 7.548457876558594 8.327698351120965 1 1 0
634 0 1 -1.1794 4.586651500243024 5.212425804786479 5.267523927954223 1 0 1
759 0 2 0.5897 4.487314667227072 5.3088640058356225 7.78015859430786 1 0 0
768 0 2 0.5897 1.535281289414621 6.91968715812352 7.371420271417719 2 1 0
3 0 2 0.5897 5.363451098808231 7.952785276180853 6.423294549901318 0 1 0
635 0 2 0.5897 5.549734795534184 5.293512750439864 5.291931454940019 1 0 1
26 0 2 0.5897 7.881868190948209 5.119016452815628 5.382490603273232 0 0 0
25 0 1 -1.1794 7.2539551556737285 5.8240671439898755 5.180662452126657 0 0 0
1 0 1 -1.1794 6.264394635761306 7.915500202207498 6.757101960498068 0 1 0
2 0 2 0.5897 6.729122603546855 7.237422267020721 6.188109641609382 0 1 0
695 0 2 0.5897 6.79913405089997 8.635218506188014 8.65437288926588 1 1 0
416 0 2 0.5897 9.003153393808324 8.32128226691418 7.731073939816497 0 0 1
629 0 2 0.5897 7.81376910899167 6.183876186333919 8.266228855711244 0 -1 0
415 0 1 -1.1794 9.252235156170356 7.590346160656923 8.296750146398459 0 0 1
421 0 1 -1.1794 13.109983413162878 5.045649300348971 7.484955587695008 0 0 0
423 0 2 0.5897 12.327022586986645 5.589354632063099 7.31177600833535 0 0 0
527 0 2 0.5897 10.521770321045077 5.684197247508042 5.9481598697163625 0 0 0
528 0 2 0.5897 10.486281363014424 6.601922391607557 7.182592715205422 0 0 0
526 0 1 -1.1794 10.95603729427636 6.382872229331493 6.41023510983169 0 0 0
330 0 2 0.5897 11.593129111138664 8.100995734366077 5.934474068066277 0 0 0
378 0 2 0.5897 13.49345798535954 5.806712305020387 5.477738499962917 0 0 0
398 0 2 0.5897 17.17475945455251 7.401175792660345 5.606499576909355 0 0 0
590 0 2 0.5897 14.824012835085544 4.644041655649816 6.783256627556585 0 0 0
591 0 2 0.5897 16.087458265620114 5.343928014480389 6.321311174930424 0 0 0
397 0 1 -1.1794 16.99662692921636 6.871523772768245 6.417601609629524 0 0 0
399 0 2 0.5897 16.487889207112012 7.480906388879132 7.009380388394057 0 0 0
762 0 2 0.5897 15.060173189493145 8.048602407745854 8.661595182654072 0 1 0
200 0 2 0.5897 0.9681334321317725 9.2300196877117 7.3854448423140635 0 0 1
199 0 1 -1.1794 0.6949019973690094 10.030719214648062 6.88195860993053 0 0 1
201 0 2 0.5897 1.5490891512935474 10.457313130238493 6.623594155439536 0 0 1
353 0 2 0.5897 3.1015351230115265 12.04480482035897 5.978531868803069 0 -1 1
354 0 2 0.5897 2.9989919477166556 11.646905490923983 7.4597973419212105 0 -1 1
352 0 1 -1.1794 3.0089630195275294 11.307159176998688 6.572247010002335 0 -1 1
717 0 2 0.5897 5.954010567961056 11.671072639559556 5.187073079975609 0 0 0
39 0 2 0.5897 7.601575305189942 9.417094452177887 6.513280807158744 1 0 0
37 0 1 -1.1794 8.493059718468789 9.611878316279093 6.726588971378505 1 0 0
716 0 2 0.5897 4.924913870907882 10.907820316904322 6.056177634104644 0 0 0
715 0 1 -1.1794 5.839473573865415 11.032292271009455 5.937222866708904 0 0 0
365 0 2 0.5897 7.3785281521818575 12.2097148234468 7.023605569518382 0 -1 0
38 0 2 0.5897 8.72677250135074 10.361127302743503 6.165774559833673 1 0 0
544 0 1 -1.1794 9.962187828983591 11.220816314536375 4.929887500850062 0 0 0
328 0 1 -1.1794 11.797147405546513 9.022381919357805 5.816456614359468 0 0 0
546 0 2 0.5897 10.6989744704058 10.606999490816202 4.854238022362544 0 0 0
329 0 2 0.5897 12.478009939248926 9.271863265836835 6.476160628502588 0 0 0
138 0 2 0.5897 10.50371678164057 12.315213216731365 6.868257657900185 -1 0 0
501 0 2 0.5897 10.397337746744153 9.97698856652831 7.624144699845701 1 0 0
500 0 2 0.5897 11.662412355273867 10.425545379659972 8.08162090251744 1 0 0
499 0 1 -1.1794 10.764220376462491 10.43419741145152 8.376502733550678 1 0 0
262 0 1 -1.1794 16.916639565819228 9.154747347545428 4.719673891830358 -1 1 0
263 0 2 0.5897 15.9770227098256 9.025476448724662 4.6921774961396405 -1 0 0
760 0 1 -1.1794 15.602070100246754 8.711894656490347 8.209614856165192 0 1 0
154 0 1 -1.1794 13.569716202336343 11.345729728719101 4.715708860244939 0 -1 1
249 0 2 0.5897 16.973351126048506 12.45117710434422 8.482120179503047 0 0 -1
248 0 2 0.5897 17.089473725888418 11.01433124318952 7.808479523329024 0 0 -1
264 0 2 0.5897 17.24293328399219 9.494902852216754 5.588359172449704 -1 1 0
247 0 1 -1.1794 16.524709551830384 11.760875924996423 8.013979256387303 0 0 -1
864 0 2 0.5897 15.8735023068293 12.562065547113466 6.638927844846584 -1 0 0
363 0 2 0.5897 14.02888599561292 11.11707072469564 6.869469096367569 0 0 0
361 0 1 -1.1794 13.906944573727081 10.686019763509242 7.702660294310602 0 0 0
362 0 2 0.5897 14.715711411575334 10.211002106009861 7.8741012528494805 0 0 0
761 0 2 0.5897 16.218461263578988 9.100578753806754 8.857831563315303 0 1 0
675 0 2 0.5897 1.816319138034079 13.607024069743826 6.135127092090507 -1 -1 1
673 0 1 -1.1794 1.2430516016087312 14.080896027608112 6.779170530757506 -1 -1 1
722 0 2 0.5897 2.652282643650758 15.160187611148888 7.344287566915996 0 0 0
721 0 1 -1.1794 3.432942633764771 15.715880259536894 7.621801268977333 0 0 0
723 0 2 0.5897 3.6552483394310857 15.527263821598426 8.524863178081965 0 0 0
674 0 2 0.5897 0.5597038696136103 14.547401493764571 6.276837095862292 -1 -1 1
364 0 1 -1.1794 7.678937636939121 13.027943358067443 7.3985363545465725 0 -1 0
560 0 2 0.5897 4.911367366182374 15.716417963083016 6.600815190729393 0 0 -1
366 0 2 0.5897 8.63325671244839 13.145430799525297 7.230698023307789 0 -1 0
811 0 1 -1.1794 7.876180602916358 14.870625452826177 4.9359124548645825 0 -1 1
812 0 2 0.5897 7.948404943356883 13.96025686994237 5.152434963509074 0 -1 1
813 0 2 0.5897 8.593054611851237 15.233743316299968 5.423212908088169 0 -1 1
561 0 2 0.5897 6.302143405410683 15.58423428950224 5.877688379021377 0 0 -1
559 0 1 -1.1794 5.641821993537729 16.260532311236652 6.19898143715705 0 0 -1
834 0 2 0.5897 6.184050303939837 13.654530934524534 8.30799269746236 1 1 0
136 0 1 -1.1794 10.39311336642737 13.239366742219607 6.781860211977066 -1 0 0
666 0 2 0.5897 11.022109819643834 13.178092916247214 4.9019128010436015 1 0 0
303 0 2 0.5897 11.986055642918705 15.007749893484462 4.96768183599852 0 0 0
480 0 2 0.5897 9.675418136328549 15.924596577296109 8.050829773378432 1 0 0
137 0 2 0.5897 10.968757269054574 13.650859969095634 7.460691071967119 -1 0 0
302 0 2 0.5897 11.36158796010431 16.095506205977035 5.952748355444264 0 0 -1
301 0 1 -1.1794 12.21568822730198 15.719047827419823 5.623252417552244 0 0 -1
45 0 2 0.5897 12.744288746289875 14.856567412196256 7.087670515702264 0 0 -1
43 0 1 -1.1794 12.856810112019296 14.484678511395218 7.983279198322965 -1 0 -1
259 0 1 -1.1794 9.73255876865371 16.847192159195732 6.175256483549302 0 0 0
478 0 1 -1.1794 10.05104308049814 15.702328450536976 8.947399497712496 1 0 0
863 0 2 0.5897 14.52159418666456 12.966390515336741 6.1922644031907454 -1 0 0
862 0 1 -1.1794 15.441489751423461 13.19942333897664 6.053025089004254 -1 0 0
345 0 2 0.5897 16.021557513611956 15.992704865996973 4.934812875247258 -1 -1 1
343 0 1 -1.1794 16.447943028971235 15.74575905302636 5.787195842088989 0 -1 1
344 0 2 0.5897 16.098886177646435 14.811877255277556 5.866361577639858 0 -1 1
44 0 2 0.5897 13.75910114857869 14.567149806974745 8.30067815132066 -1 0 -1
54 0 2 0.5897 16.21497470031574 15.019156122520638 8.917642804465782 0 0 0
53 0 2 0.5897 15.677211625222457 15.826898875987032 7.7221643264837585 0 0 0
52 0 1 -1.1794 15.49421271737301 15.5704605422636 8.639059811442422 0 0 0
214 0 1 -1.1794 1.808409275356922 17.169931138219894 4.949298178752705 1 -1 0
174 0 2 0.5897 3.2462944503987328 20.72938955132679 4.975436117910731 0 -1 0
173 0 2 0.5897 4.298527838984834 19.617123087960554 4.954004100663402 0 -1 0
513 0 2 0.5897 1.0042434892341126 20.50983463979617 4.805357566816589 1 -2 0
216 0 2 0.5897 1.1880242292880907 17.884754284746283 4.802841178909876 1 -1 0
511 0 1 -1.1794 0.4189678914987408 19.74706022464804 4.937253573117938 1 -2 0
678 0 2 0.5897 2.016026358371702 20.923257465389266 7.198321642178166 0 0 1
172 0 1 -1.1794 3.751716070281375 20.10230421404703 5.532253732306057 0 -1 0
735 0 2 0.5897 3.2333744429804003 18.9928804347627 6.732783227351868 0 -1 0
733 0 1 -1.1794 2.96195901115215 18.495823201289305 7.570875333883904 0 -1 0
734 0 2 0.5897 3.523723607085593 17.71667919128172 7.5548915250117075 0 -1 0
404 0 2 0.5897 1.187594077674902 17.938776392521497 7.115901299630955 1 1 0
473 0 2 0.5897 4.314349297871927 19.530806039351702 8.822584871944985 0 0 0
427 0 1 -1.1794 5.990548626133345 18.6965080861658 5.070870480959168 1 0 0
305 0 2 0.5897 6.391144262893052 16.98919482315123 7.73506752994556 0 -1 1
304 0 1 -1.1794 6.577727784422208 17.28306899828498 8.63448263975748 0 -1 1
28 0 1 -1.1794 8.434425649003034 20.086064844102744 5.728318537297911 0 0 0
30 0 2 0.5897 7.682964002393778 19.566793459251297 5.390324716155938 0 0 0
428 0 2 0.5897 5.944202272495669 17.776164948019645 5.45572856088135 1 0 0
29 0 2 0.5897 8.611322746856052 19.73020663352129 6.648545808836968 0 0 0
306 0 2 0.5897 5.9759852252970385 17.99721124909999 8.833260898092577 0 -1 1
764 0 2 0.5897 9.031605633715307 19.028743934713532 8.93421045100766 0 -1 1
261 0 2 0.5897 9.641378321468334 17.21260535909256 5.256950356698163 0 0 0
260 0 2 0.5897 9.695827719037622 17.612461969415882 6.73684678723931 0 0 0
316 0 1 -1.1794 12.157430132741284 19.77522823683314 7.447708783543582 -1 0 0
317 0 2 0.5897 12.625195371976254 19.08576246146537 6.964211436055291 -1 0 0
763 0 1 -1.1794 9.240055281769607 19.096870509569168 8.023690706062766 0 -1 1
765 0 2 0.5897 9.921830829134251 19.776337850473404 7.982356499712957 0 -1 1
318 0 2 0.5897 12.504937050833922 19.71045744591672 8.352861167030365 -1 0 0
277 0 1 -1.1794 15.58303805037303 21.02609033335871 8.903989555347739 -1 -1 1
405 0 2 0.5897 17.614601780705655 17.064747945063164 6.684181155723844 0 1 0
403 0 1 -1.1794 17.859946214577093 17.691836923797776 7.348558727293745 0 1 0
701 0 2 0.5897 13.645970999733416 17.13433264683905 5.978818810280038 -1 0 0
700 0 1 -1.1794 13.639295489223624 18.06018398117106 5.987691652055028 -1 0 0
512 0 2 0.5897 17.41263117428194 19.993753823420448 5.657360021727592 0 -2 0
633 0 2 0.5897 15.96995974900623 20.14807523071106 7.40728676076834 0 -1 0
631 0 1 -1.1794 15.92514301469371 19.511007749987478 6.621326070850808 0 -1 0
632 0 2 0.5897 16.431796618623007 18.720436893652888 7.005676738435283 0 -1 0
702 0 2 0.5897 14.536387773672175 18.416779423739367 6.126666660164209 -1 0 0
5 0 2 0.5897 2.5123725359771885 1.5476771635459052 9.07781099301978 1 1 0
4 0 1 -1.1794 2.687695766159078 1.6133765486397882 10.128860663108858 1 1 0
465 0 2 0.5897 4.213444661444908 2.8223357472814876 10.583183023329724 1 0 0
6 0 2 0.5897 1.8653307060162168 2.1243456364341373 10.431494898134005 1 1 0
463 0 1 -1.1794 4.6612660181725785 3.649098485785051 10.778236141604864 1 0 0
728 0 2 0.5897 0.8108863834296487 3.296015555254406 12.878899826820275 0 0 -1
667 0 1 -1.1794 0.35457006544109576 2.939198102653891 11.15252404750217 0 1 0
758 0 2 0.5897 4.353056229207994 4.382991146931167 9.109021053224486 1 0 0
22 0 1 -1.1794 7.26872957498925 0.9035206932098578 9.01307476279195 0 1 0
464 0 2 0.5897 5.501961766281847 3.3559424976672476 11.153381473671617 1 0 0
684 0 2 0.5897 7.639268743582548 2.1105768691735802 10.460225642810874 0 0 0
682 0 1 -1.1794 7.276823634514226 2.4464520339571463 11.278092410664286 0 0 0
683 0 2 0.5897 7.160449442392529 1.6505896018966624 11.803654486920436 0 0 0
14 0 2 0.5897 8.558017936308413 3.7088032875881307 12.376259942641626 -1 0 0
104 0 2 0.5897 6.088526313508336 4.495822880069652 12.7761790707292 1 0 1
576 0 2 0.5897 9.015177268989722 0.3668414207156689 9.503699987827696 0 1 0
575 0 2 0.5897 9.261786255316025 0.799891443778649 10.95095890469311 0 1 1
574 0 1 -1.1794 9.697673364265986 0.6108321752492758 10.135903535027545 0 1 0
379 0 1 -1.1794 11.532974826176748 2.625945273912134 9.103902873146723 0 0 0
381 0 2 0.5897 11.040571013222422 1.7683755431405697 9.287536638766124 0 0 0
515 0 2 0.5897 12.505589323287063 2.8753754198230808 11.801303405352048 -2 1 0
852 0 2 0.5897 11.142127503319214 1.3127041372285562 12.538824901884874 0 0 1
850 0 1 -1.1794 11.374293589546339 2.203316039320197 12.85409526200612 0 0 1
851 0 2 0.5897 10.620595553737758 2.763358002909897 12.688100926872586 0 0 1
516 0 2 0.5897 12.86239696460263 3.125778421116128 10.378249576571488 -2 1 0
514 0 1 -1.1794 13.196614193247056 3.2188499009431735 11.28147755414757 -2 1 0
13 0 1 -1.1794 9.221639326599215 4.381763117897784 12.472756143122844 0 0 0
801 0 2 0.5897 10.541591955467151 4.0407537630009305 9.585083855821328 -1 0 1
668 0 2 0.5897 17.71882379173339 3.7227018304265433 10.563136612976683 -1 1 0
236 0 2 0.5897 14.636563380722997 2.1841984147754587 11.523828385938476 1 0 0
669 0 2 0.5897 17.174560381764262 2.3913383802639525 11.238345409653723 -1 1 0
235 0 1 -1.1794 15.482938941705296 1.7908761392006671 11.725833450624942 1 0 0
237 0 2 0.5897 15.299589564258815 1.0289844513935122 12.32254467324508 1 0 0
207 0 2 0.5897 3.854976222652288 5.233621940961803 11.4607049550374 0 0 0
205 0 1 -1.1794 3.428666257866181 6.099555808554486 11.643322131712763 0 0 0
770 0 2 0.5897 3.935116573647882 7.440960096437398 10.245126882342342 1 1 0
206 0 2 0.5897 2.5259972746713135 6.071132065993081 11.317343024359008 0 0 0
769 0 1 -1.1794 4.080658052708961 8.222179767939764 9.694964504757113 1 1 0
86 0 2 0.5897 3.4837067164177906 7.185519677735905 13.205293899812618 1 0 0
196 0 1 -1.1794 0.6841827700157757 6.932024020449841 11.288398002433913 1 0 0
198 0 2 0.5897 0.45154463102917786 6.26591596153861 10.5795027376139 1 0 0
417 0 2 0.5897 9.046920987012145 7.9011752988336434 9.191755887178795 0 0 1
628 0 1 -1.1794 7.430035767423749 5.534444382258628 8.964596638907624 0 -1 0
771 0 2 0.5897 5.029883960600719 8.333469575016982 9.602959192150252 1 1 0
630 0 2 0.5897 8.329921903127019 5.287506649339565 9.385376975079302 0 -1 0