LAMMPS (29 Sep 2021 - Update 2)
  using 1 OpenMP thread(s) per MPI task
plugin load libdeepmd_lmp.so
Loading plugin: deepmd pair style v2.0 by Han Wang
Loading plugin: compute deeptensor/atom v2.0 by Han Wang
Loading plugin: fix dplr v2.0 by Han Wang
echo both

include		in.partitions
variable        pid world 0
include		in.temp
variable        temperature equal 260
variable        tempDamp equal 0.100
include		in.pressure
variable        pressure equal 1973.846
variable        pressureDamp equal 1.0 # This is 1 ps
include		in.seed
variable        seed world 745823

units           metal
atom_style	full
include		in.box
read_data       water.data
Reading data file ...
  orthogonal box = (0.0000000 0.0000000 0.0000000) to (18.207573 21.446115 22.213196)
  1 by 1 by 1 MPI processor grid
  reading atoms ...
  864 atoms
  reading velocities ...
  864 velocities
Finding 1-2 1-3 1-4 neighbors ...
  special bond factors lj:    0        0        0       
  special bond factors coul:  0        0        0       
     0 = max # of 1-2 neighbors
     0 = max # of 1-3 neighbors
     0 = max # of 1-4 neighbors
     1 = max # of special neighbors
  special bonds CPU = 0.000 seconds
  read_data CPU = 2.403 seconds
include 	in.setup
variable	out_freq equal 500
variable	out_freq2 equal 500

timestep        0.0005

neigh_modify    delay 7 every 1

include         in.deepmd
# This is deepMD model

# create groups ###
#group ox type 2
#group hy type 1

mass 2 15.999
mass 1 1.008

pair_style      deepmd ../graph.pb
pair_coeff      * *

bond_style      none
angle_style     none
dihedral_style  none
improper_style  none
neigh_modify exclude none


neighbor        2.0 bin
neigh_modify    every 10 delay 0 check no

thermo          ${out_freq}
thermo          500
thermo_style 	custom step temp pe etotal epair emol press lx ly lz xy xz yz vol pxx pyy pzz pxy pxz pyz cella cellb cellc cellalpha cellbeta cellgamma


restart 	${out_freq} restart.lmp.${pid} restart2.lmp.${pid}
restart 	500 restart.lmp.${pid} restart2.lmp.${pid}
restart 	500 restart.lmp.0 restart2.lmp.${pid}
restart 	500 restart.lmp.0 restart2.lmp.0


include         in.dump
dump            myDump all atom ${out_freq2} dump.water.${pid}
dump            myDump all atom 500 dump.water.${pid}
dump            myDump all atom 500 dump.water.0
dump            myDump2 all dcd ${out_freq2} dump.dcd
dump            myDump2 all dcd 500 dump.dcd
dump_modify     myDump append yes
dump_modify     myDump2 append yes


timer           timeout 23:50:00 every 1000
New timer settings: style=normal  mode=nosync  timeout=23:50:00

fix             2 all nph iso ${pressure} ${pressure} ${pressureDamp}
fix             2 all nph iso 1973.846 ${pressure} ${pressureDamp}
fix             2 all nph iso 1973.846 1973.846 ${pressureDamp}
fix             2 all nph iso 1973.846 1973.846 1
fix             3 all temp/csvr ${temperature} ${temperature} ${tempDamp} ${seed}
fix             3 all temp/csvr 260 ${temperature} ${tempDamp} ${seed}
fix             3 all temp/csvr 260 260 ${tempDamp} ${seed}
fix             3 all temp/csvr 260 260 0.1 ${seed}
fix             3 all temp/csvr 260 260 0.1 745823
velocity 	all create ${temperature} ${seed} dist gaussian
velocity 	all create 260 ${seed} dist gaussian
velocity 	all create 260 745823 dist gaussian

run             2000000

CITE-CITE-CITE-CITE-CITE-CITE-CITE-CITE-CITE-CITE-CITE-CITE-CITE

Your simulation uses code contributions which should be cited:

- USER-DEEPMD package:

@article{Wang_ComputPhysCommun_2018_v228_p178,
  author = {Wang, Han and Zhang, Linfeng and Han, Jiequn and E, Weinan},
  doi = {10.1016/j.cpc.2018.03.016},
  url = {https://doi.org/10.1016/j.cpc.2018.03.016},
  year = 2018,
  month = {jul},
  publisher = {Elsevier {BV}},
  volume = 228,
  journal = {Comput. Phys. Commun.},
  title = {{DeePMD-kit: A deep learning package for many-body potential energy representation and molecular dynamics}},
  pages = {178--184}
}

CITE-CITE-CITE-CITE-CITE-CITE-CITE-CITE-CITE-CITE-CITE-CITE-CITE

Neighbor list info ...
  update every 10 steps, delay 0 steps, check no
  max neighbors/atom: 2000, page size: 100000
  master list distance cutoff = 8
  ghost atom cutoff = 8
  binsize = 4, bins = 5 6 6
  1 neighbor lists, perpetual/occasional/extra = 1 0 0
  (1) pair deepmd, perpetual
      attributes: full, newton on
      pair build: full/bin
      stencil: full/bin/3d
      bin: standard
Per MPI rank memory allocation (min/avg/max) = 7.215 | 7.215 | 7.215 Mbytes
Step Temp PotEng TotEng E_pair E_mol Press Lx Ly Lz Xy Xz Yz Volume Pxx Pyy Pzz Pxy Pxz Pyz Cella Cellb Cellc CellAlpha CellBeta CellGamma 
       0          260    -134.9383   -105.93491    -134.9383            0     24562.63    18.207573    21.446115    22.213196            0            0            0    8673.8466    24437.109    25331.419    23919.362    1104.8735   -265.92244   -870.14307    18.207573    21.446115    22.213196           90           90           90 
     500    257.28009   -128.75096   -100.05098   -128.75096            0    -165.3781    18.173213    21.405643    22.171277            0            0            0    8624.8332    2645.2605   -2476.7902   -664.60462     1339.583   -1432.5168   -868.03854    18.173213    21.405643    22.171277           90           90           90 
    1000    258.06958   -126.47443   -97.686382   -126.47443            0    3980.5999    18.129097     21.35368    22.117455            0            0            0     8562.174    3513.4235    3981.2955    4447.0809   -1020.9657    1040.4542   -1580.4331    18.129097     21.35368    22.117455           90           90           90 
    1500    250.44441    -127.2904   -99.352948    -127.2904            0    1800.7774    18.106031    21.326512    22.089315            0            0            0    8529.5348    277.89854    1768.6911    3355.7427    150.19849   -214.02279   -1344.9455    18.106031    21.326512    22.089315           90           90           90 
    2000    249.64144   -124.29104   -96.443166   -124.29104            0   -2710.1506    18.026076    21.232336     21.99177            0            0            0    8417.0358   -2818.6856    -2680.438   -2631.3283    616.74092   -1641.2641    1364.6929    18.026076    21.232336     21.99177           90           90           90 
    2500    275.76032   -125.96412    -95.20264   -125.96412            0    4567.7435    18.012445     21.21628     21.97514            0            0            0    8397.9553     5965.513    5569.7692    2167.9482    211.91193    101.00379   -507.56002    18.012445     21.21628     21.97514           90           90           90 
    3000    259.34677   -124.88716   -95.956638   -124.88716            0    2180.6666    18.061242    21.273756    22.034672            0            0            0    8466.3921    2647.0613    3323.6951    571.24343    446.65009   -1017.9737   -135.57581    18.061242    21.273756    22.034672           90           90           90 
    3500    249.85295   -124.63644   -96.764963   -124.63644            0    4021.3511    17.951121    21.144048    21.900325            0            0            0    8312.4731    5113.8917    2779.5092    4170.6524    -275.9389    379.93857   -316.60841    17.951121    21.144048    21.900325           90           90           90 
    4000     255.5456   -125.29977   -96.793276   -125.29977            0    5058.4577    17.896714    21.079965    21.833949            0            0            0    8237.1217    2561.5561     6814.765    5799.0521     1847.653    1175.5156   -24.420966    17.896714    21.079965    21.833949           90           90           90 
    4500     255.9079   -124.97761   -96.430702   -124.97761            0    927.37598    17.902221    21.086451    21.840668            0            0            0    8244.7277     1538.338    424.07973    819.71019   -1877.8095    1504.9757   -1008.7298    17.902221    21.086451    21.840668           90           90           90 
    5000    271.29504   -127.14895   -96.885575   -127.14895            0    4666.1653    17.851107    21.026245    21.778308            0            0            0    8174.3082    3456.2711    4553.8841    5988.3407   -74.844143    353.11969    421.71363    17.851107    21.026245    21.778308           90           90           90 
    5500    245.74901    -124.6186    -97.20493    -124.6186            0   -833.86074    17.994821    21.195522    21.953639            0            0            0    8373.3293   -1465.2452   -753.50083   -282.83616   -2783.6146    1188.4791    1.7486032    17.994821    21.195522    21.953639           90           90           90 
    6000    262.10097   -125.88186   -96.644102   -125.88186            0    5811.2026    17.786405    20.950035    21.699372            0            0            0    8085.7459     5772.601    6970.7744    4690.2325   -1421.0966    1494.5513   -1890.9388    17.786405    20.950035    21.699372           90           90           90 
    6500    256.32299   -126.06095   -97.467734   -126.06095            0    3450.9609    17.843507    21.017294    21.769037            0            0            0    8163.8727    4863.3298    1428.9751    4060.5779    1066.6692   -183.73738    402.97714    17.843507    21.017294    21.769037           90           90           90 
    7000    261.29424   -125.47109   -96.323323   -125.47109            0   -143.03734    17.948321    21.140751     21.89691            0            0            0    8308.5852    1203.3685    506.18801   -2138.6685   -281.47269      2862.97   -258.14462    17.948321    21.140751     21.89691           90           90           90 
    7500     273.4517   -126.59034   -96.086396   -126.59034            0    1856.4968    17.898427    21.081982    21.836039            0            0            0    8239.4867    1339.5556    4400.2898   -170.35487    58.087251   -165.57451   -2638.7272    17.898427    21.081982    21.836039           90           90           90 
    8000    254.07787   -124.51061   -96.167845   -124.51061            0    2773.2559    17.769048     20.92959    21.678196            0            0            0     8062.097     5357.836     1445.775    1516.1568   -586.55054   -2442.2903     1050.885    17.769048     20.92959    21.678196           90           90           90 
    8500    248.28048   -125.02503    -97.32897   -125.02503            0    2491.0435    17.817956    20.987198    21.737865            0            0            0    8128.8524    1244.9711    4738.3326    1489.8267   -357.13753   -1468.9666    1563.1574    17.817956    20.987198    21.737865           90           90           90 
    9000     263.1587   -125.10202   -95.746276   -125.10202            0    1717.4926    17.833649    21.005682    21.757009            0            0            0    8150.3485    4671.5184   -1232.5396    1713.4991    1214.6098    3098.0437    1953.2082    17.833649    21.005682    21.757009           90           90           90 
    9500    263.68059   -124.81477   -95.400808   -124.81477            0    2110.1847    17.770003    20.930716    21.679362            0            0            0    8063.3979    2233.9228    4033.4877     63.14362    1313.1378    -587.7191    1197.7693    17.770003    20.930716    21.679362           90           90           90 
   10000     275.0972   -124.57659   -93.889085   -124.57659            0    4857.5124    17.717596    20.868987    21.615425            0            0            0     7992.266    4793.0927    5477.8699    4301.5747   -1075.8262   -1481.8388    252.65998    17.717596    20.868987    21.615425           90           90           90 
   10500    273.84146   -123.17692    -92.62949   -123.17692            0    621.03211    17.776438    20.938295    21.687212            0            0            0    8072.1606    1497.9051   -1432.6491    1797.8403    1542.2656    -287.1755    2005.8474    17.776438    20.938295    21.687212           90           90           90 
   11000    260.29421   -123.80569   -94.769477   -123.80569            0    21.264052    17.789303    20.953448    21.702908            0            0            0     8089.699    504.71399    638.34677   -1079.2686   -1079.1173   -1529.9859   -2062.5604    17.789303    20.953448    21.702908           90           90           90 
   11500    262.55362   -124.96379   -95.675539   -124.96379            0    1700.9007    17.707761    20.857402    21.603426            0            0            0    7978.9636    5164.8215    2547.7551   -2609.8744   -20.832563   -4058.7558    263.57839    17.707761    20.857402    21.603426           90           90           90 
   12000    270.01835   -124.26531    -94.14436   -124.26531            0    1820.6024    17.737387    20.892298     21.63957            0            0            0    8019.0791    867.37588    3069.6201    1524.8112    682.68411   -517.32263   -2555.5631    17.737387    20.892298     21.63957           90           90           90 
   12500    266.26832   -123.95905   -94.256419   -123.95905            0    1588.8255    17.746951    20.903564    21.651239            0            0            0    8032.0581    1288.2525    669.93169    2808.2923   -804.92257   -33.775689   -883.33702    17.746951    20.903564    21.651239           90           90           90 
   13000    269.66712   -124.45728   -94.375508   -124.45728            0    1945.6359    17.676336    20.820388    21.565088            0            0            0    7936.5596    557.71949    4851.2433    427.94478    885.93778   -526.47634    208.82067    17.676336    20.820388    21.565088           90           90           90 
   13500    260.36285   -126.11471   -97.070838   -126.11471            0    775.99593    17.715142    20.866096    21.612431            0            0            0    7988.9455    1794.3597    2469.1007   -1935.4726    2416.5969    1544.9603    510.79752    17.715142    20.866096    21.612431           90           90           90 
   14000    256.71817   -125.79633   -97.159034   -125.79633            0     2299.793    17.646518    20.785266     21.52871            0            0            0    7896.4632    443.15987    4059.8131    2396.4061   -134.47188     -2959.93    344.96449    17.646518    20.785266     21.52871           90           90           90 
   14500    257.54341   -127.27919   -98.549839   -127.27919            0    1399.3378    17.635613    20.772421    21.515406            0            0            0    7881.8326    371.80206    3659.9622    166.24907    327.67073    1120.8278   -3214.5407    17.635613    20.772421    21.515406           90           90           90 
   15000    253.12147   -125.07775   -96.841667   -125.07775            0    323.91314    17.798078    20.963783    21.713612            0            0            0    8101.6754    634.59078    962.08881   -624.94015    1089.9599   -2034.2327    1110.5683    17.798078    20.963783    21.713612           90           90           90 
   15500    254.73674   -124.63543   -96.219163   -124.63543            0     4475.795     17.64212    20.780087    21.523345            0            0            0    7890.5615    3486.7692    8733.0861    1207.5296    -839.3371   -790.45763    271.56703     17.64212    20.780087    21.523345           90           90           90 
   16000    263.16093   -125.82491   -96.468913   -125.82491            0    839.59865    17.691596    20.838362    21.583705            0            0            0    7957.1328     3485.223    1598.1479    -2564.575    1646.6923   -15.130871   -241.85562    17.691596    20.838362    21.583705           90           90           90 
   16500    268.21036   -126.25253   -96.333262   -126.25253            0     4021.734    17.758849    20.917577    21.665754            0            0            0    8048.2228    3999.4886    7064.7335    1000.9801    613.43417    1003.3273    223.82341    17.758849    20.917577    21.665754           90           90           90 
   17000    263.76417   -125.75713   -96.333836   -125.75713            0      6290.11    17.695958      20.8435    21.589027            0            0            0    7963.0194    7317.5118    6322.4262    5230.3921   -142.95764    1773.9168   -235.29262    17.695958      20.8435    21.589027           90           90           90 
   17500    267.19677    -126.1852   -96.378996    -126.1852            0    1545.5162    17.680587    20.825395    21.570274            0            0            0    7942.2871   -559.28891    814.26302    4381.5746    528.55439    1986.6718    1030.7263    17.680587    20.825395    21.570274           90           90           90 
   18000    258.48194   -127.09082   -98.256769   -127.09082            0    2008.9904    17.730587    20.884288    21.631274            0            0            0     8009.859    2717.8913     774.7087    2534.3713   -98.952479    353.05673    60.583406    17.730587    20.884288    21.631274           90           90           90 
   18500    265.19245    -126.4643    -96.88168    -126.4643            0    2362.7414    17.733713     20.88797    21.635087            0            0            0    8014.0963    6998.0611    116.63299    -26.47002    1529.1839   -3869.4939   -517.42929    17.733713     20.88797    21.635087           90           90           90 
   19000    254.63515   -125.61109   -97.206157   -125.61109            0    1164.0875    17.804017     20.97078    21.720859            0            0            0    8109.7895   -1028.3327     3770.414    750.18109   -1110.5368   -1866.7646    1343.2384    17.804017     20.97078    21.720859           90           90           90 
   19500    260.84109   -125.78137   -96.684151   -125.78137            0    269.54868     17.81261    20.980901    21.731342            0            0            0    8121.5375   -3710.6246    2516.9383    2002.3323    1208.2331    1209.6114   -21.400254     17.81261    20.980901    21.731342           90           90           90 
   20000    251.30891   -126.00724   -97.973349   -126.00724            0    2002.6215    17.756079    20.914315    21.662375            0            0            0    8044.4579    1730.1857    525.34443    3752.3343    484.36234    48.282765   -147.63782    17.756079    20.914315    21.662375           90           90           90 
   20500    253.01406   -126.41364   -98.189538   -126.41364            0    30.199276    17.664366    20.806289    21.550485            0            0            0    7920.4477   -524.13176    1134.4217   -519.69215    619.51566     365.2579   -556.45629    17.664366    20.806289    21.550485           90           90           90 
   21000    252.32704   -126.32079    -98.17333   -126.32079            0    94.509721    17.684829    20.830391    21.575449            0            0            0    7948.0051     3001.815   -2632.6812   -85.604667   -201.69209   -2475.7309   -452.03709    17.684829    20.830391    21.575449           90           90           90 
   21500    247.47311   -126.09909   -98.493088   -126.09909            0    2201.3462    17.705851    20.855153    21.601097            0            0            0     7976.383    4745.5656   -406.62408    2265.0972    1593.5675   -681.64481    3501.3019    17.705851    20.855153    21.601097           90           90           90 
   22000    260.50136   -126.06092     -97.0016   -126.06092            0    2125.9379    17.654156    20.794263    21.538028            0            0            0    7906.7213    -1456.909    1123.6974    6711.0254   -1875.3709    1410.9747   -781.20936    17.654156    20.794263    21.538028           90           90           90 
   22500    252.25507   -125.15925   -97.019812   -125.15925            0   -1036.8202    17.676454    20.820527    21.565232            0            0            0    7936.7189   -1038.3187   -1371.3603   -700.78158    450.46515    1188.8503    638.11987    17.676454    20.820527    21.565232           90           90           90 
   23000    262.95908   -126.52853   -97.195048   -126.52853            0    3893.4569    17.576692     20.70302    21.443522            0            0            0     7803.096     3326.838    3719.2733    4634.2593   -422.97632    2809.3613    614.61899    17.576692     20.70302    21.443522           90           90           90 
   23500    254.23838   -124.45683   -96.096161   -124.45683            0    1757.9181    17.662974    20.804649    21.548786            0            0            0    7918.5748    2496.6016   -251.98898    3029.1416   -472.13775    1533.3344    623.07287    17.662974    20.804649    21.548786           90           90           90 
   24000    272.88555   -124.65361   -94.212817   -124.65361            0    118.63294    17.711478    20.861781    21.607961            0            0            0    7983.9898      1923.71   -1047.1324   -520.67882     120.2622   -502.79411    1767.4752    17.711478    20.861781    21.607961           90           90           90 
   24500    256.28182   -124.81901   -96.230388   -124.81901            0    1545.3911    17.569777    20.694876    21.435087            0            0            0    7793.8908    2354.9421   -3151.7336    5432.9648   -2241.8478   -824.43981    1195.3318    17.569777    20.694876    21.435087           90           90           90 
   25000    272.56139   -125.56356   -95.158923   -125.56356            0    3610.3227    17.613425    20.746287    21.488337            0            0            0    7852.1217    7043.4515    5349.3966     -1561.88    -1956.731     1384.061   -886.66219    17.613425    20.746287    21.488337           90           90           90 
   25500    256.01172   -123.26161   -94.703113   -123.26161            0   -1090.5911    17.673754    20.817347    21.561939            0            0            0    7933.0831   -558.18218    689.48237   -3403.0736    50.186838    772.11253   -166.36979    17.673754    20.817347    21.561939           90           90           90 
   26000    272.11126   -124.75798   -94.403559   -124.75798            0    5609.7963    17.586385    20.714437    21.455348            0            0            0     7816.013    5964.0791    5357.0463    5508.2635      99.0785    324.83093    2429.0338    17.586385    20.714437    21.455348           90           90           90 
   26500    246.84209   -123.97145   -96.435844   -123.97145            0    304.43896    17.725482    20.878275    21.625046            0            0            0    8002.9428   -1232.2786    1267.8413    877.75416    1676.6279    1844.4155    1110.8474    17.725482    20.878275    21.625046           90           90           90 
   27000    272.50889   -125.06693   -94.668157   -125.06693            0    2069.5747    17.720518    20.872429     21.61899            0            0            0    7996.2212    2962.0874    75.567895    3171.0688    1745.6039   -1707.6046   -934.11095    17.720518    20.872429     21.61899           90           90           90 
   27500    267.09342   -125.36576   -95.571083   -125.36576            0   -330.46332    17.593711    20.723067    21.464286            0            0            0    7825.7851   -722.20646   -38.729125   -230.45438    384.61493   -1072.4885    26.131259    17.593711    20.723067    21.464286           90           90           90 
   28000     259.7009   -125.42259   -96.452562   -125.42259            0     2475.678    17.570935     20.69624      21.4365            0            0            0    7795.4324     6093.412    188.20778    1145.4141     3520.792   -1507.2682     2034.116    17.570935     20.69624      21.4365           90           90           90 
   28500    259.88048    -124.1801    -95.19004    -124.1801            0   -544.16817     17.68154    20.826518    21.571437            0            0            0    7943.5721    2391.9601   -4185.4182    160.95357    -2638.568    -44.65766    -1207.754     17.68154    20.826518    21.571437           90           90           90 
   29000    259.50113   -125.21448   -96.266742   -125.21448            0     1785.955    17.642433    20.780454    21.523726            0            0            0    7890.9803     1601.629    4737.7601   -981.52412    755.46436    2086.3882    703.08674    17.642433    20.780454    21.523726           90           90           90 
   29500    270.93306   -124.95439   -94.731404   -124.95439            0    2757.7954    17.547701    20.668873    21.408154            0            0            0    7764.5495     280.4912    5041.4008    2951.4943    1367.2912   -1403.0981   -237.62734    17.547701    20.668873    21.408154           90           90           90 
   30000      268.819   -122.44146     -92.4543   -122.44146            0    2475.2284    17.624189    20.758966    21.501469            0            0            0    7866.5261    1913.1567   -503.18987    6015.7184    3679.0342    842.92639    1249.6889    17.624189    20.758966    21.501469           90           90           90 
   30500    265.73785   -123.88358   -94.240126   -123.88358            0    258.35858    17.699368    20.847517    21.593187            0            0            0    7967.6242    1618.3932    1355.6077   -2198.9251   -891.64365   -993.68758    497.82811    17.699368    20.847517    21.593187           90           90           90 
   31000    276.19285   -125.35206    -94.54233   -125.35206            0    1109.9374    17.619572    20.753528    21.495836            0            0            0    7860.3453    1709.1483    1561.0298    59.634006   -692.57363      -2039.2    -1789.327    17.619572    20.753528    21.495836           90           90           90 
   31500    266.81323   -124.87039   -95.106976   -124.87039            0    4724.5894    17.720781    20.872739    21.619311            0            0            0    7996.5777    5293.7286    3080.5451    5799.4946    877.03401   -524.07734     1504.469    17.720781    20.872739    21.619311           90           90           90 
   32000    268.59326   -125.99479   -96.032803   -125.99479            0    141.31282    17.713657    20.864347    21.610619            0            0            0    7986.9363    1306.1846    1029.2553   -1911.5014    1402.7799    -1304.597    922.99297    17.713657    20.864347    21.610619           90           90           90 
   32500    266.23467   -125.63741   -95.938531   -125.63741            0    2231.2303    17.600122    20.730618    21.472107            0            0            0    7834.3435     2249.913   -20.131826    4463.9096    -277.0158     1370.399   -2008.9544    17.600122    20.730618    21.472107           90           90           90 
   33000    265.38026    -125.7702   -96.166637    -125.7702            0    -1092.652    17.630778    20.766727    21.509508            0            0            0    7875.3524   -811.12342   -3014.4281    547.59562    355.32147     120.6889    284.05803    17.630778    20.766727    21.509508           90           90           90 
   33500    253.76682   -124.49676   -96.188691   -124.49676            0    925.32554    17.650133    20.789525    21.533121            0            0            0    7901.3176    2621.2667   -1603.9997    1758.7097     1559.162    728.27968   -1019.7338    17.650133    20.789525    21.533121           90           90           90 
   34000    256.06937   -126.77456   -98.209633   -126.77456            0    3854.3929    17.593561     20.72289    21.464102            0            0            0    7825.5846    710.02207    10292.927    560.22995   -626.93479     1127.135   -198.64041    17.593561     20.72289    21.464102           90           90           90 
   34500    256.95303   -128.28671   -99.623215   -128.28671            0    4605.8527     17.53871    20.658283    21.397185            0            0            0    7752.6202    2006.8511    6483.0454    5327.6617    1215.0821    1677.1134    1621.5835     17.53871    20.658283    21.397185           90           90           90 
   35000    256.72588   -128.66586    -100.0277   -128.66586            0    2966.4445     17.55573    20.678331     21.41795            0            0            0    7775.2125    3395.0483    2542.0049    2962.2802   -1759.1414    955.97458   -2691.9102     17.55573    20.678331     21.41795           90           90           90 
   35500    247.85823    -126.8616   -99.212644    -126.8616            0   -548.26811    17.646692    20.785471    21.528923            0            0            0    7896.6971    15.676519     1660.172   -3320.6529    3383.2366   -2369.6676    805.84262    17.646692    20.785471    21.528923           90           90           90 
   36000    245.82676   -126.20804   -98.785691   -126.20804            0    1812.3612    17.648973    20.788158    21.531705            0            0            0    7899.7592    1706.6646    1687.2404    2043.1787   -402.47766    1171.0005   -1730.8641    17.648973    20.788158    21.531705           90           90           90 
   36500    262.94781   -126.91287   -97.580643   -126.91287            0    3184.7426    17.602639    20.733583    21.475178            0            0            0    7837.7051    4996.3486    1291.6072    3266.2719    513.98401    875.53016    860.32858    17.602639    20.733583    21.475178           90           90           90 
   37000    265.13753   -127.18453    -97.60804   -127.18453            0    1302.7706     17.61777    20.751405    21.493637            0            0            0    7857.9334    661.28108    2180.2996    1066.7309    691.60182   -673.26593    397.47602     17.61777    20.751405    21.493637           90           90           90 
   37500    261.44403    -126.6892   -97.524727    -126.6892            0    -910.7253    17.718815    20.870423    21.616913            0            0            0    7993.9162   -165.75536   -1635.6514   -930.76909    298.27111   -2524.1755    290.16542    17.718815    20.870423    21.616913           90           90           90 
   38000    261.54299    -125.5309    -96.35539    -125.5309            0    1799.3915    17.668568    20.811238    21.555611            0            0            0    7926.1014   -591.91409    1853.3432    4136.7454    1331.8186    2188.5199   -3519.8618    17.668568    20.811238    21.555611           90           90           90 
   38500    262.74856   -126.45093   -97.140934   -126.45093            0    2756.7964    17.574524    20.700467    21.440878            0            0            0    7800.2098    4903.4137    3079.8039    287.17148   -2055.7994    703.36201   -176.69114    17.574524    20.700467    21.440878           90           90           90 
   39000    258.93016   -126.69689   -97.812839   -126.69689            0    2212.9233     17.65078    20.790286     21.53391            0            0            0    7902.1861    3002.3214    174.77846      3461.67    825.46837   -2117.6916   -978.59402     17.65078    20.790286     21.53391           90           90           90 
   39500    262.14362   -126.67766   -97.435147   -126.67766            0    2106.8528    17.690552    20.837133    21.582432            0            0            0    7955.7246   -1387.1519    2863.7971    4843.9132    632.23665   -1701.9079   -1702.2322    17.690552    20.837133    21.582432           90           90           90 
   40000    249.11691   -125.96267   -98.173301   -125.96267            0    105.19676    17.685067    20.830672     21.57574            0            0            0    7948.3268   -1303.8695    2830.5727   -1211.1129   -2879.3189   -1159.0558    3170.2855    17.685067    20.830672     21.57574           90           90           90 
   40500    253.85751   -127.19464   -98.876448   -127.19464            0    5144.7031    17.655564    20.795922    21.539747            0            0            0    7908.6137    6434.5247    3474.9137    5524.6711   -1267.5061    1502.9011    1262.5117    17.655564    20.795922    21.539747           90           90           90 
   41000    263.95831   -127.54066   -98.095711   -127.54066            0   -383.75974    17.723397     20.87582    21.622503            0            0            0    8000.1195   -2869.0646    227.93272    1489.8526    1789.8127    606.15523      1257.24    17.723397     20.87582    21.622503           90           90           90 
   41500    255.85129   -126.25071   -97.710109   -126.25071            0    533.51728    17.709386    20.859316    21.605409            0            0            0    7981.1604    2621.4164   -432.59078    -588.2738    1941.2357    2006.8131    2486.8314    17.709386    20.859316    21.605409           90           90           90 
   42000    253.90616   -125.16414    -96.84053   -125.16414            0    4683.4515    17.618112    20.751808    21.494055            0            0            0    7858.3916    4035.9783    4509.0799    5505.2963     4209.264   -478.02099    3429.7139    17.618112    20.751808    21.494055           90           90           90 
   42500    264.40078   -126.13185   -96.637545   -126.13185            0    1029.3339    17.730331    20.883988    21.630962            0            0            0    8009.5133    1368.2218   -315.98741    2035.7672   -2702.8446    -957.2526   -1175.6223    17.730331    20.883988    21.630962           90           90           90 
   43000    260.43372   -126.07711    -97.02534   -126.07711            0     455.1863    17.718737     20.87033    21.616817            0            0            0      7993.81    2209.4277    1307.5491   -2151.4179   -1864.8242    1902.1803    1416.4619    17.718737     20.87033    21.616817           90           90           90 
   43500    264.31527   -127.52387   -98.039105   -127.52387            0    791.21154    17.620741    20.754904    21.497262            0            0            0    7861.9094   -1484.7051    3162.2274    696.11238    1011.7627   -1619.8703    3607.0194    17.620741    20.754904    21.497262           90           90           90 
   44000    268.15118   -127.60391   -97.691242   -127.60391            0    2512.5364    17.612576    20.745288    21.487301            0            0            0    7850.9864    5998.0897    -228.7179    1768.2374    545.97237    1216.9636   -2381.7164    17.612576    20.745288    21.487301           90           90           90 
   44500    252.01001   -126.02034   -97.908247   -126.02034            0    805.53191    17.706854    20.856334     21.60232            0            0            0    7977.7383   -270.35918    4567.7636   -1880.8087   -1553.6861    1108.5471   -801.95248    17.706854    20.856334     21.60232           90           90           90 
   45000    251.73797   -128.05521   -99.973463   -128.05521            0    1734.9389    17.673684    20.817264    21.561852            0            0            0    7932.9878    3536.0638    43.544961    1625.2078   -2014.9868    1134.8752    -1760.806    17.673684    20.817264    21.561852           90           90           90 
   45500     253.1074   -128.08318   -99.848669   -128.08318            0    1942.4918    17.681618    20.826609    21.571532            0            0            0    7943.6768    2164.6926    5287.4952   -1624.7122   -1280.2083    820.26084   -710.67115    17.681618    20.826609    21.571532           90           90           90 
   46000    265.34426   -127.88259    -98.28304   -127.88259            0    2888.5982    17.728856     20.88225    21.629162            0            0            0    8007.5138    2815.0608    4670.2766    1180.4573   -1003.9987   -1029.6535    2380.4899    17.728856     20.88225    21.629162           90           90           90 
   46500    255.04931   -126.68359   -98.232457   -126.68359            0    2294.0997    17.710311    20.860406    21.606538            0            0            0    7982.4117    1871.3896    1353.1006    3657.8089   -1676.7615    2764.6388   -128.41707    17.710311    20.860406    21.606538           90           90           90 
   47000    255.43518   -126.90128   -98.407101   -126.90128            0    4448.5266     17.77117     20.93209    21.680786            0            0            0    8064.9864    3205.7622    6716.5822    3423.2355      321.981   -732.43547    1307.4613     17.77117     20.93209    21.680786           90           90           90 
   47500    265.49126   -126.88947   -97.273523   -126.88947            0    1064.1005    17.803886    20.970625    21.720699            0            0            0    8109.6101    990.42084    374.01671     1827.864    1390.7962    1313.6651   -2843.9955    17.803886    20.970625    21.720699           90           90           90 
   48000    269.40862   -127.44582   -97.392888   -127.44582            0    1856.1259    17.618893    20.752727    21.495008            0            0            0    7859.4363    3038.4947     3024.337   -494.45403    817.38202    131.62743    2804.6638    17.618893    20.752727    21.495008           90           90           90 
   48500    257.40089   -126.47524   -97.761781   -126.47524            0    3512.0189    17.735292     20.88983    21.637014            0            0            0    8016.2372    4984.6484    6055.9917   -504.58357    332.17501    63.488347   -562.15026    17.735292     20.88983    21.637014           90           90           90 
   49000    269.56214    -125.9311   -95.861036    -125.9311            0    3947.6779    17.785225    20.948645    21.697933            0            0            0    8084.1372    2357.2138    4383.5906    5102.2292    16.791108    4241.4606   -524.92871    17.785225    20.948645    21.697933           90           90           90 
   49500    272.53866   -123.87562    -93.47352   -123.87562            0    3059.0267    17.593081    20.722325    21.463517            0            0            0    7824.9446    4295.1305    1266.6267    3615.3229    131.64465   -1543.8054   -2396.7956    17.593081    20.722325    21.463517           90           90           90 
   50000    262.93795   -125.69843   -96.367308   -125.69843            0   -196.61249    17.715982    20.867086    21.613456            0            0            0    7990.0826    1126.8688    2521.2816   -4237.9878     491.6345    3680.0722   -1937.1478    17.715982    20.867086    21.613456           90           90           90 
   50500    256.49907   -126.29918   -97.686321   -126.29918            0    1627.5387    17.704934    20.854072    21.599977            0            0            0    7975.1431    1894.7893    213.46883    2774.3579   -2668.2489    -260.2297    3146.0564    17.704934    20.854072    21.599977           90           90           90 
   51000    257.26089   -125.60689   -96.909046   -125.60689            0   -14.839263    17.712659    20.863172    21.609402            0            0            0    7985.5873    2878.1557   -2222.6381   -700.03533   -1384.3432    2208.7934     1565.035    17.712659    20.863172    21.609402           90           90           90 
   51500    260.34769   -127.57331   -98.531134   -127.57331            0   -931.46895     17.82687    20.997698     21.74874            0            0            0    8141.0586   -3823.4362   -301.98229    1331.0117   -1204.7038   -281.06656    15.914704     17.82687    20.997698     21.74874           90           90           90 
   52000    257.19395   -128.38136   -99.690983   -128.38136            0    1814.5106    17.732413     20.88644    21.633502            0            0            0    8012.3348    5121.1479    207.64679    114.73709    2299.5327   -1481.7753   -450.54273    17.732413     20.88644    21.633502           90           90           90 
   52500    265.20165   -126.67485    -97.09121   -126.67485            0    1786.3855    17.698533    20.846533    21.592168            0            0            0     7966.496   -2052.7613    3212.3559    4199.5619   -975.86867    585.95691    737.22349    17.698533    20.846533    21.592168           90           90           90 
   53000    258.28826   -127.07205   -98.259611   -127.07205            0    1972.6497    17.747452    20.904153    21.651849            0            0            0    8032.7378    2328.7927    1578.8315    2010.3251   -1369.4669    101.78874    436.37751    17.747452    20.904153    21.651849           90           90           90 
   53500    254.78061   -126.28584    -97.86468   -126.28584            0    1680.9824     17.70872    20.858533    21.604597            0            0            0    7980.2611    1204.9624    3465.6286    372.35632   -979.71336   -1123.0517   -595.07127     17.70872    20.858533    21.604597           90           90           90 
   54000    262.83494    -126.2818   -96.962164    -126.2818            0    2774.8007    17.661671    20.803115    21.547197            0            0            0    7916.8234    4533.4254    5529.0383   -1738.0615   -3.1948623    694.79317    3025.3025    17.661671    20.803115    21.547197           90           90           90 
   54500    251.31057   -128.53753   -100.50346   -128.53753            0    1685.7382    17.731175    20.884982    21.631992            0            0            0     8010.657    984.93987    3407.2485    665.02634      1425.24   -2687.2557    19.941897    17.731175    20.884982    21.631992           90           90           90 
   55000    259.56469   -127.48637   -98.531536   -127.48637            0    4648.5035    17.730732     20.88446    21.631451            0            0            0    8010.0565    4666.4582    4813.2966    4465.7557   -1019.5475    744.47221    3131.7624    17.730732     20.88446    21.631451           90           90           90 
   55500    262.02415   -128.51945   -99.290267   -128.51945            0   -275.57345    17.575358    20.701449    21.441895            0            0            0    7801.3198   -2376.0399    2066.9005   -517.58096    384.46972    194.84797    3588.3409    17.575358    20.701449    21.441895           90           90           90 
   56000    268.02405   -126.67539   -96.776907   -126.67539            0    987.36288    17.637806    20.775005    21.518081            0            0            0    7884.7736    244.57634    4688.1818   -1970.6695    1762.3264    2779.7973    1064.3259    17.637806    20.775005    21.518081           90           90           90 
   56500    260.00525   -125.26022   -96.256245   -125.26022            0   -429.49723     17.74142    20.897048     21.64449            0            0            0    8024.5494   -2769.5646    1068.4425    412.63042    163.50292    1100.8623    1353.2481     17.74142    20.897048     21.64449           90           90           90 
   57000    264.98794   -126.83608   -97.276272   -126.83608            0    746.74413    17.713303     20.86393    21.610188            0            0            0     7986.458    112.16517     2898.945   -770.87783   -1335.5624   -2554.9724   -498.58615    17.713303     20.86393    21.610188           90           90           90 
   57500    264.71387   -127.02427   -97.495042   -127.02427            0    3017.4037    17.650768    20.790272    21.533895            0            0            0    7902.1703    947.55618    2375.3292    5729.3255   -722.32189    2749.3455    1547.1094    17.650768    20.790272    21.533895           90           90           90 
   58000    247.90594   -125.46078     -97.8065   -125.46078            0    2716.1473    17.701488    20.850014    21.595773            0            0            0    7970.4874    1558.7479    3366.0926    3223.6013   -1113.3925    171.05614    1500.4461    17.701488    20.850014    21.595773           90           90           90 
   58500    258.10416   -127.14201   -98.350104   -127.14201            0    314.04376    17.764658     20.92442    21.672841            0            0            0    8056.1234    378.62427   -1300.4459    1863.9529   -918.87849    5305.8215   -167.78386    17.764658     20.92442    21.672841           90           90           90 
   59000    259.25567   -126.18804   -97.267678   -126.18804            0   -416.92928    17.766883     20.92704    21.675555            0            0            0    8059.1508    2021.3029   -1973.6302   -1298.4605    131.91417    183.88552    -3295.371    17.766883     20.92704    21.675555           90           90           90 
   59500    261.83547   -126.99665   -97.788505   -126.99665            0    2.2982309    17.786377    20.950001    21.699337            0            0            0    8085.7071   -5122.8859     2524.206    2605.5745    189.19523   -2187.6678    163.61627    17.786377    20.950001    21.699337           90           90           90 
   60000    257.25255   -127.05882   -98.361911   -127.05882            0   -62.448531    17.855045    21.030884    21.783113            0            0            0    8179.7194   -1762.3349   -1150.6303    2725.6196   -2329.2982    1765.4173   -577.59181    17.855045    21.030884    21.783113           90           90           90 
   60500    257.70001    -127.7016   -98.954773    -127.7016            0    4720.5306    17.730334     20.88399    21.630965            0            0            0    8009.5162    3037.8457     3357.402    7766.3441    2081.3145    2538.7791   -445.51496    17.730334     20.88399    21.630965           90           90           90 
   61000    265.23429   -127.89986   -98.312572   -127.89986            0    2029.4903    17.802131    20.968557    21.718557            0            0            0    8107.2116    1377.1038    3327.6493    1383.7176     44.54551   -1176.7874   -1959.4669    17.802131    20.968557    21.718557           90           90           90 
   61500    263.92419   -126.30154   -96.860398   -126.30154            0   -47.212284    17.745874    20.902294    21.649924            0            0            0    8030.5947   -655.57384   -404.91861     918.8556    1887.9604    1711.9752    1023.8372    17.745874    20.902294    21.649924           90           90           90 
   62000    262.25913   -125.52255   -96.267154   -125.52255            0    2342.4761    17.653726    20.793757    21.537505            0            0            0    7906.1443    1030.4148    1993.8587    4003.1549    1764.9126   -985.13393    637.99024    17.653726    20.793757    21.537505           90           90           90 
   62500     263.8458   -127.02239    -97.58999   -127.02239            0    3428.5812    17.673462    20.817003    21.561582            0            0            0    7932.6896    4047.3041    1704.3061    4534.1334    2132.3512    1430.3975    -1510.548    17.673462    20.817003    21.561582           90           90           90 
   63000    265.38183   -124.59419   -94.990449   -124.59419            0    1353.4645    17.782797    20.945786    21.694971            0            0            0     8080.827   -2142.5267     1266.312    4936.6081   -300.16469    481.76945    175.49733    17.782797    20.945786    21.694971           90           90           90 
   63500     253.2442   -124.98049   -96.730722   -124.98049            0    2676.1968    17.717755    20.869174    21.615619            0            0            0    7992.4813    4136.8226   -763.46493    4655.2327    1693.5354    777.80703   -2350.8912    17.717755    20.869174    21.615619           90           90           90 
   64000    259.29501   -124.88395   -95.959206   -124.88395            0    2242.4374    17.705856    20.855158    21.601102            0            0            0    7976.3889   -862.29583    3478.5643    4111.0436    188.07739    1932.4025   -909.65272    17.705856    20.855158    21.601102           90           90           90 
   64500    253.48729   -124.48312   -96.206228   -124.48312            0     433.1628    17.710635    20.860787    21.606933            0            0            0    7982.8495    445.50371    1131.0119   -277.02722   -135.85692    135.27961    589.64134    17.710635    20.860787    21.606933           90           90           90 
   65000    248.21212   -125.91021   -98.221776   -125.91021            0   -2349.6908    17.709236     20.85914    21.605226            0            0            0    7980.9584    -2655.682    -3244.967   -1148.4234   -571.61395    676.69401   -630.39475    17.709236     20.85914    21.605226           90           90           90 
   65500    260.80724   -127.06966   -97.976218   -127.06966            0    2301.8086    17.708359    20.858106    21.604156            0            0            0    7979.7719    -45.86366    4472.1216    2479.1678    1674.8076   -977.58223     27.09503    17.708359    20.858106    21.604156           90           90           90 
   66000     266.4596   -125.66953   -95.945563   -125.66953            0    3075.2041    17.655646    20.796018    21.539846            0            0            0    7908.7234    4816.4314    2612.4638    1796.7172    877.31809   -1591.2719    1992.8522    17.655646    20.796018    21.539846           90           90           90 
   66500    262.19385   -125.37909   -96.130975   -125.37909            0    869.08212    17.746271    20.902763    21.650409            0            0            0    8031.1349     1821.519   -134.33632    920.06369     750.8465    1283.4593   -705.01461    17.746271    20.902763    21.650409           90           90           90 
   67000    255.74341   -125.95913    -97.43057   -125.95913            0    4451.3639    17.731108    20.884902     21.63191            0            0            0    8010.5655    6750.3919    4852.5723    1751.1274   -1958.0109     1643.003    170.83027    17.731108    20.884902     21.63191           90           90           90 
   67500    253.55833   -126.23413   -97.949317   -126.23413            0    3087.5428    17.607103     20.73884    21.480624            0            0            0     7843.669    20.479016    5036.5445    4205.6049   -1459.1925   -2481.3643   -904.48257    17.607103     20.73884    21.480624           90           90           90 
   68000    261.36456   -127.21228    -98.05667   -127.21228            0   -627.92222    17.712594    20.863095    21.609323            0            0            0    7985.4994    343.40003   -2309.6483    82.481555    1352.3783      747.252   -5204.9158    17.712594    20.863095    21.609323           90           90           90 
   68500     261.0312   -126.29088   -97.172459   -126.29088            0    377.92202    17.736465    20.891212    21.638445            0            0            0    8017.8279   -410.44814   -64.698813     1608.913     1211.217   -902.21435    1184.0332    17.736465    20.891212    21.638445           90           90           90 
   69000    249.70076   -127.36455   -99.510056   -127.36455            0    1308.0529     17.66659    20.808908    21.553198            0            0            0    7923.4394    220.32284    1679.1905    2024.6453    -2219.686   -344.45188   -344.30084     17.66659    20.808908    21.553198           90           90           90 
   69500    263.25225   -128.21653   -98.850345   -128.21653            0    4037.6705    17.649523    20.788806    21.532376            0            0            0    7900.4981    2021.3121    5215.8298    4875.8697   -702.23568    1306.5573   -1550.3503    17.649523    20.788806    21.532376           90           90           90 
   70000    256.65706   -127.18794   -98.557458   -127.18794            0   -125.72202    17.664148    20.806032    21.550218            0            0            0    7920.1538   -240.53898   -426.99453    290.36744   -465.02391    2411.9527   -2180.3546    17.664148    20.806032    21.550218           90           90           90 
   70500     263.3546   -128.52285   -99.145246   -128.52285            0    3610.7007    17.646353    20.785072    21.528509            0            0            0    7896.2425    3160.2952    3799.0584    3872.7485   -605.33318   -992.52762     1791.364    17.646353    20.785072    21.528509           90           90           90 
   71000    260.47715   -128.27418   -99.217561   -128.27418            0   -1050.2556    17.645773    20.784388    21.527801            0            0            0    7895.4629   -1820.5401    62.107747   -1392.3343   -497.75596   -1013.0381   -93.032651    17.645773    20.784388    21.527801           90           90           90 
   71500    255.65131   -127.47901   -98.960721   -127.47901            0    1109.0924    17.651844     20.79154    21.535208            0            0            0    7903.6157    344.60517   -1196.6315    4179.3035   -132.68342   -31.459135    956.52779    17.651844     20.79154    21.535208           90           90           90 
   72000    270.00025   -125.30266   -95.183721   -125.30266            0    3674.2402    17.732912    20.887027    21.634111            0            0            0    8013.0111    5251.1373    3707.5967    2063.9864    1447.2707    2041.0796    -3394.357    17.732912    20.887027    21.634111           90           90           90 
   72500    257.53093   -125.49249   -96.764527   -125.49249            0    322.52174    17.741475    20.897113    21.644557            0            0            0    8024.6244    454.74017    1618.9301    -1106.105   -2450.8385    -995.3089    61.160997    17.741475    20.897113    21.644557           90           90           90 
   73000    259.58109    -127.2171   -98.260441    -127.2171            0    2981.8335    17.686291    20.832113    21.577233            0            0            0    7949.9765    5789.5208    1866.9583    1289.0213   -706.61809    1233.2414   -1130.7992    17.686291    20.832113    21.577233           90           90           90 
   73500    268.27511   -128.34289   -98.416398   -128.34289            0    2474.8345    17.734211    20.888557    21.635695            0            0            0    8014.7719    79.244301    5313.4526    2031.8065    524.32338    1003.2887    3024.8031    17.734211    20.888557    21.635695           90           90           90 
   74000    262.61882   -128.29397   -98.998449   -128.29397            0    2138.8718    17.749972    20.907121    21.654924            0            0            0    8036.1597    3589.6996    285.89786     2541.018   -837.81978   -687.90808    541.84962    17.749972    20.907121    21.654924           90           90           90 
   74500    250.88185   -125.77239   -97.786138   -125.77239            0    3886.1777    17.700145    20.848432    21.594135            0            0            0    7968.6736    2414.5173    5625.3562    3618.6595   -1004.9575    790.10876    2779.6917    17.700145    20.848432    21.594135           90           90           90 
   75000     259.1314   -127.03214   -98.125641   -127.03214            0    142.13491    17.699004    20.847088    21.592743            0            0            0    7967.1321    1119.8375   -648.37241   -45.060377    1554.8238    819.71608    613.99564    17.699004    20.847088    21.592743           90           90           90 
   75500    255.83782   -127.77677   -99.237679   -127.77677            0    5976.1813    17.702195    20.850846    21.596636            0            0            0    7971.4424    8201.1728    6433.9444    3293.4268   -2440.8244    3099.9342    1773.4748    17.702195    20.850846    21.596636           90           90           90 
   76000    256.40437   -127.30581   -98.703519   -127.30581            0    3012.7086    17.740798    20.896316    21.643732            0            0            0     8023.706    1582.7569    3342.9969     4112.372   -2629.8045   -1105.5449    351.07084    17.740798    20.896316    21.643732           90           90           90 
   76500    241.85133   -129.51554   -102.53666   -129.51554            0     346.1956    17.729157    20.882605     21.62953            0            0            0    8007.9222    1437.7489    80.279226   -479.44129    158.79069    3082.2288    124.10906    17.729157    20.882605     21.62953           90           90           90 
   77000    255.82337   -130.09262   -101.55514   -130.09262            0    5734.5929    17.665043    20.807086    21.551311            0            0            0    7921.3584    6634.5406    7153.4365    3415.8017   -502.37572   -334.00902   -1319.4201    17.665043    20.807086    21.551311           90           90           90 
   77500    256.71635   -127.92881   -99.291715   -127.92881            0   -991.29186    17.721086    20.873098    21.619684            0            0            0    7996.9907    413.37002   -2368.1126    -1019.133   -1311.8082    1185.1316   -2480.0373    17.721086    20.873098    21.619684           90           90           90 
   78000    273.37753   -126.85407   -96.358396   -126.85407            0    2368.2736    17.737494    20.892424    21.639701            0            0            0    8019.2238    1515.7971    651.74036    4937.2832    1169.0123   -1522.9506    1295.9489    17.737494    20.892424    21.639701           90           90           90 
   78500    248.33176   -127.80003   -100.09825   -127.80003            0    709.17091    17.698001    20.845906    21.591519            0            0            0    7965.7778    1199.3304    432.62066    495.56168   -235.86758    901.17562      -679.79    17.698001    20.845906    21.591519           90           90           90 
   79000    256.45642   -128.95353   -100.34543   -128.95353            0   -2.5884962    17.762057    20.921356    21.669667            0            0            0    8052.5852    194.27128   -3153.0396    2951.0028    -951.4972    936.55762    1006.9959    17.762057    20.921356    21.669667           90           90           90 
   79500    265.16734   -126.57992   -97.000107   -126.57992            0     2926.983    17.721724    20.873849    21.620461            0            0            0    7997.8533    2433.3066    2858.2868    3489.3557   -1874.6192    953.19045   -317.02192    17.721724    20.873849    21.620461           90           90           90 
   80000    267.97448   -126.77793   -96.884975   -126.77793            0    3571.3419    17.657849    20.798613    21.542534            0            0            0    7911.6843    1105.9171    6372.5773    3235.5313    590.95215   -1160.8078    71.966902    17.657849    20.798613    21.542534           90           90           90 
   80500    255.53381   -126.99748   -98.492298   -126.99748            0    1988.2512    17.678169    20.822546    21.567324            0            0            0    7939.0286    4575.4349    1301.0758    88.242991    1646.1016    519.53957   -113.89626    17.678169    20.822546    21.567324           90           90           90 
   81000     257.7123   -127.49292   -98.744723   -127.49292            0    2937.0549    17.756562    20.914884    21.662964            0            0            0    8045.1142    4024.5904    2471.6539    2314.9204   -2009.9407    805.45932    2658.7414    17.756562    20.914884    21.662964           90           90           90 
   81500    256.68129   -127.91866   -99.285472   -127.91866            0    3276.4333     17.62741    20.762759    21.505398            0            0            0    7870.8392    3760.0427    2745.3496    3323.9076     -310.743    3212.8956    444.19172     17.62741    20.762759    21.505398           90           90           90 
   82000    256.82907   -128.73634   -100.08667   -128.73634            0    3245.7846    17.668743    20.811445    21.555825            0            0            0    7926.3371    1381.2496    5402.8478    2953.2564    381.69492    957.84991   -195.32244    17.668743    20.811445    21.555825           90           90           90 
   82500    273.94687   -127.42975   -96.870568   -127.42975            0    5064.5959     17.58784    20.716152    21.457124            0            0            0     7817.954    5851.1533     6276.145    3066.4893    -402.7734    2716.6973    1347.7652     17.58784    20.716152    21.457124           90           90           90 
   83000     262.2318   -127.02636   -97.774012   -127.02636            0    1555.0907    17.646054    20.784719    21.528144            0            0            0      7895.84    42.221594    2967.3702    1655.6804   -117.70032   -763.11584    2412.8959    17.646054    20.784719    21.528144           90           90           90 
   83500    262.24212   -127.40099   -98.147488   -127.40099            0    4756.8955    17.664358    20.806279    21.550475            0            0            0    7920.4366    6008.4467    6057.6396    2204.6003   -2470.1566   -913.59765   -546.39922    17.664358    20.806279    21.550475           90           90           90 
   84000    265.42299   -125.73939   -96.131056   -125.73939            0     1788.711    17.700699    20.849084    21.594811            0            0            0    7969.4218    1878.0792     3404.383    83.670843   -2195.5836    2409.4213    729.17643    17.700699    20.849084    21.594811           90           90           90 
   84500    263.27889   -127.19624    -97.82708   -127.19624            0   -1242.0166    17.704657    20.853746     21.59964            0            0            0    7974.7691    -3377.156   -599.34796    250.45403   -3799.2025    858.49581   -1503.8469    17.704657    20.853746     21.59964           90           90           90 
   85000    259.90428    -127.5708   -98.578084    -127.5708            0    822.83166    17.596651     20.72653    21.467873            0            0            0    7829.7094    1438.5919     3080.597   -2050.6939    172.46273    37.020058    247.91505    17.596651     20.72653    21.467873           90           90           90 
   85500    266.34833   -126.58453   -96.872973   -126.58453            0    2567.3241    17.630698    20.766632     21.50941            0            0            0    7875.2448    949.55483    2206.9414    4545.4762    1724.1263   -2325.4824    1570.8911    17.630698    20.766632     21.50941           90           90           90 
   86000    262.58052   -127.59408   -98.302828   -127.59408            0    2911.4619      17.7005     20.84885    21.594568            0            0            0    7969.1531    3412.4013    460.82738    4861.1569   -630.32904     167.5525    1204.5703      17.7005     20.84885    21.594568           90           90           90 
   86500    247.28072   -127.18973   -99.605198   -127.18973            0    541.93829    17.622712    20.757226    21.499667            0            0            0     7864.548    3484.2653   -1598.7085   -259.74189    1140.3921   -487.30833    564.21695    17.622712    20.757226    21.499667           90           90           90 
   87000    246.15405   -127.74577   -100.28691   -127.74577            0    3261.1462      17.6665    20.808802    21.553088            0            0            0     7923.318    589.92488    7062.7789    2130.7347   -555.34956     1278.338   -3529.6983      17.6665    20.808802    21.553088           90           90           90 
   87500    258.97143   -127.22922   -98.340569   -127.22922            0    752.32782    17.637393    20.774519    21.517578            0            0            0    7884.2205     1908.835   -1226.9982    1575.1467    2319.6384    2207.8806    750.62314    17.637393    20.774519    21.517578           90           90           90 
   88000    265.64917   -128.12162   -98.488054   -128.12162            0    2232.0985    17.607919    20.739802     21.48162            0            0            0    7844.7602    2670.5665    2221.1813    1804.5476   -978.04353   -253.16563    33.479941    17.607919    20.739802     21.48162           90           90           90 
   88500    259.22761   -128.10711   -99.189882   -128.10711            0    1585.2523    17.671126    20.814252    21.558733            0            0            0     7929.545    3474.2519    875.72645    405.77845   -706.33309    1063.4997    523.13262    17.671126    20.814252    21.558733           90           90           90 
   89000    248.26996   -128.93587   -101.24098   -128.93587            0    1300.4517    17.715565    20.866594    21.612947            0            0            0    7989.5177      2273.98    366.11305     1261.262   -799.96604   -930.94906   -329.84644    17.715565    20.866594    21.612947           90           90           90 
   89500    249.36304   -128.77493    -100.9581   -128.77493            0    2386.6811    17.666654    20.808984    21.553276            0            0            0     7923.526    483.12731    3781.1517    2895.7643     -589.601   -658.19345   -1289.1285    17.666654    20.808984    21.553276           90           90           90 
   90000    254.11119   -129.08903   -100.74254   -129.08903            0    947.84531    17.629277    20.764959    21.507676            0            0            0    7873.3411   -235.35615    2211.0541    867.83796   -455.39587   -1372.8209   -1645.0185    17.629277    20.764959    21.507676           90           90           90 
   90500    260.43657   -128.36051   -99.308415   -128.36051            0    5275.1793    17.654674    20.794873    21.538661            0            0            0    7907.4176    6435.1818    3654.5876    5735.7686    1161.2222   -195.40898   -1704.1145    17.654674    20.794873    21.538661           90           90           90 
   91000    260.38103   -127.44126   -98.395368   -127.44126            0    891.02618    17.727341    20.880465    21.627313            0            0            0    8005.4605   -1892.4604    3148.8797    1416.6592   -1312.1315    1326.5116   -1185.2485    17.727341    20.880465    21.627313           90           90           90 
   91500    249.52259   -128.66407   -100.82945   -128.66407            0    3466.2435    17.569699    20.694784    21.434991            0            0            0    7793.7871    5270.2584    2179.5549    2948.9173   -461.63327   -240.32326   -1640.1309    17.569699    20.694784    21.434991           90           90           90 
   92000    254.14447   -127.68667    -99.33647   -127.68667            0    2029.6576    17.629219     20.76489    21.507605            0            0            0    7873.2633     1436.512    4067.8698     584.5911     1216.442    1082.1761   -1879.2209    17.629219     20.76489    21.507605           90           90           90 
   92500    261.32244   -127.75207   -98.601157   -127.75207            0    599.19502    17.634492    20.771102    21.514039            0            0            0    7880.3309   -2501.2252    1787.0208    2511.7895   -680.61804    522.17513   -423.75022    17.634492    20.771102    21.514039           90           90           90 
   93000    256.10509   -127.05747   -98.488564   -127.05747            0    3870.3949     17.57948    20.706305    21.446925            0            0            0     7806.811     3634.631    7306.3291    670.22467    263.88601   -44.465021    1880.7965     17.57948    20.706305    21.446925           90           90           90 
   93500    255.14431   -127.59688   -99.135153   -127.59688            0    1696.2679    17.631275    20.767312    21.510114            0            0            0    7876.0184    332.28006    1815.4352    2941.0885    1142.6127   -1546.2676   -938.97241    17.631275    20.767312    21.510114           90           90           90 
   94000    263.48625   -128.71957    -99.32728   -128.71957            0    4822.4973    17.593755    20.723119     21.46434            0            0            0    7825.8444    6418.8807    5075.6488    2972.9625   -896.05666    1785.6344   -1693.4787    17.593755    20.723119     21.46434           90           90           90 
   94500    254.48788   -128.08494   -99.696436   -128.08494            0    1284.9947    17.601999    20.732828    21.474397            0            0            0    7836.8495    386.28094   -900.10464    4368.8079   -645.46299    1383.2955   -2390.1469    17.601999    20.732828    21.474397           90           90           90 
   95000    250.85048    -129.9109   -101.92815    -129.9109            0    2437.1702    17.506841    20.620746    21.358305            0            0            0     7710.436    5482.7828    879.50122    949.22659    1220.6381     1387.585   -1434.4861    17.506841    20.620746    21.358305           90           90           90 
   95500    248.32299   -126.99097   -99.290166   -126.99097            0    2536.9947    17.644234    20.782576    21.525923            0            0            0    7893.3971    3329.6147    1575.8402    2705.5294   -624.76456   -2535.9984   -1701.5862    17.644234    20.782576    21.525923           90           90           90 
   96000    262.20157   -126.67881   -97.429829   -126.67881            0    1266.3641    17.550206    20.671823    21.411209            0            0            0    7767.8741    290.79716    2953.1874    555.10768   -4321.4411   -2611.2053    1176.4782    17.550206    20.671823    21.411209           90           90           90 
   96500    259.67505   -126.61744   -97.650299   -126.61744            0    2539.0803    17.548001    20.669227     21.40852            0            0            0    7764.9477    2321.8426    2296.3582    2999.0403    724.59044    703.13432   -1966.2447    17.548001    20.669227     21.40852           90           90           90 
   97000    258.67314   -126.50133   -97.645956   -126.50133            0    2601.0638    17.553878    20.676148    21.415689            0            0            0    7772.7512    2931.0942    2435.2577    2436.8394    1459.6572    -120.4116     3204.374    17.553878    20.676148    21.415689           90           90           90 
   97500    259.37145   -127.05116    -98.11789   -127.05116            0    4906.3816    17.557217    20.680081    21.419763            0            0            0    7777.1877    3582.3864    5348.0422    5788.7163      715.693   -383.55832   -1218.0728    17.557217    20.680081    21.419763           90           90           90 
   98000    255.02264     -127.835   -99.386841     -127.835            0   -199.54852    17.587306    20.715522    21.456471            0            0            0     7817.241    6260.0752   -3816.7852   -3041.9356   -1730.4258    101.42801    341.56908    17.587306    20.715522    21.456471           90           90           90 
   98500    258.16552   -127.18551   -98.386755   -127.18551            0     2770.766    17.525685    20.642941    21.381294            0            0            0    7735.3608     3344.894    3537.6599    1429.7442   -96.476172   -721.29321   -464.47819    17.525685    20.642941    21.381294           90           90           90 
   99000    252.86539    -126.9773   -98.769782    -126.9773            0    770.99105    17.533897    20.652614    21.391313            0            0            0    7746.2392    3958.8265    1236.6792   -2882.5326   -41.740893   -1429.2933    4426.9625    17.533897    20.652614    21.391313           90           90           90 
   99500    270.94022   -127.26634   -97.042554   -127.26634            0   -535.35236    17.683087     20.82834    21.573324            0            0            0    7945.6569    3816.8588   -2311.4744   -3111.4414   -706.86961    1646.9056   -65.959255    17.683087     20.82834    21.573324           90           90           90 
  100000    256.87976   -127.00493   -98.349602   -127.00493            0   -3.3473679     17.63698    20.774032    21.517074            0            0            0    7883.6668   -2117.1244    1095.2802     1011.802   -1204.8145    485.20459    1550.6792     17.63698    20.774032    21.517074           90           90           90 
  100500    266.30054    -128.3193   -98.613077    -128.3193            0    2754.8811    17.540124    20.659948     21.39891            0            0            0    7754.4954    5047.5087    1892.4742    1324.6603   -1160.1117   -2387.2852   -196.32672    17.540124    20.659948     21.39891           90           90           90 
  101000    248.99577   -127.31158   -99.535727   -127.31158            0    2653.3749    17.631069     20.76707    21.509863            0            0            0    7875.7424    1262.2788    3631.2856    3066.5602   -1474.8357    842.97338   -880.34004    17.631069     20.76707    21.509863           90           90           90 
  101500    256.35247   -127.87122   -99.274714   -127.87122            0   -999.62438    17.652902    20.792786    21.536499            0            0            0    7905.0368   -4241.7165     2971.562   -1728.7187    -1429.162   -1188.5023    122.93191    17.652902    20.792786    21.536499           90           90           90 
  102000    255.98942    -127.5056   -98.949599    -127.5056            0    2314.1586    17.521329     20.63781     21.37598            0            0            0    7729.5943    1786.8085    5206.2629   -50.595559    595.14556    581.99185   -378.87954    17.521329     20.63781     21.37598           90           90           90 
  102500      254.394    -128.2841   -99.906063    -128.2841            0    3646.6427    17.530449    20.648552    21.387106            0            0            0    7741.6698    1635.1805    5434.1196     3870.628    703.33067    1401.4666    614.57471    17.530449    20.648552    21.387106           90           90           90 
  103000    256.96271   -127.31261   -98.648032   -127.31261            0    -2331.812    17.641998    20.779942    21.523196            0            0            0    7890.3973   -208.77381   -4338.2793    -2448.383    660.17819   -1023.9326    1265.6182    17.641998    20.779942    21.523196           90           90           90 
  103500    250.88323   -127.60687   -99.620468   -127.60687            0    2555.1051     17.62071    20.754868    21.497224            0            0            0    7861.8683    3681.6529    2402.7716    1580.8908   -681.72533    76.808163    318.40716     17.62071    20.754868    21.497224           90           90           90 
  104000    263.10212   -127.81286   -98.463427   -127.81286            0    1464.0381    17.572567    20.698162     21.43849            0            0            0    7797.6041    2441.4649    961.35755    989.29172    1455.6684    2522.6796   -565.95906    17.572567    20.698162     21.43849           90           90           90 
  104500    253.08143   -127.93198   -99.700365   -127.93198            0   -1132.4777    17.682287    20.827398    21.572349            0            0            0    7944.5793    -1945.025   -3863.0974    2410.6894   -1958.2607    914.69102    682.05274    17.682287    20.827398    21.572349           90           90           90 
  105000    263.46885   -127.09758   -97.707231   -127.09758            0    5053.4324    17.531169    20.649401    21.387985            0            0            0    7742.6246    4496.7538    6798.5505    3864.9928    151.49864    2374.5009    2278.2995    17.531169    20.649401    21.387985           90           90           90 
  105500    268.83903   -127.87351   -97.884107   -127.87351            0    2275.5052    17.526718    20.644158    21.382555            0            0            0    7736.7287    3374.8449    1376.5059    2075.1647   -398.73334   -704.03246    370.08354    17.526718    20.644158    21.382555           90           90           90 
  106000    261.16998   -128.80382   -99.669918   -128.80382            0    -3.906194     17.64813    20.787165    21.530677            0            0            0    7898.6276   -697.42687   -1527.3139    2213.0222    858.40259    379.37732     504.6388     17.64813    20.787165    21.530677           90           90           90 
  106500    268.47261   -130.26473    -100.3162   -130.26473            0    1441.7346    17.617926    20.751589    21.493828            0            0            0    7858.1425    3826.8735   -177.83277    676.16315   -3123.8821   -1395.9478   -237.01745    17.617926    20.751589    21.493828           90           90           90 
  107000    258.42421   -129.61013   -100.78252   -129.61013            0    1571.3042     17.52963    20.647588    21.386107            0            0            0    7740.5852    1126.6625    4081.5397   -494.28958    1538.2974    1679.8703   -1065.0324     17.52963    20.647588    21.386107           90           90           90 
  107500    261.75144   -129.39873   -100.19997   -129.39873            0    2227.3359    17.646145    20.784827    21.528255            0            0            0    7895.9626    300.61121     3418.996    2962.4006    185.01968   -795.03798    2076.9409    17.646145    20.784827    21.528255           90           90           90 
  108000    255.22282    -127.5161   -99.045613    -127.5161            0    2531.3398    17.635938    20.772804    21.515802            0            0            0    7882.2683    4004.1678    1972.5056    1617.3459   -2589.0813    2333.6042     910.4439    17.635938    20.772804    21.515802           90           90           90 
  108500    269.91604   -128.01738   -97.907841   -128.01738            0   -1818.7868    17.616832      20.7503    21.492493            0            0            0    7856.6787    -3010.242   -363.73393   -2082.3844    1113.8703    866.04828   -582.44508    17.616832      20.7503    21.492493           90           90           90 
  109000    258.92793   -128.42633   -99.542525   -128.42633            0    5555.4578    17.571855    20.697323    21.437622            0            0            0    7796.6564    5392.6116    4948.2322    6325.5295   -1896.2539   -2703.3958   -1404.3406    17.571855    20.697323    21.437622           90           90           90 
  109500    259.06802   -126.84637   -97.946938   -126.84637            0   -1339.3428    17.707452    20.857038    21.603049            0            0            0     7978.546   -3739.6056     1732.529   -2010.9517    450.59366    695.02447    1282.1402    17.707452    20.857038    21.603049           90           90           90 
  110000    250.63884   -126.35354   -98.394403   -126.35354            0    787.64168    17.603236    20.734285    21.475906            0            0            0    7838.5019     4389.559   -1669.7598   -356.87414   -1264.7015   -3661.8401    -1039.322    17.603236    20.734285    21.475906           90           90           90 
  110500    250.23402   -127.90056   -99.986577   -127.90056            0    3979.3847    17.545716    20.666535    21.405732            0            0            0    7761.9145    3059.1006    3420.2735      5458.78     876.6049    629.18981    675.62865    17.545716    20.666535    21.405732           90           90           90 
  111000    251.59437   -126.99439   -98.928663   -126.99439            0    356.79714    17.609615      20.7418    21.483689            0            0            0    7847.0271     1084.731    1762.0344    -1776.374   -2369.5971    2781.0003   -781.34372    17.609615      20.7418    21.483689           90           90           90 
  111500    265.77543   -127.84915   -98.201497   -127.84915            0     1936.165    17.658038    20.798835    21.542765            0            0            0    7911.9384    3951.5142    911.97279    945.00798    1385.3988   -3925.0386     -494.915    17.658038    20.798835    21.542765           90           90           90 
[...]
 1973500    257.44224   -126.52536   -97.807289   -126.52536            0   -148.45359    17.681008    20.825891    21.570788            0            0            0    7942.8546   -781.76975    2776.8822   -2440.4732    446.13838    948.11696    463.54413    17.681008    20.825891    21.570788           90           90           90 
 1974000    262.25479   -128.04127   -98.786352   -128.04127            0     1971.692    17.723526    20.875972     21.62266            0            0            0     8000.294    3176.1872    453.34109    2285.5477    246.80647   -1287.0291    743.50667    17.723526    20.875972     21.62266           90           90           90 
 1974500    250.76826    -127.1677   -99.194121    -127.1677            0    1900.6567    17.878844    21.058916    21.812147            0            0            0    8212.4712    2781.6573    1757.9526    1162.3602    670.10873     862.2517    -1431.339    17.878844    21.058916    21.812147           90           90           90 
 1975000    252.63585   -127.84779   -99.665883   -127.84779            0    3043.3886    17.741368    20.896987    21.644427            0            0            0     8024.479    5357.0134    589.56678    3183.5856    1987.9182   -654.95278   -256.28825    17.741368    20.896987    21.644427           90           90           90 
 1975500    264.45374   -129.22594   -99.725725   -129.22594            0    3537.3176    17.636576    20.773556    21.516581            0            0            0    7883.1241    3624.7598    3596.0812    3391.1116   -2690.0786    659.94586    37.608648    17.636576    20.773556    21.516581           90           90           90 
 1976000    250.01981   -127.63811   -99.748028   -127.63811            0    2601.3196    17.761394    20.920575    21.668859            0            0            0    8051.6837    3321.2796    903.83349    3578.8457    606.39898    1183.6504   -283.61046    17.761394    20.920575    21.668859           90           90           90 
 1976500    265.50667   -128.50483   -98.887166   -128.50483            0    1779.2111    17.843811    21.017651    21.769407            0            0            0    8164.2895   -3085.7707    1570.2998    6853.1043    444.95281     350.2534   -101.77275    17.843811    21.017651    21.769407           90           90           90 
 1977000    258.98544    -128.1056   -99.215379    -128.1056            0    790.70962    17.705623    20.854884    21.600818            0            0            0    7976.0742    1500.7239    945.71742   -74.312426    945.07623   -2079.2288    1078.6522    17.705623    20.854884    21.600818           90           90           90 
 1977500    261.56183   -127.66916   -98.491543   -127.66916            0    1758.5445    17.666873    20.809241    21.553543            0            0            0    7923.8198   -326.69014    2148.0251    3454.2986   -1776.8637   -1010.4244     -580.234    17.666873    20.809241    21.553543           90           90           90 
 1978000    265.18358   -127.05537   -97.473742   -127.05537            0    2524.5188    17.698013    20.845921    21.591535            0            0            0    7965.7949     2001.946     3408.423    2163.1874     2839.016    850.42994    1545.0103    17.698013    20.845921    21.591535           90           90           90 
 1978500    257.94339    -126.5181    -97.74413    -126.5181            0    2557.1011    17.744173    20.900291    21.647849            0            0            0    8028.2859    1215.1225    400.69662    6055.4843   -904.23061    723.98873    -1429.644    17.744173    20.900291    21.647849           90           90           90 
 1979000    262.13085   -128.36369   -99.122595   -128.36369            0   -664.87047    17.734844    20.889302    21.636467            0            0            0    8015.6298    379.76114   -516.25019   -1858.1224   -358.90312    4227.9193   -3712.4542    17.734844    20.889302    21.636467           90           90           90 
 1979500    261.11672   -125.84474   -96.716772   -125.84474            0    1088.2677    17.694021    20.841218    21.586663            0            0            0    7960.4048    2720.3454    3394.4654   -2850.0076   -1093.2709    1739.7901    630.03757    17.694021    20.841218    21.586663           90           90           90 
 1980000    257.66937   -126.45597   -97.712567   -126.45597            0    858.27393     17.74261     20.89845    21.645943            0            0            0    8026.1654   -3279.8493    1928.3949    3926.2762   -1061.7097    139.07838   -424.07039     17.74261     20.89845    21.645943           90           90           90 
 1980500     252.4215   -125.46019    -97.30219   -125.46019            0    280.71146    17.693004    20.840021    21.585423            0            0            0    7959.0328   -890.86674    1776.4856   -43.484436    -1637.764    923.39602      347.825    17.693004    20.840021    21.585423           90           90           90 
 1981000    270.51812   -126.04905   -95.872348   -126.04905            0     5576.588    17.699771    20.847991    21.593678            0            0            0     7968.168    4458.5068    2655.7014    9615.5558   -2191.3771    2779.9296    2543.6244    17.699771    20.847991    21.593678           90           90           90 
 1981500    269.23021   -126.89544   -96.862407   -126.89544            0    480.04898    17.742464    20.898278    21.645765            0            0            0    8025.9672     1164.353   -1197.7489    1473.5428    1372.0583    1612.8711   -2248.6728    17.742464    20.898278    21.645765           90           90           90 
 1982000     279.7818   -126.96386   -95.753783   -126.96386            0    775.68563    17.684571    20.830088    21.575135            0            0            0     7947.658    2132.5219   -1111.9442    1306.4792    1197.7777    -353.1427    1061.4135    17.684571    20.830088    21.575135           90           90           90 
 1982500     253.5679   -126.76432   -98.478439   -126.76432            0    2991.5246    17.727763    20.880962    21.627829            0            0            0    8006.0325    5154.7273    4519.9579   -700.11132   -1057.6062   -1358.8448   -1371.0769    17.727763    20.880962    21.627829           90           90           90 
 1983000    271.47951   -127.97269   -97.688737   -127.97269            0     2080.262     17.69504    20.842419    21.587907            0            0            0    7961.7802   -660.65411    6190.1438    711.29611    181.17857   -576.45097   -822.82048     17.69504    20.842419    21.587907           90           90           90 
 1983500    256.58111   -126.58622   -97.964206   -126.58622            0    1188.4689    17.740656    20.896148    21.643558            0            0            0    8023.5128    4602.9614    1205.4487   -2243.0033   -59.134315    2400.9511    300.77699    17.740656    20.896148    21.643558           90           90           90 
 1984000    262.05627   -127.44026   -98.207484   -127.44026            0    4362.6861    17.662446    20.804027    21.548142            0            0            0    7917.8647    4236.5768    4550.1412    4301.3404   -2472.7995    1725.5503   -186.61939    17.662446    20.804027    21.548142           90           90           90 
 1984500    270.21835   -126.60483   -96.461568   -126.60483            0    1295.3842    17.719106    20.870766    21.617268            0            0            0    7994.3101    2906.1988   -353.32191    1333.2757    1239.2472    669.63685   -1335.5875    17.719106    20.870766    21.617268           90           90           90 
 1985000    278.24273   -127.26323   -96.224837   -127.26323            0    4109.0964    17.697214    20.844979    21.590559            0            0            0    7964.7154    4780.8489    4796.3359    2750.1043    637.28816   -1995.4693   -1409.4379    17.697214    20.844979    21.590559           90           90           90 
 1985500    257.02801   -125.70088   -97.029014   -125.70088            0    2360.1156    17.704598    20.853677    21.599568            0            0            0    7974.6895    7413.2541   -818.54141    485.63423    1772.5554     192.9352    916.93485    17.704598    20.853677    21.599568           90           90           90 
 1986000    251.39674   -126.77874   -98.735057   -126.77874            0    2292.8975    17.631038    20.767033    21.509824            0            0            0    7875.7003    4152.0052    1594.5872    1132.0999   -1351.2666    -1311.801     -2144.66    17.631038    20.767033    21.509824           90           90           90 
 1986500    256.89623   -126.44529   -97.788126   -126.44529            0    2985.5819    17.667836    20.810376    21.554718            0            0            0    7925.1162   -897.47553    7491.7289    2362.4925   -912.76313     1090.277   -3168.3415    17.667836    20.810376    21.554718           90           90           90 
 1987000    252.37863   -125.80049   -97.647279   -125.80049            0    746.43662     17.77612    20.937921    21.686825            0            0            0    8071.7276    797.92666   -3590.0175    5031.4007    127.40758   -1367.7276   -3539.6319     17.77612    20.937921    21.686825           90           90           90 
 1987500    259.38774   -127.84112   -98.906026   -127.84112            0    2698.8138    17.678037    20.822392    21.567163            0            0            0    7938.8515    2777.5964   -155.66129    5474.5064    740.77152    2879.6522   -18.701341    17.678037    20.822392    21.567163           90           90           90 
 1988000    276.23053   -125.22854   -94.414613   -125.22854            0    131.52083    17.603201    20.734244    21.475863            0            0            0    7838.4551   -282.32608   -3026.2922    3703.1808    896.54651    1987.4649    1444.5767    17.603201    20.734244    21.475863           90           90           90 
 1988500    269.68807   -126.05525   -95.971144   -126.05525            0    614.22515    17.657489    20.798189    21.542095            0            0            0    7911.2006     1442.539   -390.92717    791.06359   -676.52624   -217.04851    64.794783    17.657489    20.798189    21.542095           90           90           90 
 1989000    254.33906   -126.54286   -98.170951   -126.54286            0     3251.072    17.652745    20.792601    21.536307            0            0            0    7904.8261    2404.5278    3605.7166    3742.9716   -128.30581   -3464.1115    2892.9647    17.652745    20.792601    21.536307           90           90           90 
 1989500     250.5453   -126.08576    -98.13705   -126.08576            0   -1796.5278    17.716904    20.868172    21.614581            0            0            0    7991.3301    2429.9184   -5107.4049   -2712.0969    1040.3462   -2619.3373   -3130.4418    17.716904    20.868172    21.614581           90           90           90 
 1990000    255.28844   -126.78178   -98.303968   -126.78178            0    3806.5306     17.63749    20.774633    21.517696            0            0            0    7884.3501    1527.0483    4323.0895    5569.4541   -890.38891    -1204.299   -246.01436     17.63749    20.774633    21.517696           90           90           90 
 1990500    263.20908   -128.05694   -98.695574   -128.05694            0    3594.0258     17.64918    20.788402    21.531958            0            0            0    7900.0375     4400.655     3410.034    2971.3884   -501.54513    1477.3582   -3063.3833     17.64918    20.788402    21.531958           90           90           90 
 1991000    236.64486    -127.7833   -101.38521    -127.7833            0    3259.9986    17.665599    20.807741    21.551989            0            0            0    7922.1061    1242.5492    4408.7594    4128.6873    1063.9445   -146.37013    701.27282    17.665599    20.807741    21.551989           90           90           90 
 1991500    268.54513   -127.68267   -97.726059   -127.68267            0    1685.0192    17.602762    20.733728    21.475328            0            0            0    7837.8697   -1376.7704    2864.3392    3567.4889   -1145.3001   -1624.1737    252.35962    17.602762    20.733728    21.475328           90           90           90 
 1992000    252.77471   -127.32958   -99.132181   -127.32958            0    2233.6356    17.614535    20.747595    21.489691            0            0            0    7853.6063    3467.3218    824.11383     2409.471   -383.54973    1401.4073   -2140.0112    17.614535    20.747595    21.489691           90           90           90 
 1992500    252.18941   -127.54473   -99.412626   -127.54473            0   -1444.0894     17.73572    20.890334    21.637536            0            0            0    8016.8179   -2035.4271    -2687.433    390.59198    692.84849   -3307.6357   -1585.0398     17.73572    20.890334    21.637536           90           90           90 
 1993000     265.8341   -128.54668   -98.892487   -128.54668            0    4323.0938    17.646833    20.785638    21.529095            0            0            0    7896.8865     5665.604    1953.1618    5350.5156   -1995.0343   -286.53278    1103.9206    17.646833    20.785638    21.529095           90           90           90 
 1993500     263.1625   -128.52081   -99.164634   -128.52081            0    971.46402    17.599185    20.729515    21.470964            0            0            0    7833.0924    1080.2778    1771.6111    62.503174    2715.8776   -861.31754   -900.29521    17.599185    20.729515    21.470964           90           90           90 
 1994000    257.16969   -127.65351   -98.965847   -127.65351            0   -788.72567    17.713627    20.864312    21.610583            0            0            0    7986.8965   -3397.3853    1181.1216   -149.91336   -1411.5872   -1138.5917    645.61313    17.713627    20.864312    21.610583           90           90           90 
 1994500    262.70379   -128.24345   -98.938446   -128.24345            0    2136.6037    17.613191    20.746011    21.488051            0            0            0    7851.8078    217.09614    4572.9627    1619.7524    2221.8995   -536.07583    72.311112    17.613191    20.746011    21.488051           90           90           90 
 1995000    267.37236   -129.31867   -99.492876   -129.31867            0    443.10635    17.590922    20.719782    21.460883            0            0            0    7822.0641    731.74781    -382.7342    980.30545   -1673.1499    2000.4846   -1873.6837    17.590922    20.719782    21.460883           90           90           90 
 1995500    253.38693   -129.07571   -100.81002   -129.07571            0    3269.1348     17.66077    20.802054    21.546098            0            0            0    7915.6116    5114.4537    5324.3672   -631.41644   -1456.7004    57.366307   -1497.0273     17.66077    20.802054    21.546098           90           90           90 
 1996000    253.69674   -127.39401   -99.093758   -127.39401            0    2896.6506     17.73349    20.887708    21.634816            0            0            0    8013.7946    1373.8828   -127.66314    7443.7322   -752.81402    2005.1624   -1132.8028     17.73349    20.887708    21.634816           90           90           90 
 1996500    256.63143   -126.92276   -98.295137   -126.92276            0   -960.38385    17.704313    20.853341     21.59922            0            0            0    7974.3038    681.48309   -3654.1027    91.468099    1554.7885    513.16387   -1605.3579    17.704313    20.853341     21.59922           90           90           90 
 1997000    256.25566   -127.17617   -98.590466   -127.17617            0   -46.344451     17.66778     20.81031     21.55465            0            0            0    7925.0411   -131.09249    468.69424    -476.6351    2841.7896    1735.2594    64.188236     17.66778     20.81031     21.55465           90           90           90 
 1997500    254.26197   -126.84908   -98.485772   -126.84908            0    3246.3698    17.687992    20.834118    21.579309            0            0            0    7952.2712    2151.9849    3716.9633     3870.161   -2273.3225   -1270.9302    1139.9498    17.687992    20.834118    21.579309           90           90           90 
 1998000    254.59139   -127.50874   -99.108691   -127.50874            0    533.66925    17.706908    20.856397    21.602385            0            0            0    7977.8106    2359.1251    39.500004   -797.61738   -2797.0234   -560.16876    466.10423    17.706908    20.856397    21.602385           90           90           90 
 1998500    254.99934   -127.23064   -98.785085   -127.23064            0    2512.9964    17.639874     20.77744    21.520604            0            0            0    7887.5475    504.32992    2994.4833    4040.1758    1311.8335    969.87955   -1361.4111    17.639874     20.77744    21.520604           90           90           90 
 1999000    243.13135   -126.31565   -99.193982   -126.31565            0    2126.3333    17.689147    20.835478    21.580718            0            0            0    7953.8293    3154.5039   -34.258806    3258.7548   -1859.1274      2569.46   -907.25871    17.689147    20.835478    21.580718           90           90           90 
 1999500    276.07009   -128.94149   -98.145455   -128.94149            0     473.1961    17.659829    20.800945    21.544949            0            0            0    7914.3457     3344.172     433.0672   -2357.6509    2103.7313   -1341.5406    2963.1072    17.659829    20.800945    21.544949           90           90           90 
 2000000    258.68004   -126.98451   -98.128359   -126.98451            0    3930.0833    17.595104    20.724707    21.465985            0            0            0    7827.6435     6156.614    2333.3728    3300.2632    1240.5847   -2300.8185    201.49121    17.595104    20.724707    21.465985           90           90           90 
Loop time of 10984.5 on 1 procs for 2000000 steps with 864 atoms

Performance: 7.866 ns/day, 3.051 hours/ns, 182.075 timesteps/s
73.8% CPU use with 1 MPI tasks x 1 OpenMP threads

MPI task timing breakdown:
Section |  min time  |  avg time  |  max time  |%varavg| %total
---------------------------------------------------------------
Pair    | 9527.1     | 9527.1     | 9527.1     |   0.0 | 86.73
Bond    | 0.3349     | 0.3349     | 0.3349     |   0.0 |  0.00
Neigh   | 1315.2     | 1315.2     | 1315.2     |   0.0 | 11.97
Comm    | 45.405     | 45.405     | 45.405     |   0.0 |  0.41
Output  | 24.707     | 24.707     | 24.707     |   0.0 |  0.22
Modify  | 62.927     | 62.927     | 62.927     |   0.0 |  0.57
Other   |            | 8.845      |            |       |  0.08

Nlocal:        864.000 ave         864 max         864 min
Histogram: 1 0 0 0 0 0 0 0 0 0
Nghost:        4268.00 ave        4268 max        4268 min
Histogram: 1 0 0 0 0 0 0 0 0 0
Neighs:         0.00000 ave           0 max           0 min
Histogram: 1 0 0 0 0 0 0 0 0 0
FullNghs:      204596.0 ave      204596 max      204596 min
Histogram: 1 0 0 0 0 0 0 0 0 0

Total # of neighbors = 204596
Ave neighs/atom = 236.80093
Ave special neighs/atom = 0.0000000
Neighbor list builds = 200000
Dangerous builds not checked

unfix		3
unfix		2

write_data	data.final.${pid}
write_data	data.final.0
System init for write_data ...

write_restart   restart.lmp.${pid}
write_restart   restart.lmp.0
System init for write_restart ...
Unloading pair style deepmd
Unloading compute style deepmd
Unloading fix style deepmd
Total wall time: 3:03:42
