LAMMPS data file via write_data, version 29 Sep 2021, timestep = 400000

864 atoms
2 atom types

-0.005273987804352842 18.212846987806202 xlo xhi
0.1192822794377193 23.509894720561384 ylo yhi
0.011255745475990508 22.20194025452531 zlo zhi

Masses

1 1.008
2 15.999

Atoms # full

706 0 1 -1.1794 2.5326490892560964 1.6710201733511258 2.964641121582862 0 0 0
708 0 2 0.5897 1.6618341054008494 2.0542949555004553 2.6536807399410374 0 0 0
1 0 1 -1.1794 0.47430315072589957 3.38908201452989 2.4129813736923853 0 0 0
3 0 2 0.5897 0.6653762009641702 4.300942004273164 2.7018815084137144 0 0 0
29 0 2 0.5897 4.160646981829977 2.6661639748880255 2.3959958192488773 0 0 0
707 0 2 0.5897 2.6338705333339636 1.8160119205859655 3.9041869966287654 0 0 0
20 0 2 0.5897 0.811297054258728 3.713547514939539 0.5045770784305728 0 0 0
188 0 2 0.5897 2.9258457372964584 0.185685163832358 2.217999577322775 0 0 0
30 0 2 0.5897 5.126801319947099 3.9127152261581704 2.573413622401013 0 0 0
28 0 1 -1.1794 5.0458334059005665 3.004991760282224 2.240334160389656 0 0 0
493 0 1 -1.1794 7.373318031718777 1.773469682252702 3.0023515680733106 0 0 0
494 0 2 0.5897 6.4849055027116425 2.1858572748656755 2.6201870662600197 0 0 0
495 0 2 0.5897 8.169799073604265 2.3109547055185886 2.6579229392251356 0 0 0
668 0 2 0.5897 5.199103663239174 3.0418666816018702 0.5986668937551664 0 0 0
819 0 2 0.5897 7.273049053442735 0.22798883344947368 2.2714605284441736 0 0 0
748 0 1 -1.1794 9.602007776243507 2.935444447500847 2.0960175733294246 0 0 0
749 0 2 0.5897 9.51776339966773 3.8309975264276375 2.4944107322684395 0 0 0
750 0 2 0.5897 9.562488372042981 3.064365091399439 1.1266041058993663 0 0 0
106 0 1 -1.1794 11.909999559161799 1.9432656673708586 3.18038414808183 0 0 0
108 0 2 0.5897 11.132308923192454 2.09407803847881 2.6226467509722204 0 0 0
107 0 2 0.5897 11.701046099873677 2.2522060681810787 4.1118542452746265 0 0 0
215 0 2 0.5897 13.16023825972057 2.7311767282814463 2.5831861200029045 0 0 0
2 0 2 0.5897 17.75362476854088 3.139111449562424 2.5400558932385837 0 0 0
214 0 1 -1.1794 13.913021257333854 3.0923812593044055 2.0448563127480637 0 0 0
216 0 2 0.5897 13.924780065753433 3.9664281966887738 2.3164104792856897 0 0 0
406 0 1 -1.1794 16.215126821182608 2.263190952017926 3.113366280414061 0 0 0
407 0 2 0.5897 16.376998235377016 1.4104606326267008 2.6264923622716743 0 0 0
408 0 2 0.5897 15.375229083623971 2.564603127774669 2.7310526549868475 0 0 0
369 0 2 0.5897 13.8972729551691 2.953240002169842 0.3538024818987206 0 0 0
123 0 2 0.5897 2.704991040328651 8.781397674051329 2.70279339248658 0 0 0
253 0 1 -1.1794 3.071737883903399 6.759602668147257 1.9608238710034007 0 0 0
254 0 2 0.5897 2.923616978787231 7.0316643940366825 0.9853075929620038 0 0 0
255 0 2 0.5897 2.170967065575551 6.590336513273147 2.3162406068096937 0 0 0
595 0 1 -1.1794 0.6640457573910133 6.155001952445463 3.036663590049181 0 0 0
597 0 2 0.5897 0.7451008471467795 6.164230356026456 3.983141117827792 0 0 0
138 0 2 0.5897 4.598482377303226 6.090017866277547 2.4578481958648695 0 0 0
136 0 1 -1.1794 5.408486785273217 5.650510736364769 2.754143734262085 0 0 0
65 0 2 0.5897 7.568954192377869 8.84774667397832 2.558368584863436 0 0 0
415 0 1 -1.1794 7.7476233344841 7.13504649377283 2.148121868496221 0 0 0
416 0 2 0.5897 6.974943430391395 6.680877069289087 2.548226540225406 0 0 0
417 0 2 0.5897 8.513962247032842 6.655207044068338 2.53840133686013 0 0 0
137 0 2 0.5897 5.329047814758309 5.690929988957188 3.6936557586141623 0 0 0
162 0 2 0.5897 7.370381554461867 7.186226016366583 0.46077222966573655 0 0 0
298 0 1 -1.1794 9.790855059430353 5.3927781091842695 3.2112204263182456 0 0 0
190 0 1 -1.1794 12.211720730828993 6.613904778526481 2.0075117054399683 0 0 0
191 0 2 0.5897 12.051696477835096 6.792346109951736 1.0414192539863083 0 0 0
192 0 2 0.5897 12.040696943535892 7.554255891408616 2.3865627683477677 0 0 0
299 0 2 0.5897 10.503034498826038 5.883910819842855 2.806937845413548 0 0 0
110 0 2 0.5897 13.532241990230133 6.061414923725151 2.8841115680345633 0 0 0
300 0 2 0.5897 9.875215019858024 5.475645556615572 4.193208493125558 0 0 0
91 0 1 -1.1794 11.653704335886754 9.462088726837193 2.6833980883891915 0 0 0
92 0 2 0.5897 11.586729438149577 9.339443034500498 3.6767249066989263 0 0 0
596 0 2 0.5897 18.030924761099712 6.571598613234943 2.7551534273519334 0 0 0
109 0 1 -1.1794 14.356028482308814 5.669604077162039 3.256778693935573 0 0 0
111 0 2 0.5897 15.075093102831241 6.056682293977437 2.708202854386713 0 0 0
838 0 1 -1.1794 16.573326555661083 6.990869624636257 2.049311282287612 0 0 0
839 0 2 0.5897 16.307131851136887 7.86946515494024 2.304313256487923 0 0 0
840 0 2 0.5897 16.539994945293174 6.933967339830296 1.0274035006319573 0 0 0
841 0 1 -1.1794 16.28171318788327 9.410537722392634 3.0084225631305612 0 0 0
842 0 2 0.5897 16.516102855965364 9.114064865198419 3.920258410352103 0 0 0
122 0 2 0.5897 2.861784066460634 9.755451651760088 3.7808938377188226 0 0 0
121 0 1 -1.1794 2.7137744875755674 9.755734303978537 2.802999579332835 0 0 0
44 0 2 0.5897 1.0913133305155744 10.535648018698387 2.4729621095295298 0 0 0
45 0 2 0.5897 0.4658553324483158 12.003174072663414 2.4058240685928785 0 0 0
43 0 1 -1.1794 0.2644082816465962 11.026743025391225 2.3059648945005744 0 0 0
373 0 1 -1.1794 0.5031783772660918 13.860455677994189 2.5880029878136446 0 0 0
374 0 2 0.5897 0.650733728008789 13.962734453865671 3.5480234220619504 0 0 0
396 0 2 0.5897 0.32092459124993894 10.732049057791448 0.44235989294096334 0 0 0
219 0 2 0.5897 4.268859129063991 10.529651238902368 2.271187129303519 0 0 0
557 0 2 0.5897 2.2237525784246412 14.150966657327839 1.8732305621739924 0 0 0
66 0 2 0.5897 7.304369236541195 9.851141031214333 3.7442574010589467 0 0 0
173 0 2 0.5897 4.649272749913023 13.989182060687217 2.4012697113798316 0 0 0
64 0 1 -1.1794 7.356931701398862 9.755923811228845 2.784085889814424 0 0 0
217 0 1 -1.1794 5.037531629266399 10.943056815673271 1.876699023228956 0 0 0
172 0 1 -1.1794 5.251254206793282 13.394395869451436 2.894555239444829 0 0 0
174 0 2 0.5897 5.1273003723901835 12.529465693272968 2.513769792405197 0 0 0
218 0 2 0.5897 5.768905808478324 10.35570325800089 2.0468288100150236 0 0 0
363 0 2 0.5897 4.933466886196903 11.42550325523808 0.04759155649434483 0 0 0
773 0 2 0.5897 8.851426670464203 10.629737850025982 2.0281026441281864 0 0 0
774 0 2 0.5897 9.693350318651058 10.987836918091006 0.7476707715673493 0 0 0
772 0 1 -1.1794 9.723172661365645 10.925206528220894 1.7521499382285532 0 0 0
93 0 2 0.5897 10.973048839891582 10.055489608934199 2.360581027131016 0 0 0
154 0 1 -1.1794 9.739141280882489 13.652552259680764 2.475361447207907 0 0 0
156 0 2 0.5897 9.688245348147413 12.76546230696368 2.058417620053979 0 0 0
155 0 2 0.5897 10.625963694459568 13.988333357224823 2.407287907934484 0 0 0
860 0 2 0.5897 13.377281333010371 10.232695730175301 2.315546260762126 0 0 0
806 0 2 0.5897 9.892538816013566 13.155279873057044 4.33467625934917 0 0 0
859 0 1 -1.1794 14.11427683016618 10.679347079996782 1.9168011612668485 0 0 0
55 0 1 -1.1794 14.293573986929418 13.341733411206905 2.6209408938469196 0 0 0
57 0 2 0.5897 14.091272936808666 12.47162180078146 2.2746852587069792 0 0 0
843 0 2 0.5897 17.016882133661724 9.994383588476992 2.750129800673885 0 0 0
861 0 2 0.5897 14.899569492896548 10.16021681052063 2.1473354347636526 0 0 0
56 0 2 0.5897 14.237142669262843 13.304753124026522 3.56197205904508 0 0 0
152 0 2 0.5897 13.954635415205443 10.783790912125014 0.16377823939229808 0 0 0
556 0 1 -1.1794 2.9981832953393526 14.710785510096395 1.6483957921074046 0 0 0
558 0 2 0.5897 2.907985414948737 15.064594815976898 0.6877825372350191 0 0 0
292 0 1 -1.1794 2.723297491852338 16.896166140926024 3.2332413305392524 0 0 0
293 0 2 0.5897 2.8265292598706044 16.002355562241526 2.6996765265850655 0 0 0
344 0 2 0.5897 1.5645485519652345 17.76137351427417 2.3482947845770283 0 0 0
294 0 2 0.5897 2.5701743351282977 16.80992134875826 4.174026851772417 0 0 0
227 0 2 0.5897 4.025613771250394 18.38670060101471 2.900871239144869 0 0 0
343 0 1 -1.1794 0.937841567445671 18.442782066981984 2.0564947960032036 0 0 0
345 0 2 0.5897 0.9843077036554061 18.367145132982582 1.109227042904016 0 0 0
480 0 2 0.5897 6.927838315835012 14.228903732625643 2.665399367517813 0 0 0
479 0 2 0.5897 8.415924008400694 14.596546069535986 2.7524653016702487 0 0 0
448 0 1 -1.1794 7.2406787180470555 17.667386641675233 3.0675966246635245 0 0 0
449 0 2 0.5897 7.258372575954142 16.690720612542886 2.8608461981677267 0 0 0
450 0 2 0.5897 6.3405889065152135 17.95529959889784 2.9719311073932584 0 0 0
478 0 1 -1.1794 7.515802207613537 14.992571565178098 2.5447508213928947 0 0 0
321 0 2 0.5897 8.719799913271144 18.35105335057644 2.396791093212656 0 0 0
602 0 2 0.5897 4.728147253443714 18.47543548782759 0.5279654454893676 0 0 0
226 0 1 -1.1794 4.74034502696521 18.762006993346617 2.359460121738537 0 0 0
317 0 2 0.5897 7.55845867052066 15.137323298198115 0.6507893042431047 0 0 0
560 0 2 0.5897 12.999963583937957 14.155459098300195 2.0574531037774313 0 0 0
559 0 1 -1.1794 12.163250082526716 14.647684023294598 1.8098428586712727 0 0 0
561 0 2 0.5897 12.143477003069524 14.774427483564862 0.8368667899549116 0 0 0
320 0 2 0.5897 10.265767484992168 17.96182398453588 2.7605473726119825 0 0 0
832 0 1 -1.1794 12.035034864055895 17.111629917833532 2.9144980741095106 0 0 0
833 0 2 0.5897 12.512329001063012 17.638735888663007 2.2907732674308083 0 0 0
834 0 2 0.5897 12.069049605152863 16.213265156120503 2.5034932458135555 0 0 0
319 0 1 -1.1794 9.680278202080009 18.531642769877323 2.2402491136027973 0 0 0
389 0 2 0.5897 9.864462754653358 18.599638034239366 0.5988664015345188 0 0 0
375 0 2 0.5897 17.915394513804202 14.389534076485873 2.388332043689818 0 0 0
179 0 2 0.5897 15.399181376929759 14.432712896687004 2.039139845971319 0 0 0
178 0 1 -1.1794 16.10159196239769 15.048408217786685 1.794646595636103 0 0 0
180 0 2 0.5897 16.1656578350483 15.920522651099803 2.2067841479613417 0 0 0
745 0 1 -1.1794 16.35814032388565 17.47045566882211 2.8358723103995738 0 0 0
746 0 2 0.5897 17.187737279080494 17.877337224799003 2.575018159175579 0 0 0
747 0 2 0.5897 15.616444934446054 18.016711944781896 2.5684793395706658 0 0 0
614 0 2 0.5897 16.258035974048582 14.78823430415458 0.04319868629162677 0 0 0
304 0 1 -1.1794 14.263206692499866 18.664502453549545 1.7382501145730487 0 0 0
305 0 2 0.5897 14.328428639095126 18.72965209422343 0.8120842676268819 0 0 0
187 0 1 -1.1794 2.9696060596751366 22.766413804078496 1.7206096492369454 0 0 0
189 0 2 0.5897 3.0840254923370662 22.9862192138455 0.7572105272682353 0 0 0
694 0 1 -1.1794 0.663473765587288 21.20290097771476 3.259993117222224 0 0 0
695 0 2 0.5897 0.7556318906254352 20.378334605759207 2.7936409209185364 0 0 0
696 0 2 0.5897 1.3139758137738973 21.793744746320694 2.9256172063070776 0 0 0
266 0 2 0.5897 4.306188873674549 21.679998234414278 2.3367976710346268 0 0 0
228 0 2 0.5897 4.88929885065029 19.722263327068017 2.5383225619927137 0 0 0
265 0 1 -1.1794 5.078443109335629 21.235601851633426 2.7849603079471303 0 0 0
267 0 2 0.5897 5.906817656920271 21.68517678807413 2.427321638636883 0 0 0
817 0 1 -1.1794 7.289139773188376 22.653546073893082 2.026064589301121 0 0 0
818 0 2 0.5897 8.213763950253318 22.421704132842958 2.1311034062752756 0 0 0
498 0 2 0.5897 7.304472025380735 22.66645225821056 0.12279199364573119 0 0 0
63 0 2 0.5897 12.727699320188187 23.492323394075893 2.7400944081925194 0 -1 0
61 0 1 -1.1794 12.605801906027482 22.657265870245503 2.27709234724955 0 0 0
397 0 1 -1.1794 10.00948245085343 21.460697576327544 2.4570114870358393 0 0 0
398 0 2 0.5897 9.843181404222497 20.502760453748053 2.3851584260042347 0 0 0
399 0 2 0.5897 10.962358010152892 21.596723682790202 2.394103219564527 0 0 0
62 0 2 0.5897 13.412643704066705 22.14780074864262 2.5009362958344896 0 0 0
425 0 2 0.5897 11.964965934230596 22.75932433955835 0.4207497040917373 0 0 0
591 0 2 0.5897 9.871707850294522 21.63857863487591 4.276708640154631 0 0 0
306 0 2 0.5897 14.287047107859168 19.61426566285908 2.0926334671508933 0 0 0
118 0 1 -1.1794 14.811536298676518 20.957037725011705 3.057500003991712 0 0 0
729 0 2 0.5897 17.348832182454068 22.381454562272822 2.2744569482360255 0 0 0
120 0 2 0.5897 15.4804669830089 21.613250188369726 2.8004492566599795 0 0 0
727 0 1 -1.1794 16.700198629198788 22.934364928756654 1.8946206684014149 0 0 0
728 0 2 0.5897 16.788729377221735 22.79175681401834 0.9997978626526575 0 0 0
119 0 2 0.5897 14.64130974231889 21.002318887893107 4.008968922248725 0 0 0
487 0 1 -1.1794 2.793390026181488 1.853033986587594 5.5989761664786855 0 0 0
488 0 2 0.5897 1.9491108623770936 2.2550273043044107 5.915019503694926 0 0 0
489 0 2 0.5897 2.785955725157601 0.9202654722183957 5.982730588624455 0 0 0
784 0 1 -1.1794 0.6286251163846516 2.936902907251297 6.730154886240916 0 0 0
785 0 2 0.5897 0.5262776541533131 3.2762149506240976 7.634450715607213 0 0 0
83 0 2 0.5897 4.529267736939776 2.551933834140283 6.230452913198973 0 0 0
183 0 2 0.5897 0.5680511848552248 4.7400566407652995 5.95553806546044 0 0 0
846 0 2 0.5897 7.6212096859084735 1.5791102138347186 4.664870880489175 0 0 0
82 0 1 -1.1794 5.36297817165821 2.9247153065917133 6.564711812003882 0 0 0
84 0 2 0.5897 6.152894613173011 2.4648225281305174 6.317128360917253 0 0 0
844 0 1 -1.1794 7.707382470710534 1.6115550310544615 5.673958342710192 0 0 0
845 0 2 0.5897 7.557178750341114 0.7233686270695193 5.993834909414234 0 0 0
275 0 2 0.5897 5.534880923673829 2.7784455705413786 8.572771516939246 0 0 0
419 0 2 0.5897 8.97849815236934 2.616261048704609 6.465506875914072 0 0 0
686 0 2 0.5897 5.482136603336107 4.699467564503919 5.980502999137543 0 0 0
177 0 2 0.5897 9.679206057034838 3.0840107687788656 8.765393660626755 0 0 0
418 0 1 -1.1794 9.589523627655511 3.1598332679107832 6.9735882289400415 0 0 0
420 0 2 0.5897 9.221703172052173 4.00072839320826 6.707044748327405 0 0 0
802 0 1 -1.1794 12.038428021516166 2.405845814110912 5.7384761692252315 0 0 0
803 0 2 0.5897 11.35380046409369 2.7492410857520255 6.320695721260163 0 0 0
804 0 2 0.5897 12.900120632221014 2.6073136985842766 6.1172865659182065 0 0 0
171 0 2 0.5897 12.31339028239643 0.4048772781413764 5.593180574584043 0 0 0
660 0 2 0.5897 16.277038199586293 1.582525339959331 4.678693992411654 0 0 0
786 0 2 0.5897 18.09766124423986 2.377017118070558 6.592935011324212 0 0 0
436 0 1 -1.1794 14.306489555660542 2.776712628207211 7.169326604752686 0 0 0
437 0 2 0.5897 14.263549531152979 2.5541121413536363 8.11292919821296 0 0 0
438 0 2 0.5897 15.104627075158412 2.3940275866113083 6.758541095978663 0 0 0
658 0 1 -1.1794 16.436812825855817 1.5027550131980028 5.6108104589535 0 0 0
659 0 2 0.5897 16.431012882209806 0.5755923849580035 5.853134287684698 0 0 0
10 0 1 -1.1794 2.807834735063097 6.859826403710983 6.6351299522903675 0 0 0
11 0 2 0.5897 2.0067440589692542 6.397042564924822 6.371959813446591 0 0 0
12 0 2 0.5897 2.803235429554399 7.692976420042035 6.168370996526216 0 0 0
650 0 2 0.5897 3.1020334471200197 7.119958610281382 8.419082273735487 0 0 0
181 0 1 -1.1794 0.5521600113215178 5.629474158115295 5.675534533649548 0 0 0
687 0 2 0.5897 4.557212942732312 5.909196311122179 6.020712525046455 0 0 0
685 0 1 -1.1794 5.375888475856824 5.574634543959389 5.575431143184815 0 0 0
145 0 1 -1.1794 7.486744747114648 7.148031887613738 6.538622032405727 0 0 0
146 0 2 0.5897 6.76589670261803 6.655135182721086 6.24701012063922 0 0 0
147 0 2 0.5897 7.482477755985313 6.969527720139181 7.500670447770526 0 0 0
714 0 2 0.5897 7.750116135669383 8.953552549225243 6.039725250255531 0 0 0
165 0 2 0.5897 8.806878564353262 6.309023958575007 6.063879884961735 0 0 0
163 0 1 -1.1794 9.627646735066845 5.7240418493196 6.092360908175057 0 0 0
164 0 2 0.5897 10.255450469915885 6.1782547459968695 6.6093890606586205 0 0 0
230 0 2 0.5897 12.13231138898739 8.865654630520181 6.145375715588737 0 0 0
391 0 1 -1.1794 12.145822375502304 7.1606013506170285 6.889186388452501 0 0 0
392 0 2 0.5897 12.065434946759119 7.08818412562208 7.837275246381638 0 0 0
393 0 2 0.5897 12.841821137407862 6.563381134472573 6.69396271197337 0 0 0
731 0 2 0.5897 14.636260371894723 5.549579488071129 5.131063515092811 0 0 0
732 0 2 0.5897 14.722600077437347 4.881796241981299 6.417570036346496 0 0 0
182 0 2 0.5897 18.08513812037905 6.095910841913898 6.188465025309036 0 0 0
730 0 1 -1.1794 14.742934722625924 5.796164967822361 6.073650100007589 0 0 0
525 0 2 0.5897 16.834588516983217 8.717851986818175 6.085143746375031 0 0 0
541 0 1 -1.1794 16.961412149861772 7.232325211087583 7.03222669438094 0 0 0
542 0 2 0.5897 16.081245100051312 6.7992261606381454 6.808635140016285 0 0 0
543 0 2 0.5897 16.83171497852245 7.21712847888456 8.019503103754708 0 0 0
793 0 1 -1.1794 2.7231495385742557 9.526246785362627 5.783803027490149 0 0 0
551 0 2 0.5897 0.5300824275684758 11.565446965823389 7.472152735393397 0 0 0
794 0 2 0.5897 1.9313830993068553 10.06756080570881 6.089951820615767 0 0 0
795 0 2 0.5897 3.500807603074502 10.080886434918394 5.951640965693291 0 0 0
550 0 1 -1.1794 0.5361854127814331 11.407563037627988 6.518561559680635 0 0 0
552 0 2 0.5897 0.5311204634041113 12.334613893336481 6.206669698702546 0 0 0
655 0 1 -1.1794 0.807563728637271 14.050662263908622 5.345004417310728 0 0 0
200 0 2 0.5897 5.5335339893310636 13.635610976719878 4.577237314706112 0 0 0
712 0 1 -1.1794 7.617325957834743 9.868697439462137 5.673465213368024 0 0 0
713 0 2 0.5897 8.335532215854823 10.465472281002215 5.992730690669325 0 0 0
577 0 1 -1.1794 4.916139759979616 11.009001267586438 6.29580049776847 0 0 0
578 0 2 0.5897 5.722982901358876 10.508973641565811 6.011000197224667 0 0 0
579 0 2 0.5897 5.108828594204315 11.970437947077242 6.111425466620836 0 0 0
582 0 2 0.5897 5.615012899367895 10.948684786851329 8.024305280769468 0 0 0
199 0 1 -1.1794 5.512432129930928 13.469321875780071 5.567594635930708 0 0 0
201 0 2 0.5897 6.301068772363701 13.89166678913422 5.916931883369149 0 0 0
229 0 1 -1.1794 11.905568880338217 9.670571646911556 5.601719162129731 0 0 0
231 0 2 0.5897 12.745563441005435 10.176775691967897 5.6257345873324756 0 0 0
807 0 2 0.5897 9.921073504166191 12.415566693684886 5.7817113990074045 0 0 0
805 0 1 -1.1794 10.153934720538935 13.234059244728867 5.298738132824711 0 0 0
739 0 1 -1.1794 9.909849360910327 11.095828336125741 6.81767150067884 0 0 0
740 0 2 0.5897 10.55327596302634 10.523597112472006 6.405576732910006 0 0 0
741 0 2 0.5897 9.958424138019028 11.05096851652532 7.800511279988712 0 0 0
857 0 2 0.5897 14.394889693448453 11.063268625470458 7.929600516907881 0 0 0
523 0 1 -1.1794 16.649154282872068 9.59864155256635 5.706791900502474 0 0 0
524 0 2 0.5897 17.333967367347803 10.15020101063128 6.0404665915243525 0 0 0
724 0 1 -1.1794 14.590662548561896 13.703377019556639 5.263001248401888 0 0 0
634 0 1 -1.1794 14.33611886997531 10.999599046112074 6.182436631663066 0 0 0
635 0 2 0.5897 15.15173975926661 10.548776219059054 5.852328895796996 0 0 0
636 0 2 0.5897 14.34114075380553 11.87867564019808 5.795528960389974 0 0 0
726 0 2 0.5897 13.94778503523914 14.152135579807059 5.840106340064251 0 0 0
725 0 2 0.5897 15.441462995663981 14.13813330716143 5.268979329801634 0 0 0
657 0 2 0.5897 0.15013293094086788 14.607906164074809 5.777530467509996 1 0 0
656 0 2 0.5897 1.5980987806171778 14.270852156841023 5.8715900143673085 0 0 0
18 0 2 0.5897 3.8290119224990726 14.303092843444329 6.647496190112335 0 0 0
17 0 2 0.5897 2.8891774712323848 14.279053976189179 7.89852381720216 0 0 0
16 0 1 -1.1794 2.9591951870883966 14.563606460608197 6.966219232662076 0 0 0
238 0 1 -1.1794 2.692009671089283 17.340817805999688 6.028659153255614 0 0 0
239 0 2 0.5897 2.889851402320741 16.518038369640045 6.4463123526118675 0 0 0
341 0 2 0.5897 1.4057596551607983 18.064508413083697 6.604285205413191 0 0 0
240 0 2 0.5897 3.526135400298871 17.8315471348297 5.9538662464093495 0 0 0
340 0 1 -1.1794 0.5949911829876752 18.618658746695036 6.831700919961065 0 0 0
342 0 2 0.5897 0.5619009917657766 18.64061006713148 7.775999458930617 0 0 0
519 0 2 0.5897 8.620667614729939 14.242429822864153 5.895161062395231 0 0 0
308 0 2 0.5897 7.456386924485304 17.49853470892292 4.876442656753609 0 0 0
517 0 1 -1.1794 7.853629608837137 14.641660613333295 6.401914157268959 0 0 0
307 0 1 -1.1794 7.596056837329198 17.376945000346474 5.854014359001963 0 0 0
518 0 2 0.5897 7.852715967919022 15.59352927880692 6.133488957623785 0 0 0
309 0 2 0.5897 8.323412197476733 17.918089585004758 6.102213203816364 0 0 0
386 0 2 0.5897 5.9697271175778095 18.320789766682427 6.133435731598493 0 0 0
378 0 2 0.5897 7.454437227584806 15.065950289314474 8.310701923403414 0 0 0
102 0 2 0.5897 5.264725592052077 18.752632106021295 8.841356629162306 0 0 0
385 0 1 -1.1794 5.102364268533629 18.749317499475524 6.354378125879259 0 0 0
642 0 2 0.5897 11.40422447373016 14.27905856013267 6.287351879876171 0 0 0
645 0 2 0.5897 12.0711754298965 17.13024300998295 4.611538797312455 0 0 0
640 0 1 -1.1794 12.133568713180638 14.762801066379302 6.743759282548907 0 0 0
641 0 2 0.5897 11.764833001007469 14.906567902735386 7.615363671175422 0 0 0
643 0 1 -1.1794 11.979313329926677 17.3249830519911 5.5998532432101324 0 0 0
644 0 2 0.5897 12.325037916543648 16.549273769994397 6.13800713845008 0 0 0
303 0 2 0.5897 10.585783006530539 18.28381322792176 6.023536435723839 0 0 0
301 0 1 -1.1794 9.89028746248597 18.81777384944717 6.448684010524211 0 0 0
348 0 2 0.5897 13.360482149082948 18.143591785743283 6.295213717712202 0 0 0
564 0 2 0.5897 16.19623301769233 17.64785431469223 4.8001133039273345 0 0 0
205 0 1 -1.1794 16.947848925011698 15.114482452757358 6.682104527307952 0 0 0
206 0 2 0.5897 16.787610692866735 16.040226756382893 6.4998134649227515 0 0 0
207 0 2 0.5897 16.78283335040775 14.937194309018608 7.6230185315765695 0 0 0
562 0 1 -1.1794 16.394397063969734 17.745655162670293 5.7553108378765145 0 0 0
563 0 2 0.5897 17.217650799852237 18.279192814198968 5.811773042759438 0 0 0
347 0 2 0.5897 14.837070095916426 18.344845647970175 6.4494177873682705 0 0 0
346 0 1 -1.1794 13.99745051869517 18.626711973080795 6.883578885077622 0 0 0
413 0 2 0.5897 0.8937273609017302 21.19384018415837 4.9864015032547355 0 0 0
414 0 2 0.5897 0.6843879593142368 20.262621995503164 6.275864278974907 0 0 0
700 0 1 -1.1794 2.9879903465691693 22.80063678991378 6.6623774930716495 0 0 0
701 0 2 0.5897 2.995581619442282 22.799659607949984 7.636270202354844 0 0 0
702 0 2 0.5897 2.242461762257896 22.31570958714095 6.327324571984075 0 0 0
412 0 1 -1.1794 0.7393119172010983 21.245213776309868 5.959017975453694 0 0 0
248 0 2 0.5897 4.290589508708778 21.910414294465077 5.903436471788022 0 0 0
249 0 2 0.5897 4.963817618477388 21.44756825784576 4.509814132566223 0 0 0
247 0 1 -1.1794 4.909950777987771 21.29197057558957 5.505569034299793 0 0 0
387 0 2 0.5897 5.23490317624797 19.715040126325718 6.110973758418676 0 0 0
31 0 1 -1.1794 7.574781411047425 22.227887608309842 6.473039901953655 0 0 0
32 0 2 0.5897 8.365909666325166 22.04505038062834 5.947958963861218 0 0 0
33 0 2 0.5897 6.790160315228894 21.796985637938338 6.061638842627203 0 0 0
86 0 2 0.5897 7.982418768234359 22.243734409512307 8.152459475522308 0 0 0
734 0 2 0.5897 10.324925756414213 18.92874278268915 8.375112609353422 0 0 0
169 0 1 -1.1794 12.171615063231103 22.91173482379186 6.0227609643458075 0 0 0
170 0 2 0.5897 12.894723661804969 22.318933527785408 5.737147783540476 0 0 0
302 0 2 0.5897 9.952636428640458 19.742055426123958 6.065770600552516 0 0 0
589 0 1 -1.1794 9.967214810275395 21.439067975065644 5.257334564446371 0 0 0
590 0 2 0.5897 10.779581431470948 21.891290652620253 5.538684140450396 0 0 0
330 0 2 0.5897 12.333146538605666 23.134075937634563 8.038907300721034 0 0 0
371 0 2 0.5897 14.123228210811519 18.896250196217142 8.610331305595926 0 0 0
534 0 2 0.5897 14.25821981143368 20.42048199657607 6.101599132504773 0 0 0
353 0 2 0.5897 17.645181748196443 22.04428036789454 6.540575423881367 0 0 0
352 0 1 -1.1794 16.816163074886653 22.515087694989898 6.720140407229951 0 0 0
354 0 2 0.5897 16.82254506255859 22.696604986651952 7.665044087613544 0 0 0
532 0 1 -1.1794 14.56698590353899 21.263759512968107 5.768894627824132 0 0 0
533 0 2 0.5897 15.407941125578406 21.474429266827414 6.252029307666313 0 0 0
34 0 1 -1.1794 0.6417608539577488 3.3262465564936856 9.705892072017301 0 0 0
36 0 2 0.5897 1.4641687292403738 2.829798714787455 9.733205592911087 0 0 0
167 0 2 0.5897 2.774857530359902 1.9187563109895063 11.992706394976338 0 0 0
673 0 1 -1.1794 3.1607517424372715 1.7274722623481882 10.395683054509483 0 0 0
674 0 2 0.5897 3.902624061028527 2.21019555658709 9.98089329068302 0 0 0
675 0 2 0.5897 3.304795629221943 0.8121019180547526 10.19031501152903 0 0 0
35 0 2 0.5897 0.9298689032390206 4.204226735346735 10.014053125191452 0 0 0
166 0 1 -1.1794 2.6073917838079157 1.7543717408392105 12.941429808541896 0 0 0
274 0 1 -1.1794 5.596344837022869 3.00822405852487 9.524632911522618 0 0 0
276 0 2 0.5897 6.249551375891734 2.357672302899645 9.908258714035567 0 0 0
355 0 1 -1.1794 7.593985720187961 1.486816413446027 10.428046228117871 0 0 0
357 0 2 0.5897 7.4443717825614435 1.2471155039475124 11.328085406157872 0 0 0
356 0 2 0.5897 7.755283358283974 0.6737944886221737 9.935492494482109 0 0 0
176 0 2 0.5897 8.990697122817563 2.675706365546453 10.1472934707462 0 0 0
592 0 1 -1.1794 7.415103467254953 1.3465017820443987 13.297717528179417 0 0 0
762 0 2 0.5897 5.299853987583326 4.525544352388714 13.302490478003628 0 0 0
175 0 1 -1.1794 9.719237193125286 3.2319963761663564 9.783410723870496 0 0 0
514 0 1 -1.1794 12.053451999961416 1.7717430700031427 10.314330899066212 0 0 0
515 0 2 0.5897 11.895599607957138 1.6180284942808079 11.25403594117201 0 0 0
516 0 2 0.5897 11.296708345894979 2.313159520342505 10.061025652200216 0 0 0
757 0 1 -1.1794 11.813621922833981 1.8644403291984029 13.019469340936038 0 0 0
758 0 2 0.5897 11.857413884607322 0.9720429467510144 13.31985895599305 0 0 0
329 0 2 0.5897 12.277550103786224 0.2798977154793507 9.525029795983766 0 1 0
849 0 2 0.5897 13.68310795877465 2.5903214324207076 10.236567054315282 0 0 0
654 0 2 0.5897 17.553086190861478 2.553191806626592 10.513672047479467 0 0 0
652 0 1 -1.1794 16.845867499192977 1.947236733458683 10.880459371972632 0 0 0
653 0 2 0.5897 16.82810704371611 2.053399677412796 11.845639518702475 0 0 0
847 0 1 -1.1794 14.44876730162439 3.108228771564255 9.93752595094503 0 0 0
848 0 2 0.5897 15.24022821686226 2.5540334328776506 10.133309870605201 0 0 0
131 0 2 0.5897 16.57141256923478 0.2186277192189506 10.329574211983758 0 0 0
649 0 1 -1.1794 3.197676957196546 7.2761851295654925 9.35025258181005 0 0 0
113 0 2 0.5897 0.7005852007534018 5.745146169893976 11.377125320529803 0 0 0
114 0 2 0.5897 1.7211019911521386 6.3212053117812825 10.33353128905032 0 0 0
257 0 2 0.5897 3.2279341115649642 9.178506390542601 9.619397393383375 0 0 0
651 0 2 0.5897 3.970740772397869 6.827727125382942 9.64979284592767 0 0 0
112 0 1 -1.1794 0.8578741467249135 5.94035420144379 10.484037629898925 0 0 0
332 0 2 0.5897 3.351250648500097 7.91819685468208 13.275542456632278 0 0 0
678 0 2 0.5897 5.380774972378939 4.79990874049762 9.853443922481912 0 0 0
526 0 1 -1.1794 7.616321195935536 7.1117031290762895 9.365881977135434 0 0 0
761 0 2 0.5897 5.325373024616333 5.362430288181716 11.947668346847454 0 0 0
527 0 2 0.5897 7.797286914390908 8.078645845078192 9.578640131665917 0 0 0
528 0 2 0.5897 8.409464049815512 6.651178417969344 9.704127154110088 0 0 0
676 0 1 -1.1794 5.537486812253443 5.639787808647883 10.305148220739932 0 0 0
677 0 2 0.5897 6.418394445967017 5.973693497196083 10.028801363796838 0 0 0
760 0 1 -1.1794 5.273481276358581 5.428685800675724 12.91486824431542 0 0 0
475 0 1 -1.1794 7.5784485357507565 9.351746081137295 12.87685872163582 0 0 0
705 0 2 0.5897 9.953790443382875 4.807818835922991 10.48838955551437 0 0 0
704 0 2 0.5897 9.843692223715387 5.785490588859431 11.657629840547129 0 0 0
703 0 1 -1.1794 9.89728262144009 5.748856247894929 10.631377723627315 0 0 0
313 0 1 -1.1794 12.084432753227171 7.215292078908373 9.692895773507392 0 0 0
314 0 2 0.5897 11.302648442749115 6.680016142258955 9.982654061134024 0 0 0
444 0 2 0.5897 12.005938894896685 8.824301218188499 10.141931146684751 0 0 0
315 0 2 0.5897 12.889038861833702 6.665617986240505 9.949893238934479 0 0 0
815 0 2 0.5897 13.549705030647255 6.042565494446638 13.146186231881847 0 0 0
545 0 2 0.5897 14.372599465980247 4.934186182642537 10.126444190591927 0 0 0
816 0 2 0.5897 14.339726581936482 5.4043720604479395 12.022429732772345 0 0 0
544 0 1 -1.1794 14.389268667063433 5.868105531160565 10.35055005427165 0 0 0
622 0 1 -1.1794 16.906740887763952 7.271304159530534 9.837223419070096 0 0 0
623 0 2 0.5897 17.78430788029099 6.866440261250766 9.949501983746565 0 0 0
546 0 2 0.5897 15.221628832714186 6.210423595837511 10.063829073003586 0 0 0
624 0 2 0.5897 16.92880225296814 8.189947624874335 10.082301600436278 0 0 0
814 0 1 -1.1794 14.368626627976182 5.582785457885908 12.966095422411074 0 0 0
193 0 1 -1.1794 16.663197663318968 9.363100082593196 12.87660123137854 0 0 0
194 0 2 0.5897 16.55587434452727 8.469541217974113 13.120088681387957 0 0 0
256 0 1 -1.1794 3.22945799946283 10.095823649675566 9.930537390501044 0 0 0
797 0 2 0.5897 3.270778891246194 9.796926717245858 11.75706029548636 0 0 0
258 0 2 0.5897 4.075804991862723 10.466550748648975 9.635983857987535 0 0 0
13 0 1 -1.1794 0.5709331715530706 10.972677588309223 9.316415853661496 0 0 0
15 0 2 0.5897 1.4745062893766925 10.697888167846436 9.15827469547631 0 0 0
14 0 2 0.5897 0.5654763347141665 11.766101279075436 9.894622760385369 0 0 0
766 0 1 -1.1794 0.5912461765733089 13.342997694135438 10.541743872690134 0 0 0
767 0 2 0.5897 0.5450869874906986 13.395766966279979 11.504078640994866 0 0 0
796 0 1 -1.1794 3.273299941620631 9.72010512999338 12.765725866379558 0 0 0
813 0 2 0.5897 2.0262631825141924 13.913841502281084 10.041524793075558 0 0 0
812 0 2 0.5897 3.603665623418614 14.151025254422574 9.947010644924942 0 0 0
637 0 1 -1.1794 0.5606090576124141 13.22094545622144 13.271786248635927 0 0 0