LAMMPS (29 Sep 2021 - Update 2)
  using 1 OpenMP thread(s) per MPI task
plugin load libdeepmd_lmp.so
Loading plugin: deepmd pair style v2.0 by Han Wang
Loading plugin: compute deeptensor/atom v2.0 by Han Wang
Loading plugin: fix dplr v2.0 by Han Wang
echo both

include		in.partitions
variable        pid world 0
include		in.temp
variable        temperature equal 275
variable        tempDamp equal 0.100
include		in.pressure
variable        pressure equal 0.986923
variable        pressureDamp equal 1.0 # This is 1 ps
include		in.seed
variable        seed world 745823

units           metal
atom_style	full
include		in.box
read_data       water.data
Reading data file ...
  orthogonal box = (0.0000000 0.0000000 0.0000000) to (18.207573 23.629177 22.213196)
  1 by 1 by 1 MPI processor grid
  reading atoms ...
  864 atoms
  reading velocities ...
  864 velocities
Finding 1-2 1-3 1-4 neighbors ...
  special bond factors lj:    0        0        0       
  special bond factors coul:  0        0        0       
     0 = max # of 1-2 neighbors
     0 = max # of 1-3 neighbors
     0 = max # of 1-4 neighbors
     1 = max # of special neighbors
  special bonds CPU = 0.000 seconds
  read_data CPU = 0.018 seconds
include 	in.setup
variable	out_freq equal 500
variable	out_freq2 equal 500

timestep        0.0005

neigh_modify    delay 7 every 1

include         in.deepmd
# This is deepMD model

# create groups ###
#group ox type 2
#group hy type 1

mass 2 15.999
mass 1 1.008

pair_style      deepmd ../graph.pb
pair_coeff      * *

bond_style      none
angle_style     none
dihedral_style  none
improper_style  none
neigh_modify exclude none


neighbor        2.0 bin
neigh_modify    every 10 delay 0 check no

thermo          ${out_freq}
thermo          500
thermo_style 	custom step temp pe etotal epair emol press lx ly lz xy xz yz vol pxx pyy pzz pxy pxz pyz cella cellb cellc cellalpha cellbeta cellgamma


restart 	${out_freq} restart.lmp.${pid} restart2.lmp.${pid}
restart 	500 restart.lmp.${pid} restart2.lmp.${pid}
restart 	500 restart.lmp.0 restart2.lmp.${pid}
restart 	500 restart.lmp.0 restart2.lmp.0


include         in.dump
dump            myDump all atom ${out_freq2} dump.water.${pid}
dump            myDump all atom 500 dump.water.${pid}
dump            myDump all atom 500 dump.water.0
dump            myDump2 all dcd ${out_freq2} dump.dcd
dump            myDump2 all dcd 500 dump.dcd
dump_modify     myDump append yes
dump_modify     myDump2 append yes


timer           timeout 23:50:00 every 1000
New timer settings: style=normal  mode=nosync  timeout=23:50:00

fix             2 all nph aniso ${pressure} ${pressure} ${pressureDamp}
fix             2 all nph aniso 0.986923 ${pressure} ${pressureDamp}
fix             2 all nph aniso 0.986923 0.986923 ${pressureDamp}
fix             2 all nph aniso 0.986923 0.986923 1
fix             3 all temp/csvr ${temperature} ${temperature} ${tempDamp} ${seed}
fix             3 all temp/csvr 275 ${temperature} ${tempDamp} ${seed}
fix             3 all temp/csvr 275 275 ${tempDamp} ${seed}
fix             3 all temp/csvr 275 275 0.1 ${seed}
fix             3 all temp/csvr 275 275 0.1 745823
velocity 	all create ${temperature} ${seed} dist gaussian
velocity 	all create 275 ${seed} dist gaussian
velocity 	all create 275 745823 dist gaussian

run             400000

CITE-CITE-CITE-CITE-CITE-CITE-CITE-CITE-CITE-CITE-CITE-CITE-CITE

Your simulation uses code contributions which should be cited:

- USER-DEEPMD package:

@article{Wang_ComputPhysCommun_2018_v228_p178,
  author = {Wang, Han and Zhang, Linfeng and Han, Jiequn and E, Weinan},
  doi = {10.1016/j.cpc.2018.03.016},
  url = {https://doi.org/10.1016/j.cpc.2018.03.016},
  year = 2018,
  month = {jul},
  publisher = {Elsevier {BV}},
  volume = 228,
  journal = {Comput. Phys. Commun.},
  title = {{DeePMD-kit: A deep learning package for many-body potential energy representation and molecular dynamics}},
  pages = {178--184}
}

CITE-CITE-CITE-CITE-CITE-CITE-CITE-CITE-CITE-CITE-CITE-CITE-CITE

Neighbor list info ...
  update every 10 steps, delay 0 steps, check no
  max neighbors/atom: 2000, page size: 100000
  master list distance cutoff = 8
  ghost atom cutoff = 8
  binsize = 4, bins = 5 6 6
  1 neighbor lists, perpetual/occasional/extra = 1 0 0
  (1) pair deepmd, perpetual
      attributes: full, newton on
      pair build: full/bin
      stencil: full/bin/3d
      bin: standard
Per MPI rank memory allocation (min/avg/max) = 7.189 | 7.189 | 7.189 Mbytes
Step Temp PotEng TotEng E_pair E_mol Press Lx Ly Lz Xy Xz Yz Volume Pxx Pyy Pzz Pxy Pxz Pyz Cella Cellb Cellc CellAlpha CellBeta CellGamma 
       0          275   -169.12462   -138.44796   -169.12462            0   -24187.858    18.207573    23.629177    22.213196            0            0            0    9556.7825   -24548.761   -23619.104   -24395.707   -7.4348081    314.84839    -226.3813    18.207573    23.629177    22.213196           90           90           90 
     500    256.96162   -147.88169   -119.21723   -147.88169            0   -4127.7555    18.018376    23.339149    21.944496            0            0            0    9228.3972   -7193.0119    -2630.188   -2560.0666   -1131.2226    -284.1887   -399.74554    18.018376    23.339149    21.944496           90           90           90 
    1000    255.46306   -142.48431   -113.98702   -142.48431            0     168.3958    17.802951     23.09951    21.824686            0            0            0    8975.1718    1428.4353   -1345.4359      422.188   -1077.3053    63.194376    682.12996    17.802951     23.09951    21.824686           90           90           90 
    1500    268.06681   -144.93428   -115.03102   -144.93428            0    1943.5787    18.054985    23.430969    22.218835            0            0            0    9399.5844    3166.5796    2116.9544    547.20216    148.64257    610.90694   -403.89857    18.054985    23.430969    22.218835           90           90           90 
    2000    281.51284   -143.53489    -112.1317   -143.53489            0    546.36258    18.101076    23.441392    22.177551            0            0            0    9410.2548    101.12937    1314.3182    223.64017    -2019.489   -1245.5381   -901.67868    18.101076    23.441392    22.177551           90           90           90 
    2500    281.99666   -143.31259   -111.85544   -143.31259            0   -3099.2009     18.05996    23.389393    22.016377            0            0            0     9299.971   -5032.3431   -2619.6861   -1645.5737    1834.5109   -673.68325    622.71526     18.05996    23.389393    22.016377           90           90           90 
    3000    285.50158   -142.74002   -110.89189   -142.74002            0   -253.11879    17.918438     23.39704    22.051487            0            0            0    9244.8304   -543.63711   -557.85233    342.13306   -1730.4055    196.32294    1952.2839    17.918438     23.39704    22.051487           90           90           90 
    3500     273.5558   -143.31982   -112.80426   -143.31982            0   -286.45856    17.936331    23.499554    22.195067            0            0            0    9355.1267   -1300.4317   -238.60135    679.65737    795.46173    1087.0285    122.29933    17.936331    23.499554    22.195067           90           90           90 
    4000    278.15534   -144.86277   -113.83412   -144.86277            0   -3285.5971    18.146279    23.594354    22.370165            0            0            0    9577.7799    27.074239   -4287.6426   -5596.2228     2775.717   -2178.7592    274.35306    18.146279    23.594354    22.370165           90           90           90 
    4500    267.75389   -143.41393   -113.54558   -143.41393            0    1405.2239    18.009792    23.212945    21.928513            0            0            0    9167.4412    297.39167    2142.9281    1775.3519    2839.9056    469.15914    1818.5991    18.009792    23.212945    21.928513           90           90           90 
    5000    283.63212   -144.24402   -112.60443   -144.24402            0   -155.91149     18.05393    23.268578    22.041172            0            0            0      9259.26    1259.0082     356.1437   -2082.8863    660.69254   -3792.8797    1738.9546     18.05393    23.268578    22.041172           90           90           90 
    5500    272.69688   -144.51131   -114.09156   -144.51131            0   -497.60728     18.17996    23.458577    22.285004            0            0            0    9504.0191    1682.5112    2089.4652   -5264.7983    163.22805    212.70503   -1087.0454     18.17996    23.458577    22.285004           90           90           90 
    6000     276.5029   -144.26845   -113.42413   -144.26845            0    4129.0497     18.05698    23.349236    22.154148            0            0            0    9340.5583    5323.4233    5684.7994    1378.9264   -259.08057    1560.1553    2105.2942     18.05698    23.349236    22.154148           90           90           90 
    6500    262.82002   -143.20893   -113.89096   -143.20893            0   -3711.8204    18.021867    23.407595     22.08007            0            0            0    9314.4459     -2283.29   -5175.3994   -3676.7717     1506.495   -248.90948    946.63827    18.021867    23.407595     22.08007           90           90           90 
    7000    271.79472    -141.7931   -111.47399    -141.7931            0   -969.76124    17.993678    23.506993    22.114241            0            0            0    9353.8216    2124.2827   -3597.2567   -1436.3097   -748.70615     928.2139   -927.29456    17.993678    23.506993    22.114241           90           90           90 
    7500    280.95465   -142.94733   -111.60641   -142.94733            0   -658.62404     18.15525    23.592553    22.274127            0            0            0    9540.6479    2376.5598   -3539.7249   -812.70705   -474.62001    1095.3648   -1234.8869     18.15525    23.592553    22.274127           90           90           90 
    8000    268.34138   -142.95141   -113.01753   -142.95141            0     2101.636    18.076784    23.288009    22.135661            0            0            0    9318.5002    3665.8203    961.90029    1677.1873   -1615.3333    1675.4395    1311.2231    18.076784    23.288009    22.135661           90           90           90 
    8500    280.21646   -144.50614   -113.24757   -144.50614            0    823.58354    18.057692    23.258513    22.091146            0            0            0    9278.1721   -516.71364    3093.5817   -106.11746   -15.638133    1286.0922   -842.52825    18.057692    23.258513    22.091146           90           90           90 
    9000    279.30367   -141.92253   -110.76579   -141.92253            0    179.05195    18.061048    23.454445    22.198006            0            0            0    9403.3388   -135.21885    339.03002    333.34468   -395.61485    1463.7245    1695.3663    18.061048    23.454445    22.198006           90           90           90 
    9500    280.23749   -142.84129   -111.58038   -142.84129            0   -1808.3236    18.072773    23.561045     22.22032            0            0            0    9461.7105   -2926.2879   -1732.9634   -765.71971   -216.62846   -971.76931     405.6584    18.072773    23.561045     22.22032           90           90           90 
   10000    285.22067   -143.00799   -111.19119   -143.00799            0    497.58358    18.036653    23.496984    22.054923            0            0            0    9347.0299     453.8855    793.83072    245.03453    298.08714    -1180.854    591.37501    18.036653    23.496984    22.054923           90           90           90 
   10500    289.11882   -140.75889   -108.50725   -140.75889            0   -450.32476    18.032455    23.403279    22.082564            0            0            0    9319.2523    449.45141    925.06957   -2725.4953    52.231906    1101.3921    145.85837    18.032455    23.403279    22.082564           90           90           90 
   11000    282.84015   -142.44607   -110.89483   -142.44607            0   -3101.1429    18.248541    23.492263    22.403173            0            0            0    9604.2295   -4160.6794   -3473.0464    -1669.703   -1682.0236   -1342.3369    86.177384    18.248541    23.492263    22.403173           90           90           90 
   11500     284.8276   -144.08241   -112.30947   -144.08241            0    989.67936     18.08181    23.168678    22.113755            0            0            0    9264.1513    2751.6832    3749.2683   -3531.9135   -1103.8966    410.40963   -1214.7392     18.08181    23.168678    22.113755           90           90           90 
   12000    274.00221   -141.92687   -111.36151   -141.92687            0    1146.6942    18.142795    23.426312    22.107985            0            0            0    9396.3091    1848.5479    1537.2623    54.272272   -1196.1784    472.08226   -31.256617    18.142795    23.426312    22.107985           90           90           90 
   12500    283.48157   -141.83506   -110.21226   -141.83506            0   -1610.9896    18.113259    23.641486    22.100972            0            0            0    9464.1744   -1475.6931   -2256.0209   -1101.2549   -1689.7357    6.2557395   -580.42417    18.113259    23.641486    22.100972           90           90           90 
   13000    287.22371   -142.04679   -110.00655   -142.04679            0    1420.1336    17.921746    23.459484    22.070038            0            0            0    9279.0144     5187.505   -1111.5903    184.48597    742.28997    -2472.094   -352.50719    17.921746    23.459484    22.070038           90           90           90 
   13500    276.41413   -144.04691    -113.2125   -144.04691            0   -181.52868     18.12088     23.47992    22.371604            0            0            0    9518.5986   -981.79201    2487.4491   -2050.2431   -1575.6524   -156.78437   -67.972055     18.12088     23.47992    22.371604           90           90           90 
   14000    266.34977   -142.91853   -113.20681   -142.91853            0   -4093.8336    18.148125    23.402425    22.227685            0            0            0    9440.3232   -5169.1868   -1652.2585   -5460.0554    1330.6931   -1190.7228   -31.608335    18.148125    23.402425    22.227685           90           90           90 
   14500    273.49677   -144.05789   -113.54891   -144.05789            0    1293.0775    18.055159    23.392555       21.987            0            0            0    9286.3482    3517.2263    -641.8518    1003.8579    -1144.542    948.76411     468.0373    18.055159    23.392555       21.987           90           90           90 
   15000     274.7036   -143.12149   -112.47789   -143.12149            0     134.8644    18.126393    23.574591    22.159401            0            0            0    9469.2059    2786.8569   -567.95694   -1814.3067    37.683038     654.9498    374.02553    18.126393    23.574591    22.159401           90           90           90 
   15500    283.25512   -144.00376   -112.40623   -144.00376            0   -896.70586     18.07003    23.494637    22.239693            0            0            0    9441.8347   -1719.7884   -2161.8323    1191.5031    22.968204    1957.4861   -1528.2754     18.07003    23.494637    22.239693           90           90           90 
   16000    290.43278   -144.91701    -112.5188   -144.91701            0    2316.6365    18.006873    23.285634    22.129829            0            0            0    9279.0693    3904.5552    2575.3007    470.05362     735.0042    1741.1578    -865.4692    18.006873    23.285634    22.129829           90           90           90 
   16500    282.76128   -143.73983   -112.19739   -143.73983            0    211.72387    18.196804    23.421888    22.189002            0            0            0    9457.0304    734.42124   -1435.8797      1336.63    985.47377   -1593.8495   -213.52806    18.196804    23.421888    22.189002           90           90           90 
   17000    276.61505   -143.28018   -112.42336   -143.28018            0    387.16226    18.250904    23.461027    22.050263            0            0            0     9441.591   -1174.9606    -1134.139    3470.5864    1131.2234    133.99118    2208.1826    18.250904    23.461027    22.050263           90           90           90 
   17500    272.08719   -142.56635   -112.21461   -142.56635            0    2362.6812    18.145564    23.341486    22.016894            0            0            0    9325.1331    136.42929    3573.3075    3378.3069   -2601.7868   -1129.3724   -1338.4961    18.145564    23.341486    22.016894           90           90           90 
   18000    263.73999   -143.30837   -113.88778   -143.30837            0   -1793.2157    18.043159    23.569088    22.388645            0            0            0     9521.013   -1865.3222   -1219.7097   -2294.6151     274.7382   -1576.8826   -431.28975    18.043159    23.569088    22.388645           90           90           90 
   18500    280.97529   -144.23832   -112.89511   -144.23832            0    2373.9199    17.795553    23.547667    22.356671            0            0            0    9368.4234    3156.0667    4598.3318   -632.63868    2712.1297   -1410.5746    1196.7484    17.795553    23.547667    22.356671           90           90           90 
   19000    279.52565   -144.37822   -113.19671   -144.37822            0   -183.85893    17.975587    23.590139    22.193233            0            0            0    9410.9651    920.40915     1264.499    -2736.485    1531.7176   -297.51943    1090.2976    17.975587    23.590139    22.193233           90           90           90 
   19500     277.6335   -142.79866   -111.82823   -142.79866            0   -588.90506    18.360314    23.521357    22.038947            0            0            0    9517.7288   -1408.7671    582.94801   -940.89604    195.59101    1123.1217    1121.9356    18.360314    23.521357    22.038947           90           90           90 
   20000    268.03223   -143.27518   -113.37578   -143.27518            0    784.19449    18.282051    23.176407    21.956038            0            0            0    9303.0423   -1774.8122    1368.8121    2758.5836    652.80566    20.474035   -1120.6876    18.282051    23.176407    21.956038           90           90           90 
   20500    275.78552   -144.48432   -113.72003   -144.48432            0   -1524.0288    18.181005    23.272631     22.33394            0            0            0    9449.9328   -1718.6807   -2875.5014    22.095561     273.1627    1321.8927    1667.1162    18.181005    23.272631     22.33394           90           90           90 
   21000    273.69225   -144.36824   -113.83746   -144.36824            0    -153.5748    18.028362    23.477233    22.415143            0            0            0    9487.3454    357.93265    1849.2008   -2667.8578   -1777.2945   -252.09924   -336.25859    18.028362    23.477233    22.415143           90           90           90 
   21500    277.09275   -145.99517   -115.08506   -145.99517            0    3285.0097    17.950161    23.600119     22.08636            0            0            0    9356.3545    3739.1827   -969.17851    7085.0249    1076.6898    271.57289   -553.06083    17.950161    23.600119     22.08636           90           90           90 
   22000    268.51962   -143.00693   -113.05316   -143.00693            0    869.43039     18.08753    23.687742    22.039093            0            0            0    9442.7098    1959.3865   -276.68808    925.59277   -1549.6263    475.70978   -544.59666     18.08753    23.687742    22.039093           90           90           90 
   22500    264.03036     -142.385   -112.93202     -142.385            0    364.36319    18.129719    23.487749     22.17227            0            0            0    9441.5358   -591.38496    855.81774    828.65678    1683.1332   -1207.5712    61.995649    18.129719    23.487749     22.17227           90           90           90 
   23000    262.41396   -143.14281   -113.87013   -143.14281            0   -869.56938    18.123878    23.227491    22.242104            0            0            0    9363.3077    612.05077    499.77931   -3720.5382    498.63294    2033.6556     1903.715    18.123878    23.227491    22.242104           90           90           90 
   23500    266.87453   -141.90976   -112.13951   -141.90976            0   -1844.8597    18.200213    23.353308    22.333109            0            0            0    9492.3571    -1670.827   -2175.6287   -1688.1234    396.34326   -1900.0432   -277.97332    18.200213    23.353308    22.333109           90           90           90 
   24000    289.24378   -142.42404   -110.15847   -142.42404            0   -1454.5412    18.036828     23.39017    22.130164            0            0            0    9336.3728     344.0625    -2960.987   -1746.6992    1119.9739    799.50303    2474.7995    18.036828     23.39017    22.130164           90           90           90 
   24500    273.60649   -142.66916   -112.14795   -142.66916            0   -464.56792    18.054576    23.621745    22.103554            0            0            0    9426.7367   -691.26024   -1491.9102    789.46667     472.7104     136.9516   -509.32552    18.054576    23.621745    22.103554           90           90           90 
   25000    278.93971   -141.85806   -110.74191   -141.85806            0   -1023.6248    18.107517    23.719392    22.165957            0            0            0     9520.263   -284.75088   -1004.8155   -1781.3079    747.84309    872.98189    838.95175    18.107517    23.719392    22.165957           90           90           90 
   25500    277.39067   -141.35328   -110.40993   -141.35328            0    557.60839    18.054001    23.401144    22.202458            0            0            0    9380.1891   -515.61389    3113.1017   -924.66265   -2439.4717   -680.48188   -524.75403    18.054001    23.401144    22.202458           90           90           90 
   26000    292.22621   -142.82814   -110.22986   -142.82814            0    2104.6513    18.051836    23.195818      22.3387            0            0            0    9353.8188    3555.8026    3128.5105   -370.35917   -1730.6751   -432.74017   -56.532606    18.051836    23.195818      22.3387           90           90           90 
   26500    272.03373   -142.65943   -112.31366   -142.65943            0   -989.03905    18.212939    23.434535    22.277762            0            0            0    9508.4108    -2705.069    68.337688   -330.38586   -1882.5078   -998.17348   -920.04458    18.212939    23.434535    22.277762           90           90           90 
   27000    278.64608   -141.66448   -110.58109   -141.66448            0    1323.1325    18.221639    23.737023    21.912677            0            0            0    9477.8345    372.62026    3256.9642    339.81291   -624.31722   -215.31449    212.08471    18.221639    23.737023    21.912677           90           90           90 
   27500    289.65634   -143.97905   -111.66745   -143.97905            0    708.34616    17.894456    23.652735    21.861686            0            0            0    9253.0205    1920.2611   -60.331905    265.10928   -1996.2852    27.574572    698.33069    17.894456    23.652735    21.861686           90           90           90 
   28000    267.82262   -142.98844   -113.11242   -142.98844            0   -1674.1952    17.949443     23.59319     22.39332            0            0            0    9483.2268   -2876.7861   -4398.0119    2252.2125    3556.2503    94.554389    -203.9521    17.949443     23.59319     22.39332           90           90           90 
   28500    279.04727   -142.57045   -111.44231   -142.57045            0    145.73221    18.041323    23.372768    22.403792            0            0            0    9447.1335    214.96956      651.412   -429.18492    1748.2868    1420.5203    684.20835    18.041323    23.372768    22.403792           90           90           90 
   29000    265.40692   -141.71202   -112.10548   -141.71202            0     1108.715    18.184809    23.307923    22.171728            0            0            0    9397.4901    1236.1663   -96.797509    2186.7762    230.07767    361.31005   -1425.0013    18.184809    23.307923    22.171728           90           90           90 
   29500    288.57942   -142.76898   -110.57751   -142.76898            0    -1239.622    18.197598    23.427546    22.065356            0            0            0    9407.0142    1115.8401   -3137.6257   -1697.0804   -1660.3744   -883.97025    2147.4215    18.197598    23.427546    22.065356           90           90           90 
   30000    294.07764   -140.87705   -108.07224   -140.87705            0   -1877.6361    18.170379    23.632972     22.15407            0            0            0    9513.4023    718.82921   -5066.9074   -1284.8301    790.80851   -456.55058   -2435.0515    18.170379    23.632972     22.15407           90           90           90 
   30500    286.67814   -142.51641   -110.53704   -142.51641            0   -1235.4349    18.035996    23.594317      22.2369            0            0            0    9462.8462   -2391.4177    317.90794   -1632.7949   -2949.6392    -612.4706    2197.0207    18.035996    23.594317      22.2369           90           90           90 
   31000    288.75829    -142.5866   -110.37517    -142.5866            0    320.54543    17.925092    23.364468    22.286474            0            0            0    9333.8031   -2384.8241    1817.4534     1529.007   -1072.0734   -2212.5922    106.24706    17.925092    23.364468    22.286474           90           90           90 
   31500    281.40992   -142.82895   -111.43725   -142.82895            0    677.94183    18.104988    23.338455     22.37992            0            0            0    9456.4662    887.93376     379.0885    766.80321   -335.74931   -1419.5184    298.77228    18.104988    23.338455     22.37992           90           90           90 
   32000    274.50016   -142.48362   -111.86272   -142.48362            0     259.9903    18.250022     23.42434    22.145376            0            0            0    9467.0314   -2021.7006    1400.6521    1401.0194    2283.3102   -936.53545    596.44395    18.250022     23.42434    22.145376           90           90           90 
   32500    268.65893   -141.59784   -111.62854   -141.59784            0   -744.34297     18.23954     23.54557     21.93488            0            0            0    9420.1621    101.52853   -993.40295   -1341.1545    644.43357    -906.0314    2431.5365     18.23954     23.54557     21.93488           90           90           90 
   33000    278.95522     -143.016   -111.89812     -143.016            0    1666.3348    18.038992    23.535386    22.131314            0            0            0    9395.9519   -343.53988      1277.43    4065.1141    1414.7761   -400.75204   -2846.2831    18.038992    23.535386    22.131314           90           90           90 
   33500    271.26057   -141.76473   -111.50521   -141.76473            0   -1627.8819     17.85696    23.499123    22.470214            0            0            0    9429.0167   -127.75991   -1887.8808    -2868.005    712.56924    211.09262    1655.5367     17.85696    23.499123    22.470214           90           90           90 
   34000    272.24666   -144.99606   -114.62654   -144.99606            0    810.56838     17.94254    23.591293     22.27528            0            0            0    9428.8521    4532.4831   -1078.2972   -1022.4809   -498.11088    460.88731    1896.2788     17.94254    23.591293     22.27528           90           90           90 
   34500    270.02298   -144.65443   -114.53296   -144.65443            0    372.16154     18.19885    23.554765    21.916549            0            0            0    9394.9591   -3294.2657     3010.253    1400.4974   -231.49242   -2201.4318    -356.6685     18.19885    23.554765    21.916549           90           90           90 
   35000    260.02999   -143.95173     -114.945   -143.95173            0    -120.3949    18.280236     23.39282    21.946375            0            0            0    9384.8465    2652.5764   -820.85052   -2192.9106   -589.88331   -479.99652   -720.42387    18.280236     23.39282    21.946375           90           90           90 
   35500    273.14803   -144.48982   -114.01975   -144.48982            0    2561.3708    18.086071    23.244794    22.248364            0            0            0    9353.3679   -1914.3479    6803.0407    2795.4195    1916.0317    -1862.244    790.94071    18.086071    23.244794    22.248364           90           90           90 
   36000    267.45606   -143.33062   -113.49549   -143.33062            0    1186.8639    18.039242    23.370945    22.434252            0            0            0    9458.1488    3517.0096    1298.1989   -1254.6166    489.46465    766.17066    501.82062    18.039242    23.370945    22.434252           90           90           90 
   36500    267.99412   -142.37507   -112.47992   -142.37507            0     965.4398    18.069037    23.522135    22.243331            0            0            0    9453.9124    3169.2252    509.92814   -782.83393   -567.42193   -396.92244   -826.27159    18.069037    23.522135    22.243331           90           90           90 
   37000     273.9995   -142.67467   -112.10961   -142.67467            0    371.09846    18.037844    23.525414    22.001332            0            0            0    9336.2156    1177.6316   -3463.5601    3399.2239    2183.9663    178.30241    1504.5265    18.037844    23.525414    22.001332           90           90           90 
   37500    267.37659   -142.65453   -112.82827   -142.65453            0   -2355.9382    18.085115    23.539488    22.095542            0            0            0    9406.3891   -5203.0115   -2198.6492    333.84618   -1215.2584   -17.440077    1938.4555    18.085115    23.539488    22.095542           90           90           90 
   38000    279.14621   -142.54545   -111.40627   -142.54545            0   -1523.7958    18.137318     23.50213    22.298727            0            0            0    9505.1799   -4030.2039    2783.7482   -3324.9318    1476.6754   -377.27806    1187.2684    18.137318     23.50213    22.298727           90           90           90 
   38500    280.25525   -143.04784   -111.78495   -143.04784            0    2783.5488    18.002612    23.240029    22.209237            0            0            0    9291.9278     418.1148    4401.1201    3531.4114    1054.0747   -1302.4251   -265.96119    18.002612    23.240029    22.209237           90           90           90 
   39000    274.48231   -143.25555   -112.63663   -143.25555            0    1382.0519    18.084411    23.369332    22.216601            0            0            0    9389.1931    1463.9524    1161.2629    1520.9403   -85.456802   -1253.5752    2415.7086    18.084411    23.369332    22.216601           90           90           90 
   39500    284.39784   -143.51462   -111.78962   -143.51462            0    1004.5054    18.181783    23.581063    22.191594            0            0            0    9514.5519   -1249.7068    1885.2194    2378.0035   -27.814457    1270.7681    199.30954    18.181783    23.581063    22.191594           90           90           90 
   40000    272.78629   -143.27817   -112.84845   -143.27817            0    -2053.878    18.022002    23.482212    22.141929            0            0            0    9370.3861   -298.40753   -5746.7311   -116.49531    1323.1161    348.90598     290.8711    18.022002    23.482212    22.141929           90           90           90 
   40500    262.48047   -142.52935   -113.24926   -142.52935            0   -5455.1112    18.011169    23.541197    22.349944            0            0            0    9476.4762   -5552.2531    -5734.559   -5078.5214   -855.84875   -1658.7816   -2134.2124    18.011169    23.541197    22.349944           90           90           90 
   41000    274.76991   -143.17411   -112.52311   -143.17411            0    2494.1281    17.968673    23.322287    22.234612            0            0            0    9317.8709    3416.5745    3315.7153    750.09464    989.00595    890.58349    307.16368    17.968673    23.322287    22.234612           90           90           90 
   41500    273.00284   -142.36558    -111.9117   -142.36558            0   -125.16433    18.309571    23.537721    22.166797            0            0            0    9553.1266   -574.46818    470.63348    -271.6583   -398.23105   -1090.6766    1491.9006    18.309571    23.537721    22.166797           90           90           90 
   42000    282.11443   -143.35696   -111.88668   -143.35696            0   -1756.1103    18.375238    23.559376     22.00755            0            0            0    9527.2692   -1660.6975   -49.928054   -3557.7053     -643.553    1397.2926    982.13094    18.375238    23.559376     22.00755           90           90           90 
   42500    273.08881   -141.92972   -111.46625   -141.92972            0    2175.7545    17.986452    23.294805     21.96334            0            0            0    9202.4396    1983.6367    2524.5446    2019.0822     25.91007    197.88679   -391.58655    17.986452    23.294805     21.96334           90           90           90 
   43000    270.58972   -141.23436   -111.04967   -141.23436            0   -2737.6423    18.018803    23.510235    22.420649            0            0            0    9497.9762   -2170.4188   -3843.5203   -2198.9879    1078.2879    435.89145    898.30943    18.018803    23.510235    22.420649           90           90           90 
   43500    279.84728   -143.87956   -112.66217   -143.87956            0   -172.32589    18.045267    23.539044    22.393171            0            0            0    9511.9101   -4081.8559    2695.1595    869.71872   -1276.0361    734.08067    1573.5556    18.045267    23.539044    22.393171           90           90           90 
   44000    270.43431   -142.85572   -112.68836   -142.85572            0    -986.7925    18.070931    23.485139    22.091041            0            0            0     9375.401   -738.63664   -1930.6483   -291.09253    462.68889    817.02355   -1441.3472    18.070931    23.485139    22.091041           90           90           90 
   44500    284.70777   -143.22318    -111.4636   -143.22318            0    1961.7322     18.13757    23.458803    21.969712            0            0            0    9347.7979    363.69455    5891.0695    -369.5673   -660.29044   -861.15363    -1344.009     18.13757    23.458803    21.969712           90           90           90 
   45000    266.06535   -143.89674   -114.21675   -143.89674            0    1633.7321    18.196287    23.499029    22.146442            0            0            0    9469.7096    1235.4224    1922.5395    1743.2344   -687.50317   -199.14218    -1434.102    18.196287    23.499029    22.146442           90           90           90 
   45500     259.8919   -143.04893    -114.0576   -143.04893            0    1648.0046    18.069849    23.421658    22.298759            0            0            0    9437.4103    1471.2646    2512.5014     960.2479    1250.1831    282.36218    764.15255    18.069849    23.421658    22.298759           90           90           90 
   46000    267.13729   -142.50606   -112.70649   -142.50606            0   -1060.8697    17.938991    23.431889    22.271849            0            0            0    9361.8478   -451.01809   -2356.2277   -375.36335   -298.38298   -1537.2232    1722.1271    17.938991    23.431889    22.271849           90           90           90 
   46500    268.88821   -142.59038   -112.59549   -142.59038            0   -2142.8433    18.053901    23.610517     22.19318            0            0            0    9460.1078   -569.70073   -3267.2808   -2591.5484   -1237.1339    729.49053   -1427.4081    18.053901    23.610517     22.19318           90           90           90 
   47000    275.23386   -142.54621   -111.84346   -142.54621            0   -2939.9198    18.259366    23.667268    22.132576            0            0            0    9564.5773   -4994.4682   -4126.4708    301.17979   -354.82944    254.87736    123.55235    18.259366    23.667268    22.132576           90           90           90 
   47500    270.67143   -141.71307   -111.51926   -141.71307            0    982.69696     18.15965    23.286265    22.018429            0            0            0    9310.9425    -839.5929    656.71481     3130.969   -374.89371   -2635.6299   -830.33698     18.15965    23.286265    22.018429           90           90           90 
   48000    266.93449   -140.76148   -110.98454   -140.76148            0   -2085.3613    18.209974    23.336748    22.336867            0            0            0    9492.3103   -4679.1695    -859.4939   -717.42049   -1653.8568    90.477482   -1076.8724    18.209974    23.336748    22.336867           90           90           90 
   48500    260.76181   -140.75405   -111.66567   -140.75405            0     426.2283    18.151006    23.458488    22.414301            0            0            0    9543.9007   -1853.0225    2125.6897    1006.0177   -254.76776   -2232.5597    1098.4524    18.151006    23.458488    22.414301           90           90           90 
   49000    283.98355    -142.0447    -110.3659    -142.0447            0    1257.1211     17.93623    23.453309     22.13376            0            0            0    9310.8748    861.25909    4307.7049   -1397.6007   -82.920842   -526.18747    809.86547     17.93623    23.453309     22.13376           90           90           90 
   49500    288.73616   -139.33005    -107.1211   -139.33005            0   -870.76937    18.183094     23.83563     22.25285            0            0            0    9644.5077   -714.35165   -2916.8296    1018.8731   -583.64229    1200.5118    -505.0633    18.183094     23.83563     22.25285           90           90           90 
   50000    284.58015   -141.59137   -109.84603   -141.59137            0   -102.41359    18.113636    23.597948    22.146237            0            0            0    9466.2901   -3671.6216    412.79145    2951.5893   -69.577827    403.43855    -402.0555    18.113636    23.597948    22.146237           90           90           90 
   50500    275.34982   -142.81786   -112.10217   -142.81786            0   -2664.9632    18.075415    23.345055    22.162842            0            0            0    9352.0893   -926.04286   -2828.9874   -4239.8594   -1493.7602    2157.9276   -378.17657    18.075415    23.345055    22.162842           90           90           90 
   51000    285.16478   -142.89294   -111.08237   -142.89294            0    1130.7034    18.181864    23.427995    22.295073            0            0            0    9496.9122    1798.9296   -1934.9419    3528.1226   -278.49005    809.14096   -343.38241    18.181864    23.427995    22.295073           90           90           90 
   51500    275.63497   -143.40459   -112.65709   -143.40459            0   -967.69852    18.188186    23.548715    22.257339            0            0            0    9533.0054    1831.7077   -2503.2443    -2231.559    2268.2413   -1854.9252   -187.35847    18.188186    23.548715    22.257339           90           90           90 
   52000     258.9661   -143.40371   -114.51565   -143.40371            0    847.89574    18.010187    23.491344    22.042124            0            0            0    9325.6589    772.53859   -1209.9601    2981.1087   -1267.3338    2046.3344    1713.4157    18.010187    23.491344    22.042124           90           90           90 
   52500    280.51572   -142.06474   -110.77279   -142.06474            0    -561.1021      18.1546    23.629383    22.184553            0            0            0    9516.7737    705.03076   -372.38933   -2015.9477   -463.38015   -2226.1512    46.568889      18.1546    23.629383    22.184553           90           90           90 
   53000    281.59773   -144.27009   -112.85744   -144.27009            0   -1264.9327     18.16734    23.444242    22.194772            0            0            0    9453.1865   -3126.6849   -180.63879   -487.47441   -373.05559    1340.7252    782.84349     18.16734    23.444242    22.194772           90           90           90 
   53500    270.63854   -142.68362   -112.49348   -142.68362            0    -1283.206    18.046166     23.31846    22.121598            0            0            0    9308.9632    1599.2689   -2648.2718   -2800.6153     1290.915     169.2549   -564.74045    18.046166     23.31846    22.121598           90           90           90 
   54000    277.96809   -142.34373   -111.33598   -142.34373            0   -3402.1475    18.206118    23.620373    22.343757            0            0            0     9608.604   -4676.5946   -3964.3685   -1565.4795    25.157041    169.87428   -232.89255    18.206118    23.620373    22.343757           90           90           90 
   54500    272.86229    -144.8589    -114.4207    -144.8589            0   -835.65392    18.088118    23.532984    22.090062            0            0            0    9403.0192   -332.20987     1307.369   -3482.1209   -788.72322    438.48646   -903.80402    18.088118    23.532984    22.090062           90           90           90 
   55000    277.81803   -144.12507   -113.13405   -144.12507            0    3102.1542    18.028339    23.494981    21.988575            0            0            0    9313.8214    2714.6046    3255.4672    3336.3908   -669.39628   -1422.3692    83.359337    18.028339    23.494981    21.988575           90           90           90 
   55500     271.6219    -143.6933   -113.39347    -143.6933            0    594.57663    18.146418    23.648721    22.235176            0            0            0    9541.9938    -122.6845    636.73026    1269.6841     3024.256    650.51917    379.44154    18.146418    23.648721    22.235176           90           90           90 
   56000    281.33889   -142.66483   -111.28105   -142.66483            0    3766.0383    18.087887    23.486025    22.204371            0            0            0    9432.6954    7310.5824    3190.3522    797.18026    -227.3886    623.39171   -449.65453    18.087887    23.486025    22.204371           90           90           90 
   56500    277.27675   -141.63138   -110.70074   -141.63138            0    2192.0334    18.147504    23.454911     22.19381            0            0            0     9446.753    1226.9958    705.81145    4643.2928   -755.58979   -146.38617   -58.648778    18.147504    23.454911     22.19381           90           90           90 
   57000    273.16504   -142.21564   -111.74367   -142.21564            0   -1429.4208    18.148944    23.395327    22.113919            0            0            0    9389.5807   -464.11047    331.04681   -4155.1988   -1754.6229   -335.27611    1842.8121    18.148944    23.395327    22.113919           90           90           90 
   57500    285.22099   -143.79229   -111.97546   -143.79229            0    546.59773    18.041786    23.482624    22.104896            0            0            0    9365.1477    1893.5343   -981.04049    727.29941   -1102.6614    598.26317    1816.7245    18.041786    23.482624    22.104896           90           90           90 
   58000    276.19987   -142.60949   -111.79898   -142.60949            0    1699.4694    18.074971    23.704268     22.30425            0            0            0     9556.344     4065.334    2431.1525   -1398.0782   -1262.3571    270.63587    -648.8291    18.074971    23.704268     22.30425           90           90           90 
   58500    273.24665   -143.34851   -112.86743   -143.34851            0     1196.338    18.002787    23.497254    22.161776            0            0            0    9374.7875    1246.3945    1748.2012    594.41836    -1275.501    437.23762    916.20824    18.002787    23.497254    22.161776           90           90           90 
   59000    277.76276   -142.09315   -111.10829   -142.09315            0    18.844297    18.167653     23.35066    22.134096            0            0            0    9389.8745    2749.0179   -2109.9149   -582.57009    -131.1929   -549.16084    977.81227    18.167653     23.35066    22.134096           90           90           90 
   59500    280.61121   -142.97481   -111.67221   -142.97481            0   -182.79416    18.363437    23.387722    22.204738            0            0            0    9536.4681   -239.59657    2822.9193   -3131.7052    1307.3949     1429.206   -1352.1291    18.363437    23.387722    22.204738           90           90           90 
   60000    272.66916   -142.73751   -112.32085   -142.73751            0   -2040.7931    18.157733    23.403178    22.158572            0            0            0    9416.2555    1357.8031    -2518.456   -4961.7264   -1898.0844   -105.50269    962.91358    18.157733    23.403178    22.158572           90           90           90 
   60500    272.56602   -143.45499   -113.04984   -143.45499            0    1492.7499    17.885199    23.581644     22.20975            0            0            0    9367.2371    564.86174    1810.9795    2102.4085     765.0407    43.369324   -308.24727    17.885199    23.581644     22.20975           90           90           90 
   61000    268.86845   -142.06701   -112.07433   -142.06701            0   -152.36062    17.864727    23.778041       22.333            0            0            0    9486.7955    2671.1503   -211.13695   -2917.0952   -163.95479    1500.4671    709.26166    17.864727    23.778041       22.333           90           90           90 
   61500    276.24399   -142.61441   -111.79898   -142.61441            0   -637.89492    17.967939    23.560556    22.221151            0            0            0    9406.9834   -949.45362   -21.912599   -942.31856   -353.92069    961.35181    1935.6377    17.967939    23.560556    22.221151           90           90           90 
   62000    271.36041   -141.45111   -111.18045   -141.45111            0    1375.7889    18.280275    23.314232    22.162279            0            0            0    9445.3545   -319.07692    2025.9059    2420.5377    1252.4484    814.39692   -542.81177    18.280275    23.314232    22.162279           90           90           90 
   62500    269.82332   -141.93961   -111.84041   -141.93961            0    1054.8443    18.372875    23.198381     22.12359            0            0            0    9429.5379    2470.3337    2370.0397   -1675.8406    1617.1777    62.119863    1555.3114    18.372875    23.198381     22.12359           90           90           90 
   63000    282.66593   -141.13028   -109.59848   -141.13028            0   -1093.1436    18.166479    23.356998    22.155038            0            0            0    9400.7021   -2073.2192   -1121.2793   -84.932265    723.16405   -412.23893   -1470.5823    18.166479    23.356998    22.155038           90           90           90 
   63500    271.10347   -142.70085   -112.45885   -142.70085            0    2244.1391    17.943678    23.832879    22.246015            0            0            0    9513.4975    4627.3565   -280.19853    2385.2593    2034.9078   -1518.4909    248.08818    17.943678    23.832879    22.246015           90           90           90 
   64000    278.57892   -141.96265   -110.88676   -141.96265            0   -747.04691    17.849814    23.869843    22.236572            0            0            0    9474.3863   -634.04669   -1196.9011   -410.19294   -888.73357    510.64976   -1200.9594    17.849814    23.869843    22.236572           90           90           90 
   64500    273.01858   -141.97379   -111.51816   -141.97379            0    795.95083    17.965625    23.481949    22.144209            0            0            0     9341.931    1146.5216   -226.08408    1467.4149    4052.4776    1095.1726   -1272.2618    17.965625    23.481949    22.144209           90           90           90 
   65000    267.14599   -143.79726   -113.99672   -143.79726            0    153.69003     18.25825    23.413062    22.250459            0            0            0    9511.6602    1761.6468   -366.54715   -934.02959    206.89087    614.61428    89.037038     18.25825    23.413062    22.250459           90           90           90 
   65500     268.0109   -142.76899   -112.87197   -142.76899            0   -3475.3338    18.187603    23.346138    22.158776            0            0            0    9408.8447   -5573.0354   -983.72041   -3869.2456   -1043.5689   -5.1800872    640.97945    18.187603    23.346138    22.158776           90           90           90 
   66000    276.60509    -141.5965   -110.74079    -141.5965            0    1428.6399     18.14924    23.448494    22.147395            0            0            0    9425.3192    2478.0169    -1945.865    3753.7678   -1584.9249   -1817.0919   -227.93744     18.14924    23.448494    22.147395           90           90           90 
   66500    276.95563   -141.37668   -110.48186   -141.37668            0    769.73433    18.138763    23.619696    22.232871            0            0            0    9525.2753    398.86009    1571.4638    338.87913   -1168.9056    1342.0089   -185.32187    18.138763    23.619696    22.232871           90           90           90 
   67000    276.09795   -143.61501   -112.81587   -143.61501            0   -1508.8513    17.954502    23.578083     22.22585            0            0            0    9408.9299    476.28566   -3618.7195     -1384.12    1495.9534    1242.0694    234.77213    17.954502    23.578083     22.22585           90           90           90 
   67500    275.28627   -143.77962   -113.07102   -143.77962            0    921.88154    17.980305    23.541237    22.291705            0            0            0    9435.6023    1379.2258    658.48424    727.93462   -1290.0581   -33.679536   -151.97167    17.980305    23.541237    22.291705           90           90           90 
   68000    270.21478   -143.12188   -112.97901   -143.12188            0    1731.6648    18.166417    23.360211    22.200133            0            0            0    9421.0998   -1042.1848    2182.3533    4054.8258   -2243.0008    850.28305   -307.56049    18.166417    23.360211    22.200133           90           90           90 
   68500    275.49259   -142.34785   -111.61623   -142.34785            0    1841.3677    18.308336    23.261537    22.163759            0            0            0    9439.1025   -1371.0521     4799.911    2095.2441   -2201.6304   -844.58789    1560.3424    18.308336    23.261537    22.163759           90           90           90 
   69000    268.90173   -143.61386   -113.61747   -143.61386            0    281.48577    18.250002    23.389262    22.215802            0            0            0    9482.9057    251.05093   -1828.0957    2421.5021    965.94091    -662.3493   -455.33202    18.250002    23.389262    22.215802           90           90           90 
   69500    272.97326   -144.30329   -113.85272   -144.30329            0   -593.26016    17.914639     23.54606    22.154718            0            0            0     9345.285    1081.6963    -2113.362   -748.11483    1096.9931   -2071.6409   -894.71679    17.914639     23.54606    22.154718           90           90           90 
   70000    267.36423   -142.64772   -112.82283   -142.64772            0    1128.0866    17.851787    23.725958    22.204957            0            0            0     9404.926     2658.231    1101.2918   -375.26301   -839.73707    641.39363    131.59396    17.851787    23.725958    22.204957           90           90           90 
   70500    270.32685   -142.60038   -112.44501   -142.60038            0    -618.6181    18.080069    23.659913    22.252267            0            0            0    9518.9156    59.247871   -2282.6143    367.51215   -196.61609   -841.06346   -440.71172    18.080069    23.659913    22.252267           90           90           90 
   71000    272.05353   -142.69605   -112.34807   -142.69605            0    933.32543    18.241797    23.302573     22.06016            0            0            0    9377.3503   -87.641374    404.78847    2482.8292   -451.73036   -614.04862    637.07411    18.241797    23.302573     22.06016           90           90           90 
   71500    272.65958   -143.29065   -112.87506   -143.29065            0   -1645.0017    18.338991    23.257686    22.131179            0            0            0     9439.446   -2734.1702    225.10956   -2425.9445   -1935.5714    919.13416    1821.4339    18.338991    23.257686    22.131179           90           90           90 
   72000    294.84743    -141.7254   -108.83472    -141.7254            0    4104.2584    18.162825    23.344958    22.228916            0            0            0    9425.2915    5756.5977    2537.1051    4019.0725    3326.6903    1135.8184    488.06232    18.162825    23.344958    22.228916           90           90           90 
   72500    278.73696   -141.87652   -110.78299   -141.87652            0    1821.1302    17.954078    23.533698    22.292433            0            0            0    9419.1294    1007.7272    3920.0597    535.60366   -1171.6591    374.13142    1124.7303    17.954078    23.533698    22.292433           90           90           90 
   73000    275.74485   -143.20174   -112.44199   -143.20174            0   -1520.4602     17.89299    23.742559    22.186253            0            0            0    9425.2834    948.51008   -2745.1927   -2764.6978   -5.6565178    182.53705    956.35224     17.89299    23.742559    22.186253           90           90           90 
   73500    273.23641   -142.90057   -112.42064   -142.90057            0   -482.52788    18.013941    23.650552    22.012784            0            0            0    9378.3184   -3050.7193   -1282.2406    2885.3762    3202.2779   -1134.7329    217.55313    18.013941    23.650552    22.012784           90           90           90 
   74000    274.95233   -143.12785    -112.4565   -143.12785            0   -1.7138348    18.334416    23.415241      22.1543            0            0            0    9510.9467   -592.89328    910.20603   -322.45426    1973.2913   -1700.2652    610.32314    18.334416    23.415241      22.1543           90           90           90 
   74500     275.5385   -142.15442   -111.41769   -142.15442            0    254.30833    18.288847    23.012362    22.227849            0            0            0    9355.0253    -534.9936    2665.2865   -1367.3679    574.77574   -404.14868    258.05658    18.288847    23.012362    22.227849           90           90           90 
   75000    275.33302   -142.51553   -111.80171   -142.51553            0    2492.7408    18.176367    23.210191    22.271764            0            0            0    9395.9438    2261.3607    2548.2034    2668.6583   -1431.4036    492.43463    255.86795    18.176367    23.210191    22.271764           90           90           90 
   75500     267.9649   -143.00864   -113.11676   -143.00864            0   -3074.0243     18.08938    23.713413      22.2197            0            0            0    9531.3832   -1560.7146   -1695.7602   -5965.5981   -2638.6204   -1108.1765   -63.105577     18.08938    23.713413      22.2197           90           90           90 
   76000    282.72193   -143.85582   -112.31777   -143.85582            0    621.52353     17.91691    23.693498    22.064274            0            0            0    9366.5991    4202.6025   -928.92728   -1409.1046    1216.6166     257.3944    2486.4403     17.91691    23.693498    22.064274           90           90           90 
   76500    263.51018   -145.35229   -115.95733   -145.35229            0   -1375.3118    17.992193    23.578148    22.184169            0            0            0    9411.0256   -50.581618   -3146.6933   -928.66043   -1082.1267   -1021.8864    807.54098    17.992193    23.578148    22.184169           90           90           90 
   77000    257.04794   -143.80722   -115.13314   -143.80722            0   -3080.1026     18.11296    23.378001    22.243136            0            0            0      9418.74   -790.94982   -5218.3794   -3230.9784   -2981.3825    406.70739    270.27163     18.11296    23.378001    22.243136           90           90           90 
   77500    266.78852   -142.64835   -112.88769   -142.64835            0    1638.7658    18.218959    23.299192    22.204294            0            0            0    9425.4348    2485.2427    2055.0291    376.02573    812.01698   -131.79641    98.420224    18.218959    23.299192    22.204294           90           90           90 
   78000    281.46928   -141.07279   -109.67447   -141.07279            0     1647.223    18.188062    23.378785    22.113494            0            0            0    9402.9848    1262.0762    2210.2677    1469.3252    2028.0572   -1490.7225    1777.1937    18.188062    23.378785    22.113494           90           90           90 
   78500    273.08174   -144.09924   -113.63656   -144.09924            0    -1032.829    18.122863    23.713832    22.072547            0            0            0    9485.9538   -3980.9242   -721.36208    1603.7993    605.20796   -13.537395    -426.6339    18.122863    23.713832    22.072547           90           90           90 
   79000    271.57907   -143.86577   -113.57072   -143.86577            0    1180.3327    17.924556    23.678199    22.160167            0            0            0    9405.2449    -404.0775    1839.2199    2105.8556   -1068.9696   -55.927515    661.47534    17.924556    23.678199    22.160167           90           90           90 
   79500    279.45577   -142.11884   -110.94513   -142.11884            0     1057.676    17.884273    23.434892    22.340643            0            0            0    9363.3214    2680.4074    2094.4561   -1601.8355    373.96044   -473.49973    369.36807    17.884273    23.434892    22.340643           90           90           90 
   80000    282.18717   -141.87616   -110.39776   -141.87616            0   -2156.4727    18.203291    23.387871    22.409776            0            0            0    9540.6531   -798.29111   -1025.5597   -4645.5672     1285.478    852.13745    447.83912    18.203291    23.387871    22.409776           90           90           90 
   80500    278.39001   -142.72455   -111.66973   -142.72455            0   -637.24927    18.258263    23.278424    22.056278            0            0            0    9374.4382   -917.83507     3463.327   -4457.2397   -1552.2844   -495.53947   -68.670099    18.258263    23.278424    22.056278           90           90           90 
   81000    270.52162   -142.79471   -112.61762   -142.79471            0   -1267.0516    18.234463    23.463732    22.055599            0            0            0    9436.4563   -4894.1847    151.53159     941.4983    1361.7187   -163.24573    900.63364    18.234463    23.463732    22.055599           90           90           90 
   81500    266.62303   -142.56049   -112.81829   -142.56049            0   -1751.8266    18.096649    23.545743    22.217266            0            0            0    9466.7556   -724.64316     88.54337   -4619.3799    -283.3479    1229.4385     -1022.95    18.096649    23.545743    22.217266           90           90           90 
   82000    273.44443   -144.09834    -113.5952   -144.09834            0   -1670.1697    18.019585    23.436577    22.226017            0            0            0    9386.4337   -1348.2097   -706.47661   -2955.8228   -439.04197   -14.466907   -1404.5579    18.019585    23.436577    22.226017           90           90           90 
   82500    294.32486   -142.65549   -109.82311   -142.65549            0   -1552.0669    18.137295    23.494791    22.233951            0            0            0    9474.5968   -1801.2645    -706.0995   -2148.8365   -368.13133     -200.684   -336.61479    18.137295    23.494791    22.233951           90           90           90 
   83000     272.4235   -141.29492   -110.90567   -141.29492            0   -2883.4191    18.181161      23.4507    22.146265            0            0            0    9442.3027   -3268.3339   -491.85418   -4890.0692    1977.4676   -1850.1909   -837.18289    18.181161      23.4507    22.146265           90           90           90 
   83500    271.23677   -141.78974   -111.53287   -141.78974            0    984.87903    18.136768    23.330118    22.075543            0            0            0     9340.889    317.94372    1927.7751    708.91826     2198.906    1358.6797    1110.9617    18.136768    23.330118    22.075543           90           90           90 
   84000    284.40402   -141.12307   -109.39737   -141.12307            0   -531.90484    18.185825    23.451042    22.334777            0            0            0    9525.2586    198.44323   -1245.6448   -548.51297    568.20407    -818.6341   -403.62553    18.185825    23.451042    22.334777           90           90           90 
   84500    280.29785   -142.14497   -110.87733   -142.14497            0   -2343.9237    18.066237    23.452771    22.257453            0            0            0    9430.5567   -4060.9619   -1271.6802    -1699.129    1057.2309    839.42861    1496.7067    18.066237    23.452771    22.257453           90           90           90 
   85000    280.45553   -143.69975   -112.41451   -143.69975            0    2767.6495    18.016625    23.433573    22.044743            0            0            0    9307.1558    2297.3872    3530.2837    2475.2775    1560.2865   -588.88018   -1188.1157    18.016625    23.433573    22.044743           90           90           90 
   85500    280.25083   -141.73281   -110.47041   -141.73281            0   -1481.5298    18.278231    23.666419    22.079162            0            0            0    9551.0098   -1129.2457   -5993.4405    2678.0967      -1706.1   -769.87442    1883.0784    18.278231    23.666419    22.079162           90           90           90 
   86000    275.20196   -142.30172   -111.60253   -142.30172            0   -2829.3655    18.265186    23.488266    22.113641            0            0            0    9487.1398   -3845.5975   -2017.6042   -2624.8949    1659.2352   -731.83461    1093.2749    18.265186    23.488266    22.113641           90           90           90 
   86500    262.76294   -142.42532   -113.11372   -142.42532            0    3258.7634     18.05534    23.195086    22.230008            0            0            0    9309.8196    3338.4256    2365.9599    4071.9048    35.591105   -1372.9564    505.75024     18.05534    23.195086    22.230008           90           90           90 
   87000    271.13827   -144.42331   -114.17743   -144.42331            0   -2167.6318    18.066096    23.290083    22.432209            0            0            0    9438.5956   -1593.8626   -1112.9879   -3796.0449    1905.1868     694.0685   -26.321237    18.066096    23.290083    22.432209           90           90           90 
   87500    282.77711   -144.04854   -112.50433   -144.04854            0   -998.95765    18.044245    23.534053    22.192736            0            0            0     9424.239   -2442.2431   -1044.7853     490.1554   -800.94414    649.73849    292.30152    18.044245    23.534053    22.192736           90           90           90 
   88000    277.88716   -142.58333    -111.5846   -142.58333            0    688.08025    18.063879    23.737694    21.960656            0            0            0    9416.6155   -470.15069    1846.5603    687.83116    1649.2089   -583.37956   -231.76515    18.063879    23.737694    21.960656           90           90           90 
   88500    279.09989     -144.258   -113.12399     -144.258            0   -2292.2546    18.098574     23.67234    22.064632            0            0            0    9453.2734    -4830.047   -2720.9225    674.20574    2330.8894    217.65453    101.25964    18.098574     23.67234    22.064632           90           90           90 
   89000    258.91241   -143.48923   -114.60716   -143.48923            0    1412.3735    18.118115    23.295942    22.261331            0            0            0    9396.0309   -647.21768    1503.6483    3380.6899    889.00183    507.89797    766.26769    18.118115    23.295942    22.261331           90           90           90 
   89500    267.47258   -145.06192   -115.22495   -145.06192            0   -166.53672    18.128275    23.074225    22.318655            0            0            0     9335.802    424.70481   -1224.4088    300.09379    1282.5728    1614.0319    367.64544    18.128275    23.074225    22.318655           90           90           90 
   90000    270.78758   -145.14075   -114.93398   -145.14075            0    243.94425    18.258291    23.451202    22.296218            0            0            0    9546.7695    3858.2789     -625.498   -2500.9482   -1853.3561    452.43028     356.2166    18.258291    23.451202    22.296218           90           90           90 
   90500    276.29594   -143.24435   -112.42313   -143.24435            0    2001.6442    18.105246    23.707098    21.963241            0            0            0    9427.1248     3874.781    450.69396    1679.4578    882.47151    842.61609   -1227.3088    18.105246    23.707098    21.963241           90           90           90 
   91000    266.84574   -142.06713   -112.30009   -142.06713            0    -412.5283    18.023168    23.692364    21.974274            0            0            0    9383.2666   -167.10816   -507.90643   -562.57031    958.46438    1690.6282   -749.15675    18.023168    23.692364    21.974274           90           90           90 
   91500    263.45483   -144.63987   -115.25109   -144.63987            0   -1152.5358    18.000202    23.533376    22.242375            0            0            0    9421.9928   -640.25592   -335.89949   -2481.4521   -601.14471   -1563.4392   -1901.4829    18.000202    23.533376    22.242375           90           90           90 
   92000    274.39791   -143.97366   -113.36416   -143.97366            0    656.20025     18.08606    23.360293     22.33921            0            0            0    9438.2193    4037.6673    -1638.345   -430.72157   -1086.2362   -2011.2173    980.51785     18.08606    23.360293     22.33921           90           90           90 
   92500    269.45676   -142.93182   -112.87351   -142.93182            0   -1116.1092    18.219002    23.417647    22.200099            0            0            0    9471.5869   -2356.0756   -2922.1613    1929.9094    1421.6119   -287.42227    -83.56892    18.219002    23.417647    22.200099           90           90           90 
   93000    277.48499   -143.50132   -112.54745   -143.50132            0    2866.4061    18.210494    23.462749    22.031178            0            0            0    9413.2231    1114.0365    2623.0906    4862.0911   -1951.3777    459.66916     -654.491    18.210494    23.462749    22.031178           90           90           90 
   93500    274.43315   -143.63286   -113.01943   -143.63286            0   -3861.2389    18.097447    23.562618    22.161571            0            0            0    9450.2088   -3343.4839   -5034.7199   -3205.5129   -1071.3815   -55.488769   -730.49609    18.097447    23.562618    22.161571           90           90           90 
   94000    266.41895   -142.96938   -113.24995   -142.96938            0    -190.9942    17.897741    23.504904    22.277931            0            0            0    9371.9842    866.21647    1996.0378   -3435.2368    2799.9616   -557.06607     1004.045    17.897741    23.504904    22.277931           90           90           90 
   94500    266.79016   -143.25036   -113.48952   -143.25036            0    907.23255    18.019702    23.604537    22.394276            0            0            0    9525.3316    3619.1632    -307.2348   -590.23076     -2752.42    1376.3447   -354.87884    18.019702    23.604537    22.394276           90           90           90 
   95000    253.64736   -143.07586   -114.78112   -143.07586            0    348.94016    18.166476    23.343476    22.092603            0            0            0    9368.7811   -89.089456   -711.81308     1847.723   -5.9123744   -577.60282    911.07321    18.166476    23.343476    22.092603           90           90           90 
   95500    275.64265   -143.49953   -112.75118   -143.49953            0   -102.25847     18.27982    23.248098    21.992162            0            0            0    9346.0325    263.65205   -1132.5285    562.10105   -164.37637   -1459.0187   -224.27348     18.27982    23.248098    21.992162           90           90           90 
   96000    271.20934   -141.94334   -111.68953   -141.94334            0   -711.90816    18.301591    23.462237     22.27957            0            0            0    9566.7641   -3681.0047    168.07474    1377.2054    602.37045    -676.8566   -1113.1071    18.301591    23.462237     22.27957           90           90           90 
   96500    272.95727   -141.67807   -111.22928   -141.67807            0    774.42405    17.968275    23.408616    22.266642            0            0            0    9365.6269    1744.7015   -685.77151    1264.3422    876.42769    775.50741    1395.9089    17.968275    23.408616    22.266642           90           90           90 
   97000    270.76581   -142.35624   -112.15191   -142.35624            0    3351.1904    17.953127    23.579669    22.232461            0            0            0    9411.6406     5221.534    4305.7646    526.27254    885.75857   -876.46552   -204.89175    17.953127    23.579669    22.232461           90           90           90 
   97500    282.56021   -143.59665   -112.07663   -143.59665            0    -2413.732    18.082064    23.596756    22.079712            0            0            0    9420.9282   -3594.8859   -2241.8107   -1404.4995    854.46533    1814.6099    1259.2775    18.082064    23.596756    22.079712           90           90           90 
   98000    276.51875   -144.66874   -113.82266   -144.66874            0   -1106.4743    18.207664     23.47533    22.072224            0            0            0    9434.3508    18.517411   -4417.5985    1079.6581   -1152.2867     1375.676    1729.7385    18.207664     23.47533    22.072224           90           90           90 
   98500    271.16472   -142.54848   -112.29965   -142.54848            0   -40.979025    18.149064    23.276972    22.128036            0            0            0    9348.1053   -52.165503   -264.54751    193.77594    1465.0809    493.35583    110.02804    18.149064    23.276972    22.128036           90           90           90 
   99000    267.52712   -142.56226   -112.71921   -142.56226            0    1056.9962    18.049683    23.337447    22.308654            0            0            0    9397.1527   -121.28156    2960.6065    331.66379    486.66905   -1314.8403   -926.83633    18.049683    23.337447    22.308654           90           90           90 
   99500    290.65294   -142.86339   -110.44062   -142.86339            0   -295.67379    17.992213    23.594923    22.347674            0            0            0    9487.1439    2658.7241   -944.45378   -2601.2917    -951.0384    1641.6927    962.46651    17.992213    23.594923    22.347674           90           90           90 
  100000    275.22274   -141.84698   -111.14547   -141.84698            0    1003.6956    18.024205    23.758197    22.088859            0            0            0    9458.9492    1214.1532     801.0081    995.92563    1502.9695   -601.46214    1768.2382    18.024205    23.758197    22.088859           90           90           90 
  100500    278.82887   -142.57411   -111.47033   -142.57411            0   -1664.7486    18.155196    23.641119    21.883877            0            0            0    9392.7604   -3575.4764   -4390.7027    2971.9333    478.21648   -263.72128   -424.73888    18.155196    23.641119    21.883877           90           90           90 
  101000    274.66769   -143.28767   -112.64808   -143.28767            0   -350.59419    18.299289     23.32471    22.099947            0            0            0    9432.8233   -1099.2561    1511.6691   -1464.1955    338.50581   -893.44471    983.49998    18.299289     23.32471    22.099947           90           90           90 
  101500    267.37158   -142.40003   -112.57433   -142.40003            0   -1073.2001    18.222411    23.163065    22.390362            0            0            0    9450.6785   -1566.0584    362.38331   -2015.9251   -1056.6166    1359.3251    1323.4021    18.222411    23.163065    22.390362           90           90           90 
  102000    268.56635   -142.58354   -112.62456   -142.58354            0   -490.21203    18.054953    23.350405    22.355877            0            0            0    9425.0249   -856.86873     549.7335   -1163.5009    2399.8676    862.48489    54.933187    18.054953    23.350405    22.355877           90           90           90 
  102500    271.49459   -142.75922   -112.47359   -142.75922            0   -2777.7556    17.951914    23.737789    22.116708            0            0            0    9424.7861   -1059.5985   -6093.4651   -1180.2032    209.78441   -794.79691    1303.7565    17.951914    23.737789    22.116708           90           90           90 
  103000    276.54938   -142.66649   -111.81699   -142.66649            0    1127.1401    17.918482     23.75637    21.944084            0            0            0    9341.1161   -439.43392    -165.0081    3985.8623    1647.6706    1647.3071   -275.22178    17.918482     23.75637    21.944084           90           90           90 
  103500    265.32387    -143.2155   -113.61822    -143.2155            0   -1987.6332    18.144994    23.660167    22.186023            0            0            0    9524.7609   -1435.0011    -2052.399   -2475.4996   -1129.7925     -138.006    1003.1935    18.144994    23.660167    22.186023           90           90           90 
  104000    285.44775   -143.45632   -111.61419   -143.45632            0    -940.4445    18.234325    23.267606     22.29626            0            0            0    9459.6134   -2942.9019    1618.7583   -1497.1899    412.08647   -675.25481    305.62654    18.234325    23.267606     22.29626           90           90           90 
  104500    273.51053   -143.36503   -112.85452   -143.36503            0   -2367.9573    18.233588    23.136715    22.217321            0            0            0    9372.7178   -1306.1551    891.32834   -6689.0451   -178.22029    1470.1433   -548.32009    18.233588    23.136715    22.217321           90           90           90 
  105000    284.95608   -143.07137   -111.28409   -143.07137            0   -813.49412     18.18026    23.366116    22.224943            0            0            0    9441.2017   -3232.1448    1393.9128   -602.25027   -475.90801    47.748682    95.507107     18.18026    23.366116    22.224943           90           90           90 
  105500    272.87111    -141.0623   -110.62312    -141.0623            0    1495.5809    18.060649    23.647334    22.202148            0            0            0    9482.2309     14.41579    39.500952    4432.8258   -146.69624   -143.05852     840.0232    18.060649    23.647334    22.202148           90           90           90 
  106000    271.41223   -142.41055    -112.1341   -142.41055            0    856.23059    17.970253    23.707312    22.162118            0            0            0    9441.6467    1802.8349   -1859.1714    2625.0283   -2597.0572    -1618.968    946.48679    17.970253    23.707312    22.162118           90           90           90 
  106500    276.19168    -143.1798    -112.3702    -143.1798            0    2444.3606    18.007182    23.527631    22.177278            0            0            0    9395.7661    2261.4294    905.10866    4166.5436   -414.15746     2243.613   -300.34267    18.007182    23.527631    22.177278           90           90           90 
  107000     273.4143   -143.19095   -112.69117   -143.19095            0    934.64004    18.137127    23.419269    22.251516            0            0            0    9451.5156   -198.14309    3867.4877   -865.42448    2561.3745    1094.4339   -784.09821    18.137127    23.419269    22.251516           90           90           90 
  107500    267.47587    -141.7724   -111.93507    -141.7724            0    119.11555    18.182317    23.299029    22.214987            0            0            0    9410.9424   -912.33486    109.16174    1160.5198    63.441596    277.49562   -495.34606    18.182317    23.299029    22.214987           90           90           90 
  108000    278.70387   -142.49014    -111.4003   -142.49014            0    1599.5197    18.195683    23.419594    22.220952            0            0            0     9469.137    2698.3961   -367.06032    2467.2234   -119.52398    361.88394   -1652.9974    18.195683    23.419594    22.220952           90           90           90 
  108500    291.42145   -142.89829   -110.38979   -142.89829            0    -2141.529    18.117121    23.561311    22.165224            0            0            0    9461.5168   -247.41333   -3950.6049   -2226.5688   -1476.4246   -513.07033    1261.5168    18.117121    23.561311    22.165224           90           90           90 
  109000    264.24436   -142.11773   -112.64088   -142.11773            0    875.23802    18.016184    23.554326    22.069892            0            0            0     9365.559    3010.3652   -2036.8398    1652.1886    -122.8105   -976.52986   -736.27175    18.016184    23.554326    22.069892           90           90           90 
  109500     274.6854   -141.91309   -111.27152   -141.91309            0   -3114.5639     18.10607    23.525263    22.307571            0            0            0    9501.9115   -5704.1143   -2343.4112   -1296.1661     76.59147    941.16317   -263.74024     18.10607    23.525263    22.307571           90           90           90 
  110000    277.93626   -143.08454   -112.08033   -143.08454            0   -1124.0387    18.097674    23.252783    22.463501            0            0            0    9453.1191   -229.04695    -684.7493   -2458.3198    598.63315   -2133.9743   -1024.4774    18.097674    23.252783    22.463501           90           90           90 
  110500    266.98258   -143.34018   -113.55787   -143.34018            0    3016.9598    18.101439      23.1748    22.240568            0            0            0    9329.8569    930.98597    4685.4185    3434.4749   -911.72352    2296.0736    740.29506    18.101439      23.1748    22.240568           90           90           90 
  111000    269.33497   -142.24946   -112.20473   -142.24946            0     1017.429    18.268331     23.69109    21.959388            0            0            0    9503.9505    1656.7909    2343.8729    -948.3769   -2645.1304    99.545472   -1639.6991    18.268331     23.69109    21.959388           90           90           90 
  111500    270.49858   -142.10869   -111.93416   -142.10869            0    274.05554    18.186271    23.869235    21.859722            0            0            0     9489.139     1833.666   -1464.7153    453.21591    1542.7215    54.545193    1510.2304    18.186271    23.869235    21.859722           90           90           90 
[...]
  373500    265.70877   -143.27689   -113.63667   -143.27689            0    178.08851    18.067364    23.594185    22.292366            0            0            0    9502.8956    1514.3421    1836.4146   -2816.4912     2004.902   -849.12359   -504.40744    18.067364    23.594185    22.292366           90           90           90 
  374000    283.94096   -143.23982   -111.56578   -143.23982            0   -628.35815    18.143376    23.483979    22.066797            0            0            0    9402.1915   -1872.0957   -2383.7758    2370.7971   -1360.9155   -626.31897    268.14639    18.143376    23.483979    22.066797           90           90           90 
  374500    279.63792   -140.79546   -109.60143   -140.79546            0   -1136.7277    18.276461    23.529889     22.15806            0            0            0     9528.921   -4386.2663   -418.19188    1394.2751    405.98848    210.15034    79.530637    18.276461    23.529889     22.15806           90           90           90 
  375000    290.09173   -142.05109   -109.69092   -142.05109            0    73.155624    18.201597    23.460987    22.220048            0            0            0    9488.5699    223.32579   -324.35752     320.4986   -859.39193   -547.48559    450.02205    18.201597    23.460987    22.220048           90           90           90 
  375500    281.67156   -143.31594   -111.89506   -143.31594            0    46.408244    17.977217     23.34435    22.166801            0            0            0    9302.6625    93.315122    233.48118   -187.57157    61.935523   -12.829543    1208.1229    17.977217     23.34435    22.166801           90           90           90 
  376000    278.48405   -142.40091   -111.33559   -142.40091            0    130.12208    18.101995    23.640989    22.282048            0            0            0    9535.5815     2017.232   -2634.8233    1007.9575    1764.4692   -789.03652   -562.38887    18.101995    23.640989    22.282048           90           90           90 
  376500    287.53672   -141.83462   -109.75946   -141.83462            0    -1838.471    18.094352    23.582053    22.165413            0            0            0    9458.0254   -3968.5967    -2876.684    1329.8678    869.81901    663.22535     1833.304    18.094352    23.582053    22.165413           90           90           90 
  377000    267.30251   -143.33273   -113.51473   -143.33273            0    449.52591    18.109106    23.494746    22.198333            0            0            0    9444.6991    974.87548    159.72212    213.98012   -10.464981   -562.45381   -718.87573    18.109106    23.494746    22.198333           90           90           90 
  377500    267.44298   -142.45158   -112.61792   -142.45158            0    2535.3024    18.171628     23.42628    22.215861            0            0            0    9457.1511    2675.5069    3667.7899    1262.6103    1880.3425   -1448.4014     1485.587    18.171628     23.42628    22.215861           90           90           90 
  378000    279.45277   -143.28737     -112.114   -143.28737            0    762.11861    18.172593    23.405626    22.208272            0            0            0    9446.0865    1121.7029    2437.8617   -1273.2088    1725.6028    152.51408   -2071.3905    18.172593    23.405626    22.208272           90           90           90 
  378500    265.44315   -142.98874   -113.37816   -142.98874            0   -535.90979    18.166383     23.48506    22.253153            0            0            0    9494.0541   -1387.9156    572.42451   -792.23825   -953.21007   -464.64896    1943.1501    18.166383     23.48506    22.253153           90           90           90 
  379000    277.28278   -142.75959   -111.82827   -142.75959            0    1302.9712    17.978388    23.514145    22.136413            0            0            0    9358.0893   -234.27363    3791.3425     351.8447    303.01486    789.02305   -439.40489    17.978388    23.514145    22.136413           90           90           90 
  379500     260.9658   -141.86688   -112.75575   -141.86688            0   -965.29628     18.03095    23.732958    22.230026            0            0            0    9512.8457   -528.10026   -5373.8907    3006.1022     62.33285   -1064.4967   -27.051446     18.03095    23.732958    22.230026           90           90           90 
  380000    271.20092   -143.18118   -112.92831   -143.18118            0    213.34077    18.077857     23.60186    22.194994            0            0            0    9469.9613    1881.0034   -1326.4721    85.491066    2051.3564    731.83806   -397.68072    18.077857     23.60186    22.194994           90           90           90 
  380500    264.78029   -143.52203   -113.98539   -143.52203            0    4.6684507      18.1759     23.20706    22.157853            0            0            0    9346.3865   -1149.9936   -574.75615    1738.7551   -458.80686   -1548.9959    645.24715      18.1759     23.20706    22.157853           90           90           90 
  381000    265.65369   -142.31793   -112.68387   -142.31793            0   -1348.0814    18.345051    23.266086    22.376708            0            0            0    9550.7715   -1564.6063    289.58279   -2769.2207   -1954.8861   -970.63257   -247.65303    18.345051    23.266086    22.376708           90           90           90 
  381500    287.75341   -141.12498   -109.02565   -141.12498            0    65.562153     18.22561    23.386448    22.168226            0            0            0    9448.8136    204.62884   -1197.2565    1189.3141    790.29748    -938.1175   -1272.5825     18.22561    23.386448    22.168226           90           90           90 
  382000     282.1384   -143.09766    -111.6247   -143.09766            0   -488.78158    18.051754    23.706595      22.0194            0            0            0    9423.1057   -1841.7511    77.804701    297.60169    617.69462    -965.9943    130.19214    18.051754    23.706595      22.0194           90           90           90 
  382500    286.29454   -141.08584   -109.14925   -141.08584            0   -1822.6017    17.947741    23.856685    22.188528            0            0            0    9500.5424   -22.331161   -1994.2151   -3451.2589   -2215.8866    393.72643   -215.04228    17.947741    23.856685    22.188528           90           90           90 
  383000    282.35847   -142.23852   -110.74101   -142.23852            0   -707.15966    17.905869    23.469786    22.282687            0            0            0    9364.2306   -2890.6988    2149.7318    -1380.512   -1549.9799   -634.82755   -230.54102    17.905869    23.469786    22.282687           90           90           90 
  383500    277.54213   -140.06168   -109.10143   -140.06168            0    272.91705    18.207791     23.23184    22.344791            0            0            0    9451.8574    1828.4213     811.9364   -1821.6065   -960.87976   -603.88193    8.7693351    18.207791     23.23184    22.344791           90           90           90 
  384000    270.02808   -142.12103   -111.99899   -142.12103            0    823.69089    18.372824    23.289806    22.253878            0            0            0    9522.4233    1051.2941    306.37942    1113.3991   -507.70523   -1126.9603   -1253.8847    18.372824    23.289806    22.253878           90           90           90 
  384500    278.52599   -143.70993   -112.63993   -143.70993            0    1993.5289    18.142432    23.334896    22.028305            0            0            0    9325.7219   -360.59377    1674.5806    4666.5998   -649.05403    308.98023    381.34695    18.142432    23.334896    22.028305           90           90           90 
  385000    273.98542   -144.31323   -113.74974   -144.31323            0   -3163.4835    18.052569    23.609616    22.208009            0            0            0    9465.3695   -4037.5446   -3635.9467   -1816.9592    -998.2339    -104.4131    -195.7586    18.052569    23.609616    22.208009           90           90           90 
  385500    265.88058   -143.25664   -113.59726   -143.25664            0    1612.3631    17.996658     23.58149    22.271411            0            0            0    9451.7203    3426.6825     3100.274   -1689.8674     159.7918    1711.5689    2151.4409    17.996658     23.58149    22.271411           90           90           90 
  386000    263.01319   -141.45293   -112.11341   -141.45293            0   -2512.0816    18.110196    23.541301    22.214673            0            0            0    9470.9501   -5159.9848   -3846.2129     1469.953    144.93263   -890.59708    534.97087    18.110196    23.541301    22.214673           90           90           90 
  386500    289.09856   -142.59447    -110.3451   -142.59447            0   -2345.2791    18.236865    23.523598    22.153058            0            0            0    9503.5883   -3976.9702   -1127.2234   -1931.6438    534.44973   -1261.7886   -65.494101    18.236865    23.523598    22.153058           90           90           90 
  387000    276.21016    -142.7895   -111.97784    -142.7895            0    1296.6036     18.24242    23.274981    22.085447            0            0            0    9377.3033   -877.14224   -723.71254    5490.6656     1440.634    951.21931    120.70513     18.24242    23.274981    22.085447           90           90           90 
  387500    272.46849   -142.22973   -111.83546   -142.22973            0   -1974.5139    18.194275    23.212589    22.316463            0            0            0    9425.0508   -2638.7588   -995.32607   -2289.4569    723.05063    -702.8161    1168.0235    18.194275    23.212589    22.316463           90           90           90 
  388000    262.42117   -143.57707   -114.30359   -143.57707            0   -823.27524    18.080618    23.429954    22.462141            0            0            0    9515.5924   -752.65958   -685.41094   -1031.7552    510.04919   -47.632139    -233.5112    18.080618    23.429954    22.462141           90           90           90 
  388500    274.89595   -144.93247   -114.26741   -144.93247            0    1443.4013    17.885758    23.708274    22.180406            0            0            0    9405.3892    684.47659    868.41432     2777.313   -2346.6738   -34.405207    600.39941    17.885758    23.708274    22.180406           90           90           90 
  389000    267.00417    -143.7156   -113.93088    -143.7156            0   -191.59104    17.939732    23.834528    22.015657            0            0            0    9413.5653    675.80027   -3517.7562    2267.1828    1939.9467     294.8503   -1314.7669    17.939732    23.834528    22.015657           90           90           90 
  389500    272.23938   -144.00576   -113.63705   -144.00576            0    683.82321     18.09616    23.546044     22.12065            0            0            0    9425.4534    32.863939    3773.8561   -1755.2504   -1020.8266    656.56054    876.70361     18.09616    23.546044     22.12065           90           90           90 
  390000     268.6608   -144.58808   -114.61856   -144.58808            0   -832.65566    18.252692    23.250044    22.396224            0            0            0    9504.4174    698.33708    375.80331   -3572.1074   -165.37708    312.51793   -15.700678    18.252692    23.250044    22.396224           90           90           90 
  390500    275.88315   -143.05511   -112.27993   -143.05511            0    299.41444    18.156636    23.164261    22.350718            0            0            0    9400.3777    1360.0222   -923.38427    461.60544    1575.9467    2440.6802    455.81593    18.156636    23.164261    22.350718           90           90           90 
  391000    274.22608   -141.72518   -111.13484   -141.72518            0    86.448229    18.110606    23.422492    22.221001            0            0            0    9426.0493     296.1499   -867.11244    830.30722   -1563.2621    883.36263   -177.56434    18.110606    23.422492    22.221001           90           90           90 
  391500    292.65804   -141.79128   -109.14483   -141.79128            0   -251.59735     18.10293    23.618839    22.133202            0            0            0    9463.4971   -1738.7667   -345.56425    1329.5388   -196.51988    1995.5901   -752.01579     18.10293    23.618839    22.133202           90           90           90 
  392000     266.2613   -144.07708   -114.37523   -144.07708            0   -83.047372    18.060584    23.658796    22.181532            0            0            0    9477.9842   -707.74968    1679.2863   -1220.6787   -598.95196    1377.1005   -1114.8443    18.060584    23.658796    22.181532           90           90           90 
  392500    260.78099   -143.58082    -114.4903   -143.58082            0    1355.9235    18.020023    23.463292     22.25891            0            0            0    9411.2689    4043.3598   -2449.8898    2474.3004     365.7706    1552.5994    486.39641    18.020023    23.463292     22.25891           90           90           90 
  393000    272.45702   -141.38382   -110.99083   -141.38382            0   -3590.8301     18.23566    23.380974    22.388436            0            0            0    9545.7011    -5101.867   -1022.6504   -4647.9729    780.13653   -1275.0375    1656.8252     18.23566    23.380974    22.388436           90           90           90 
  393500    294.48405   -141.67434    -108.8242   -141.67434            0    3523.7818    18.263517     23.20116    22.177267            0            0            0     9397.279    4394.0728    3784.3754    2392.8971   -780.80504    977.37843    1416.0809    18.263517     23.20116    22.177267           90           90           90 
  394000    274.86181    -143.2561   -112.59485    -143.2561            0   -1601.0236    18.273875    23.434595    22.031197            0            0            0    9434.6589   -2923.8499    795.93966   -2675.1607    573.77569   -595.56766   -1423.7229    18.273875    23.434595    22.031197           90           90           90 
  394500    263.79102   -142.13861   -112.71233   -142.13861            0   -2435.2318    18.019673    23.833647    22.210722            0            0            0    9538.9398   -1587.8018   -2611.2211   -3106.6726    1242.9162     470.0748   -17.580755    18.019673    23.833647    22.210722           90           90           90 
  395000    276.71252   -141.57871   -110.71101   -141.57871            0    1830.3708    17.706612    23.775454    22.268251            0            0            0    9374.5493    3121.0356    1894.5742     475.5027    1016.1593   -597.55774    90.649023    17.706612    23.775454    22.268251           90           90           90 
  395500    270.45189    -143.0571   -112.88779    -143.0571            0   -1488.2397    17.900713    23.533972    22.374262            0            0            0    9425.7149    -40.42867   -1491.6317   -2932.6587    360.18304   -269.60283   -1605.2753    17.900713    23.533972    22.374262           90           90           90 
  396000    274.85625   -143.88289   -113.22227   -143.88289            0   -545.21005    18.259165    23.322585    22.314855            0            0            0    9502.8018   -1650.3721    1139.9328   -1125.1908   -134.58123    1313.0026    1241.1549    18.259165    23.322585    22.314855           90           90           90 
  396500    266.35332   -143.71834   -114.00622   -143.71834            0    798.46374    18.341673     23.20161     22.12299            0            0            0    9414.5789   -1854.1185    4008.4929    241.01683   -790.85963    392.37506     -1424.75    18.341673     23.20161     22.12299           90           90           90 
  397000    268.43783   -142.57601   -112.63137   -142.57601            0   -1269.3675    18.274046    23.417392    22.176637            0            0            0    9490.0592    -4333.947   -232.40169    758.24618    607.96652   -157.37608    920.88911    18.274046    23.417392    22.176637           90           90           90 
  397500    273.48613   -142.48589    -111.9781   -142.48589            0    1958.0967    18.074388    23.575413    22.237285            0            0            0    9475.5555    3314.7324   -312.31193    2871.8697   -2062.6862     -444.266    226.75789    18.074388    23.575413    22.237285           90           90           90 
  398000    273.96327   -143.43262   -112.87161   -143.43262            0   -1200.6511    17.976848    23.583632     22.26246            0            0            0    9438.3781   -2652.1768   -307.55345   -642.22299   -660.97554   -1275.6964    28.888973    17.976848    23.583632     22.26246           90           90           90 
  398500    283.48867   -142.54236   -110.91877   -142.54236            0   -1043.9428    18.061077    23.522281    22.352467            0            0            0    9496.1714   -3664.2096    1512.4787   -980.09733    2016.9321    388.74859   -114.14576    18.061077    23.522281    22.352467           90           90           90 
  399000    251.22624   -143.62434   -115.59967   -143.62434            0    997.79752    18.134001     23.39353    22.129192            0            0            0    9387.6083    925.36217   -481.83166    2549.8621    -1361.042     813.7878    2051.1595    18.134001     23.39353    22.129192           90           90           90 
  399500    274.65499   -143.72782   -113.08964   -143.72782            0    1612.5315    18.287047    23.358662    22.082803            0            0            0    9432.9106    1796.8915     1664.254    1376.4489    -2064.892    1653.2248    681.32185    18.287047    23.358662    22.082803           90           90           90 
  400000     271.0787   -144.47816   -114.23892   -144.47816            0   -612.35175    18.218121    23.390612    22.190685            0            0            0    9456.1831   -1779.4772    512.23889   -569.81699    1385.4997    922.61275    1604.2169    18.218121    23.390612    22.190685           90           90           90 
Loop time of 2111.32 on 1 procs for 400000 steps with 864 atoms

Performance: 8.184 ns/day, 2.932 hours/ns, 189.455 timesteps/s
74.7% CPU use with 1 MPI tasks x 1 OpenMP threads

MPI task timing breakdown:
Section |  min time  |  avg time  |  max time  |%varavg| %total
---------------------------------------------------------------
Pair    | 1840.3     | 1840.3     | 1840.3     |   0.0 | 87.16
Bond    | 0.064869   | 0.064869   | 0.064869   |   0.0 |  0.00
Neigh   | 244.48     | 244.48     | 244.48     |   0.0 | 11.58
Comm    | 8.2606     | 8.2606     | 8.2606     |   0.0 |  0.39
Output  | 1.9806     | 1.9806     | 1.9806     |   0.0 |  0.09
Modify  | 14.604     | 14.604     | 14.604     |   0.0 |  0.69
Other   |            | 1.607      |            |       |  0.08

Nlocal:        864.000 ave         864 max         864 min
Histogram: 1 0 0 0 0 0 0 0 0 0
Nghost:        3735.00 ave        3735 max        3735 min
Histogram: 1 0 0 0 0 0 0 0 0 0
Neighs:         0.00000 ave           0 max           0 min
Histogram: 1 0 0 0 0 0 0 0 0 0
FullNghs:      166020.0 ave      166020 max      166020 min
Histogram: 1 0 0 0 0 0 0 0 0 0

Total # of neighbors = 166020
Ave neighs/atom = 192.15278
Ave special neighs/atom = 0.0000000
Neighbor list builds = 40000
Dangerous builds not checked

unfix		3
unfix		2

write_data	data.final.${pid}
write_data	data.final.0
System init for write_data ...

write_restart   restart.lmp.${pid}
write_restart   restart.lmp.0
System init for write_restart ...
Unloading pair style deepmd
Unloading compute style deepmd
Unloading fix style deepmd
Total wall time: 0:35:22
