LAMMPS data file via write_data, version 29 Sep 2021, timestep = 400000

864 atoms
2 atom types

0.11635823233121023 18.091214767670216 xlo xhi
0.2379302998955115 23.391246700102894 ylo yhi
0.08046942175242755 22.132726578245858 zlo zhi

Masses

1 1.008
2 15.999

Atoms # full

706 0 1 -1.1794 3.1918214591067016 2.19188647018064 3.257662760081365 0 0 0
708 0 2 0.5897 2.4398830865318097 2.7592697233181194 3.0005952652830263 0 0 0
707 0 2 0.5897 3.0519968037211838 2.0037130754131045 4.197865237432197 0 0 0
20 0 2 0.5897 0.8266693727269094 3.4648970918908693 0.3964647617001737 0 0 0
3 0 2 0.5897 0.7085669975587288 4.35860588473696 2.374346063106267 0 0 0
1 0 1 -1.1794 0.9086486727463298 3.4063187549960645 2.293261737361099 0 0 0
188 0 2 0.5897 3.0041489086714876 0.46468377196124067 2.6554258504840047 0 0 0
29 0 2 0.5897 4.665046691617139 2.7471812999048475 2.4308611720002404 0 0 0
30 0 2 0.5897 5.434004244415706 4.096767642756266 2.2048584377599827 0 0 0
28 0 1 -1.1794 5.355588409417818 3.1526966817761077 1.855087101411143 0 0 0
493 0 1 -1.1794 7.541610563813707 1.954157916176708 2.796265232671673 0 0 0
494 0 2 0.5897 6.761610869056234 2.2935841975159823 2.3612385280045083 0 0 0
495 0 2 0.5897 8.28286419523263 2.5371725318857257 2.4599572521093087 0 0 0
668 0 2 0.5897 5.07944502368986 3.0831042430701734 0.26236914678272083 0 0 0
819 0 2 0.5897 7.853890839240423 0.3125160749628113 2.1390874965231776 0 0 0
748 0 1 -1.1794 9.807183730342768 3.257506946448647 1.8434574856247512 0 0 0
749 0 2 0.5897 9.8844714599452 4.205464357621743 2.0775868378396467 0 0 0
750 0 2 0.5897 9.75862956244233 3.311420821905431 0.8509525686982516 0 0 0
106 0 1 -1.1794 12.18630403350384 1.8513215823290938 2.7681484310250095 0 0 0
108 0 2 0.5897 11.370019122962429 2.184084478163612 2.444939847827139 0 0 0
107 0 2 0.5897 12.164537113657271 2.071938199013659 3.705376941892724 0 0 0
215 0 2 0.5897 13.289104223928026 2.8085508130021797 2.3144183854428957 0 0 0
214 0 1 -1.1794 14.1062274843653 3.1882651433921625 1.8868193032097171 0 0 0
2 0 2 0.5897 18.03475311424412 2.958751628503384 2.523184798066715 0 0 0
216 0 2 0.5897 14.041451703652308 4.148088979736915 1.9586579899853667 0 0 0
406 0 1 -1.1794 16.520178141632336 2.020166388820347 2.9474614211185175 0 0 0
408 0 2 0.5897 15.5977600697245 2.4153948116887727 2.769371209595865 0 0 0
407 0 2 0.5897 16.453705756416923 1.1041283149633574 2.6047241772814447 0 0 0
123 0 2 0.5897 2.5638419009803544 8.494047048361768 2.8675504233180735 0 0 0
253 0 1 -1.1794 2.8912887409320787 6.722111173409846 2.038281894479043 0 0 0
254 0 2 0.5897 2.8217550147796198 6.741848545915261 1.0706986083537575 0 0 0
255 0 2 0.5897 1.9786272893726062 6.503982612069925 2.3104861071776814 0 0 0
595 0 1 -1.1794 0.36341513857732144 6.09676009537369 2.7175213283417134 0 0 0
597 0 2 0.5897 0.43413694323923224 5.8887452196239565 3.6777394139151744 0 0 0
138 0 2 0.5897 4.422526805611867 6.073117762537458 2.5764015958730955 0 0 0
122 0 2 0.5897 2.5730308262724115 9.455432472477991 4.009494251513759 0 0 0
121 0 1 -1.1794 2.5662899637175443 9.429879960726696 3.0725165167582817 0 0 0
136 0 1 -1.1794 5.334224386212868 5.846772045325749 2.8661776990565486 0 0 0
137 0 2 0.5897 5.3000403961252145 5.805324628826142 3.846171254512216 0 0 0
65 0 2 0.5897 7.767642824096945 8.941797987851032 2.6332566877053165 0 0 0
415 0 1 -1.1794 7.541639540818978 7.024973376972274 2.006444038498797 0 0 0
416 0 2 0.5897 6.758984112776942 6.501548763365251 2.3301905440139103 0 0 0
417 0 2 0.5897 8.269398395317815 6.500553215171214 2.419346620657869 0 0 0
162 0 2 0.5897 7.280388094598707 6.723897811522043 0.36891287200641976 0 0 0
298 0 1 -1.1794 9.642329796275424 5.891784035187293 3.28041409206946 0 0 0
190 0 1 -1.1794 11.636620627190315 7.385189809150992 2.169315153275045 0 0 0
191 0 2 0.5897 11.65481871764782 7.291824932144249 1.1622556220022304 0 0 0
192 0 2 0.5897 11.808150328688495 8.324468295601305 2.3797397156669717 0 0 0
299 0 2 0.5897 10.391713675011637 6.413362555769768 2.9809132719710463 0 0 0
110 0 2 0.5897 13.237776504035317 6.7107331158742545 2.558958215337588 0 0 0
300 0 2 0.5897 9.695912543553865 5.8907517386443 4.242961242584317 0 0 0
596 0 2 0.5897 17.528035367279777 6.587897442588419 2.7098174863444817 0 0 0
109 0 1 -1.1794 13.951180370964321 6.149492526672932 2.796508548690668 0 0 0
111 0 2 0.5897 14.744701981205749 6.617232089411877 2.4337183663159725 0 0 0
838 0 1 -1.1794 16.1078945410598 7.609058408113495 1.8137085370507877 0 0 0
839 0 2 0.5897 16.404820391167704 8.489268343175066 2.12790054586158 0 0 0
840 0 2 0.5897 16.240189921507834 7.556817555068441 0.868447293973475 0 0 0
43 0 1 -1.1794 0.7265217223731559 11.12255643855561 1.9931964113385494 0 0 0
44 0 2 0.5897 1.5522819764274955 10.63318059076474 2.123137305313618 0 0 0
45 0 2 0.5897 0.937555266909529 12.077907440831838 2.2856313186875594 0 0 0
373 0 1 -1.1794 0.7330535644950043 13.662245088524477 3.0263228370298676 0 0 0
374 0 2 0.5897 0.7358358414219394 13.647476098571289 3.9857425718931734 0 0 0
396 0 2 0.5897 0.4552542250945667 10.954460068780763 0.16487518084621278 0 0 0
173 0 2 0.5897 4.360752001583626 13.97668492117218 2.4603752547985898 0 0 0
219 0 2 0.5897 4.075019362775869 10.147080659871968 2.5510497415394666 0 0 0
64 0 1 -1.1794 7.505610418917908 9.858108004177419 2.891221291437548 0 0 0
66 0 2 0.5897 7.630971339523636 9.838117089993988 3.8930449088732333 0 0 0
174 0 2 0.5897 4.9835226052100055 12.62296453074323 2.5786842153340324 0 0 0
172 0 1 -1.1794 5.096329162738529 13.528574520136683 2.8737429080517387 0 0 0
217 0 1 -1.1794 4.931541375869538 10.547106676558057 2.2250531794091546 0 0 0
218 0 2 0.5897 5.694039810618288 10.09715576099081 2.6193049326629123 0 0 0
773 0 2 0.5897 9.024485408409086 10.5880386077596 2.0598252517436757 0 0 0
363 0 2 0.5897 5.1571603244684345 10.96032516459943 0.6501583675459403 0 0 0
92 0 2 0.5897 12.038903688640184 9.927591383217605 3.8764637254911727 0 0 0
91 0 1 -1.1794 12.073197860114597 9.931566848445241 2.919889287949082 0 0 0
774 0 2 0.5897 9.848411033946384 10.849186975418279 0.7837407709373564 0 0 0
772 0 1 -1.1794 9.814295089359254 11.008107322943706 1.7169190782833268 0 0 0
93 0 2 0.5897 11.31760097483113 10.430121190599687 2.6227147282285044 0 0 0
154 0 1 -1.1794 9.754228349408574 13.562507091367857 2.5407121765265113 0 0 0
156 0 2 0.5897 9.80318530277405 12.675408254345745 2.1532158432157718 0 0 0
155 0 2 0.5897 10.49738779074996 14.061626663669555 2.16414774031134 0 0 0
860 0 2 0.5897 13.506682197540485 10.72877087325414 2.4132480714225806 0 0 0
806 0 2 0.5897 9.743773544242481 13.666571848921198 4.449977553721966 0 0 0
842 0 2 0.5897 16.386653657414385 10.068828405480517 3.837237731765058 0 0 0
841 0 1 -1.1794 16.480010887268506 10.03867082396489 2.8926264384855256 0 0 0
375 0 2 0.5897 17.891948544521725 14.066602650111287 2.701372044775684 0 0 0
55 0 1 -1.1794 14.472911202276979 13.745142929646727 2.9279812117471256 0 0 0
859 0 1 -1.1794 14.218026510440732 11.1787424403405 1.8816065166951947 0 0 0
843 0 2 0.5897 17.330741579393937 10.339148306511676 2.6306580094182572 0 0 0
57 0 2 0.5897 14.509521896966678 12.877045784324789 2.549665439505333 0 0 0
861 0 2 0.5897 14.987414946458232 10.649590259233367 2.050052919133444 0 0 0
56 0 2 0.5897 14.324846628231708 13.660289530466196 3.8855035496826833 0 0 0
152 0 2 0.5897 13.869111689875066 11.258113469577673 0.09996729181126962 0 0 0
557 0 2 0.5897 2.258994339028937 14.662150117855703 2.0690657900591907 0 0 0
556 0 1 -1.1794 3.032801801453755 14.948601809976836 1.647822117736002 0 0 0
558 0 2 0.5897 2.888254102936625 14.936579832422865 0.7152392494011333 0 0 0
292 0 1 -1.1794 3.2696433346820926 17.469036665824227 3.177815832436348 0 0 0
293 0 2 0.5897 3.170929081053013 16.564928193321677 2.8433758898003845 0 0 0
344 0 2 0.5897 1.8155204271745042 18.240400494646558 2.5656366760597917 0 0 0
294 0 2 0.5897 3.4369638845586135 17.367143409805983 4.120747547934464 0 0 0
345 0 2 0.5897 0.9880864211532624 18.43145762426966 1.1409174901615555 0 0 0
343 0 1 -1.1794 1.007364748094439 18.69167052635145 2.122744504380005 0 0 0
480 0 2 0.5897 6.518514867773887 14.581560290831655 2.349051642554797 0 0 0
479 0 2 0.5897 8.095257189528365 14.197752218268711 2.2889028125899054 0 0 0
448 0 1 -1.1794 7.422319133327806 17.49245671763442 2.783547882421378 0 0 0
449 0 2 0.5897 7.429902408338231 16.595231389787955 2.51227063101556 0 0 0
450 0 2 0.5897 6.5263850376470165 17.838850170916587 2.4873309920666244 0 0 0
478 0 1 -1.1794 7.402566257005243 14.858603939538982 2.0373523949977477 0 0 0
317 0 2 0.5897 7.360057944693722 14.848436873923605 0.4005171153519863 0 0 0
602 0 2 0.5897 5.38524206768711 18.733723810581118 0.6359589216756606 0 0 0
560 0 2 0.5897 12.94018131508975 14.246771738984062 2.2608850923627988 0 0 0
321 0 2 0.5897 9.126683714035897 17.78391264168313 2.3349052658062006 0 0 0
561 0 2 0.5897 11.944355386024142 14.753493513274675 1.0350010774983194 0 0 0
559 0 1 -1.1794 12.15649071304477 14.834670057562015 1.9612006465281613 0 0 0
320 0 2 0.5897 10.648301415386403 17.82209766556383 2.556611783471985 0 0 0
832 0 1 -1.1794 12.29824557256825 17.290717469683337 3.1244928622399386 0 0 0
834 0 2 0.5897 12.561240826191192 16.401810175750825 2.7528145003712727 0 0 0
833 0 2 0.5897 12.868441528735266 17.904279513335865 2.6745384390479408 0 0 0
319 0 1 -1.1794 9.930533541829321 18.293636303279378 2.124753181860895 0 0 0
389 0 2 0.5897 9.744137467127311 18.307648613364023 0.2901789659126514 0 0 0
179 0 2 0.5897 15.911641957791735 14.634123753456674 2.307524631742076 0 0 0
178 0 1 -1.1794 16.62093532855654 15.136108328301573 1.8595944911904168 0 0 0
180 0 2 0.5897 16.69249326156328 16.014047570775833 2.2112051367097285 0 0 0
745 0 1 -1.1794 16.51967548455307 17.787464692211813 3.0099442613710305 0 0 0
746 0 2 0.5897 17.325925009177794 18.158635108548054 2.783689524945344 0 0 0
747 0 2 0.5897 15.814867795208832 18.21896389085026 2.4623995717047524 0 0 0
614 0 2 0.5897 16.36037779479232 15.04996768605327 0.14889575256895188 0 0 0
227 0 2 0.5897 4.518640480675199 18.818899204378532 2.813619987556291 0 0 0
189 0 2 0.5897 3.1731669921311116 22.83091567797144 1.3141193160333915 0 0 0
187 0 1 -1.1794 3.0901657605969284 22.735808468399135 2.2914616607741016 0 0 0
694 0 1 -1.1794 0.9034081165160295 21.23788704654669 3.030805611876191 0 0 0
695 0 2 0.5897 1.1696044024271486 20.38045409678022 2.641921212209829 0 0 0
696 0 2 0.5897 1.7535794705922856 21.713053572902744 2.958792813425217 0 0 0
266 0 2 0.5897 4.533141629240811 22.112542790379123 2.906912450523955 0 0 0
226 0 1 -1.1794 5.383830726884268 19.23437426799864 2.4797457175386226 0 0 0
228 0 2 0.5897 5.547004433664722 20.073587196217275 2.938597935602088 0 0 0
265 0 1 -1.1794 5.349616504191037 21.878855382674715 3.345992259664076 0 0 0
267 0 2 0.5897 6.231427727350523 22.193724259055465 3.050279554565392 0 0 0
817 0 1 -1.1794 7.763976621046339 22.514316695488233 2.076994443590854 0 0 0
818 0 2 0.5897 8.61765995330144 22.11778968881464 2.203820677399161 0 0 0
498 0 2 0.5897 7.352753755009029 22.112089435199145 0.5984389359683356 0 0 0
63 0 2 0.5897 12.460803050058503 23.269007997833747 2.2521237868218256 0 -1 0
61 0 1 -1.1794 12.427017433581689 22.328372164790387 1.9917131014000184 0 0 0
397 0 1 -1.1794 9.831283964659383 21.03046724175242 2.583231753010406 0 0 0
398 0 2 0.5897 9.87236440416691 20.100301358385472 2.2397569304148983 0 0 0
399 0 2 0.5897 10.721835423747935 21.370031455940982 2.39419543600305 0 0 0
62 0 2 0.5897 13.099392844891922 21.88327544362007 2.5404803949629207 0 0 0
425 0 2 0.5897 12.405380471310936 22.22894796123107 0.18971829354294734 0 0 0
304 0 1 -1.1794 14.203270042045574 18.84035092136324 1.979079458112759 0 0 0
305 0 2 0.5897 14.306612633860356 19.0356502014889 1.0416389484197153 0 0 0
306 0 2 0.5897 14.247716453699772 19.696437766206543 2.4301769191740163 0 0 0
118 0 1 -1.1794 14.51155857333684 21.281348548561297 3.3863846174093384 0 0 0
120 0 2 0.5897 15.329516349272298 21.699490526220266 3.037439712842993 0 0 0
727 0 1 -1.1794 16.55845278134109 22.44629358883644 2.2635640920675972 0 0 0
728 0 2 0.5897 16.40053271648611 22.54871284595987 1.270376326178872 0 0 0
729 0 2 0.5897 17.369754288659003 21.96512711656498 2.430209120664254 0 0 0
119 0 2 0.5897 14.646997511115101 21.04903171526361 4.309637011338759 0 0 0
487 0 1 -1.1794 3.08677123203477 2.044841971354085 6.049822602700646 0 0 0
488 0 2 0.5897 2.244495193762662 2.4404082222873433 6.204590603529394 0 0 0
489 0 2 0.5897 3.049609614670051 1.2047715221816264 6.457817288371369 0 0 0
785 0 2 0.5897 0.5023606115157098 3.5864833602314343 7.623987652179611 0 0 0
784 0 1 -1.1794 0.6444444243179283 3.3734679356776263 6.725956252321674 0 0 0
183 0 2 0.5897 0.447580411389582 4.826407013554985 5.8516121156599645 0 0 0
83 0 2 0.5897 4.783193867404768 2.7538448423016115 6.3183277073057535 0 0 0
846 0 2 0.5897 7.563369346906233 1.674382744847903 4.5181141814264025 0 0 0
82 0 1 -1.1794 5.628005792133216 3.0887060478040715 6.616085133254763 0 0 0
84 0 2 0.5897 6.33636112540543 2.494398643671329 6.275790364869599 0 0 0
844 0 1 -1.1794 7.556478373375298 1.576579387300359 5.47340100566303 0 0 0
845 0 2 0.5897 7.5511552336150505 0.679441133390335 5.737637735460189 0 0 0
275 0 2 0.5897 5.622567458862316 2.9155513483279085 8.430530305734402 0 0 0
419 0 2 0.5897 8.788100807450803 2.5744476952822506 6.1838400631989066 0 0 0
420 0 2 0.5897 9.397129286935451 4.0623271776621 6.251450472366113 0 0 0
177 0 2 0.5897 9.446715329166665 3.3106056308108958 8.315446015624325 0 0 0
418 0 1 -1.1794 9.53956032231272 3.1244273069387667 6.521460962156508 0 0 0
802 0 1 -1.1794 11.954551425976012 2.11892135896143 5.678145153784595 0 0 0
803 0 2 0.5897 11.137373935950809 2.6036042051482813 5.992092868859642 0 0 0
804 0 2 0.5897 12.689609119116753 2.6436550331888653 6.02709972171708 0 0 0
171 0 2 0.5897 11.998891209915453 0.4936151551114992 6.184403771391808 0 0 0
786 0 2 0.5897 17.845549269947803 2.9129139858656394 6.476735090548811 0 0 0
660 0 2 0.5897 16.5868516273395 2.0677943063588318 4.697961090865633 0 0 0
436 0 1 -1.1794 14.135978317883048 3.471219355745026 6.589353201659026 0 0 0
437 0 2 0.5897 14.049720885517704 3.41885315201609 7.541150142856804 0 0 0
438 0 2 0.5897 14.964578503181777 3.0749110427700463 6.329584235101391 0 0 0
658 0 1 -1.1794 16.413206828485272 2.0954057218424618 5.663333811335212 0 0 0
659 0 2 0.5897 16.421203609848078 1.126369866956685 5.968840124038686 0 0 0
10 0 1 -1.1794 2.8413975024016604 7.006667069712714 6.658504392141722 0 0 0
11 0 2 0.5897 2.0898715059154034 6.527486983061508 6.221723307714243 0 0 0
12 0 2 0.5897 2.69275301115704 7.946430777870418 6.366767691697891 0 0 0
650 0 2 0.5897 3.0546145452084574 6.9687546688543245 8.528453839009117 0 0 0
181 0 1 -1.1794 0.4031741688444605 5.713423388867047 5.473081257091998 0 0 0
687 0 2 0.5897 4.280819355141114 6.2244813247093695 5.9968691171759625 0 0 0
686 0 2 0.5897 5.306824246724495 5.041990208579269 6.113020100598363 0 0 0
685 0 1 -1.1794 5.102148587029318 5.868817587892714 5.5974306597595875 0 0 0
145 0 1 -1.1794 7.280068497739321 7.225701278380747 6.6444137072305685 0 0 0
146 0 2 0.5897 6.456710880517289 6.898915011581681 6.183261355773292 0 0 0
147 0 2 0.5897 7.234224326509306 7.095059822551701 7.650594492358074 0 0 0
714 0 2 0.5897 7.579945497474151 8.867838160717357 5.9678029234240535 0 0 0
165 0 2 0.5897 8.652308102782428 6.316917494034316 5.975845579121333 0 0 0
163 0 1 -1.1794 9.412118470496052 5.796912548261387 5.816402097034253 0 0 0
164 0 2 0.5897 10.102505580005477 6.197094527946509 6.371020512838641 0 0 0
230 0 2 0.5897 11.776349999920141 8.83608780292233 5.930294032821424 0 0 0
391 0 1 -1.1794 11.685481591239936 7.32320800281061 6.551445512027873 0 0 0
392 0 2 0.5897 11.915282351864736 7.251836934183151 7.51752208493775 0 0 0
393 0 2 0.5897 12.348256439445638 6.7785578943284905 6.137170853623087 0 0 0
732 0 2 0.5897 13.770207298220678 5.12991680190227 5.859248107077083 0 0 0
182 0 2 0.5897 17.521800224365094 6.020134778408943 5.824745830052154 0 0 0
731 0 2 0.5897 13.854597259961213 5.924905733183827 4.531479482471844 0 0 0
730 0 1 -1.1794 13.736405007422588 6.031940194350445 5.511152300969254 0 0 0
525 0 2 0.5897 16.421974421227077 8.949906810468155 5.887074903443171 0 0 0
541 0 1 -1.1794 16.194165027829207 7.243683132849656 6.473627595336905 0 0 0
542 0 2 0.5897 15.386319000311639 6.860995672852351 6.14019862699573 0 0 0
543 0 2 0.5897 16.189652600386687 7.136738911512568 7.46749297023489 0 0 0
793 0 1 -1.1794 2.8624032436577234 9.721291859652093 5.789644238345668 0 0 0
550 0 1 -1.1794 0.7514470749157481 11.064147971618654 6.790871935159572 0 0 0
551 0 2 0.5897 0.7322351749930228 11.197730295215635 7.786929781598863 0 0 0
552 0 2 0.5897 0.6877662837157473 11.935889383042003 6.3513417770649845 0 0 0
794 0 2 0.5897 2.0729578503783683 10.157659659944274 6.182579230480352 0 0 0
795 0 2 0.5897 3.7018463159671167 10.167866979214823 5.912574749544402 0 0 0
655 0 1 -1.1794 0.9202161385686307 13.537228311115546 5.740883975097496 0 0 0
656 0 2 0.5897 1.871973609174967 13.868449941676905 5.990730673890158 0 0 0
712 0 1 -1.1794 7.610073016698677 9.75665253021873 5.6126712938241035 0 0 0
200 0 2 0.5897 5.246036026584024 13.490678840098443 4.758533883634133 0 0 0
713 0 2 0.5897 8.476330157920616 10.06937342832588 5.802687367506478 0 0 0
577 0 1 -1.1794 5.192285009471107 10.95759511439571 6.296880227398594 0 0 0
578 0 2 0.5897 6.053196552666354 10.770199749808238 5.942211581217407 0 0 0
579 0 2 0.5897 5.12167155432869 11.921317329090463 6.17186051529526 0 0 0
582 0 2 0.5897 5.515618975427257 10.70667293033204 8.279481026761674 0 0 0
199 0 1 -1.1794 5.2042163931329375 13.530582687649247 5.704605166279093 0 0 0
201 0 2 0.5897 5.986430810472055 13.953273553371922 6.0749569014009595 0 0 0
229 0 1 -1.1794 11.75851824463485 9.780487200014145 5.685267197046417 0 0 0
741 0 2 0.5897 9.734395429273007 11.252696128132145 7.523283735590666 0 0 0
231 0 2 0.5897 12.598522882077152 10.154585855814766 5.97062434775522 0 0 0
739 0 1 -1.1794 9.728286275950625 11.125284718564133 6.5224376779117454 0 0 0
740 0 2 0.5897 10.501174549170932 10.532749758894267 6.328078042163931 0 0 0
805 0 1 -1.1794 9.671491651509388 13.523533222606664 5.378587105693996 0 0 0
807 0 2 0.5897 9.76267344164078 12.55449375914263 5.61090972003194 0 0 0
726 0 2 0.5897 13.538458634845307 13.83107795599212 5.955804819173325 0 0 0
523 0 1 -1.1794 16.527928344755196 9.874930354955433 5.612687167683245 0 0 0
524 0 2 0.5897 17.35572070512469 10.208256444927827 5.998355450251394 0 0 0
857 0 2 0.5897 14.417234882938645 11.050819360643867 8.292128489373463 0 0 0
634 0 1 -1.1794 14.22743572246046 11.01266480399332 6.404453505031155 0 0 0
635 0 2 0.5897 15.101701244479361 10.633892533917395 6.16987777145224 0 0 0
636 0 2 0.5897 14.316509933152625 11.929633391972315 6.050295298223062 0 0 0
724 0 1 -1.1794 14.429423757768348 13.563858136834682 5.671061985381317 0 0 0
18 0 2 0.5897 4.031001449861796 14.32173587895781 6.472211390113501 0 0 0
17 0 2 0.5897 3.1735926790053037 14.821858494719685 7.776723283825919 0 0 0
16 0 1 -1.1794 3.152054074751263 14.719553596569927 6.785434081594321 0 0 0
238 0 1 -1.1794 3.215869737345422 17.291777086243606 5.928182222691162 0 0 0
239 0 2 0.5897 3.2271592844920653 16.35302241828871 6.251935646732064 0 0 0
240 0 2 0.5897 3.977622411636065 17.728946349359283 6.383811075045708 0 0 0
341 0 2 0.5897 1.7587651994695537 18.056523833042114 6.512314888326204 0 0 0
657 0 2 0.5897 0.26669609248893544 14.13748434262892 6.084721332693053 1 0 0
340 0 1 -1.1794 0.9667257106749869 18.589299782239202 6.635581280017224 0 0 0
308 0 2 0.5897 7.52737484703048 17.44422657382637 4.5937619753323276 0 0 0
519 0 2 0.5897 8.22080596913841 14.292502800422078 6.279325230818077 0 0 0
378 0 2 0.5897 7.143020961796811 14.820068762725274 8.517421855932286 0 0 0
517 0 1 -1.1794 7.408158464095948 14.869037710455169 6.490118017145824 0 0 0
307 0 1 -1.1794 7.569194859457907 17.42681713868639 5.577997466916832 0 0 0
518 0 2 0.5897 7.5030634658345186 15.777552656135624 6.088406684004 0 0 0
309 0 2 0.5897 8.373283459489162 17.923991650372905 5.732204584607612 0 0 0
386 0 2 0.5897 6.207228025793541 18.3164684914055 6.451951844730563 0 0 0
385 0 1 -1.1794 5.396279047329945 18.614153279527187 6.834743986314805 0 0 0
102 0 2 0.5897 5.2491446662604035 18.41109398237497 8.387126306968401 0 0 0
645 0 2 0.5897 12.542747658964869 17.40435424457531 4.918859479455947 0 0 0
642 0 2 0.5897 11.005441176346721 14.201261633280335 6.62154748348749 0 0 0
641 0 2 0.5897 11.763386169020915 14.665380731217667 7.878490665548621 0 0 0
640 0 1 -1.1794 11.78958445445107 14.645728640795582 6.945912387560045 0 0 0
643 0 1 -1.1794 12.28149905365337 17.279963643939055 5.830096192569406 0 0 0
644 0 2 0.5897 12.001885009786925 16.410893693891722 6.044142011327405 0 0 0
303 0 2 0.5897 10.625545888111864 18.082863531386025 6.116354195108725 0 0 0
301 0 1 -1.1794 9.856336912431413 18.620604700528965 6.438031538364223 0 0 0
725 0 2 0.5897 15.06885814856174 14.159316622251536 6.092358957821976 0 0 0
348 0 2 0.5897 13.713527039395812 17.933043734975925 6.671471047792018 0 0 0
564 0 2 0.5897 16.601827008010254 17.614277787373126 4.7284958489377695 0 0 0
563 0 2 0.5897 17.47921673394631 17.82880799451913 5.991476026430768 0 0 0
205 0 1 -1.1794 16.523902252600898 14.962983739663416 6.6310329344904675 0 0 0
206 0 2 0.5897 16.475902249746326 15.9247675091454 6.4162286680125336 0 0 0
207 0 2 0.5897 16.55607061664709 14.879810560496217 7.583433083331429 0 0 0
562 0 1 -1.1794 16.687732500765136 17.387850474421036 5.67404605234314 0 0 0
347 0 2 0.5897 15.228561026688528 17.982133721113115 6.4014433358400655 0 0 0
346 0 1 -1.1794 14.515193888426024 18.43715055132006 6.906840222812716 0 0 0
371 0 2 0.5897 14.651278965772613 18.63903154461736 8.831535315369473 0 0 0
342 0 2 0.5897 0.909347844541117 18.778176527146726 7.602932166576493 0 0 0
413 0 2 0.5897 0.6778928082313022 21.329338460734185 4.723800184558524 0 0 0
414 0 2 0.5897 0.7547604546764236 20.328819078603978 5.877432756702379 0 0 0
700 0 1 -1.1794 2.786480890835935 22.584619576382302 7.024432489363631 0 0 0
701 0 2 0.5897 2.7796484105553243 22.415638651862807 7.973563070522872 0 0 0
702 0 2 0.5897 1.9131431620731674 22.252886532322776 6.721050861424306 0 0 0
412 0 1 -1.1794 0.6995563244274566 21.310925584126885 5.672634284350223 0 0 0
248 0 2 0.5897 4.203003120205978 21.74096286768033 6.209312102287146 0 0 0
249 0 2 0.5897 5.026546498029658 21.221585181513056 4.9458708854120115 0 0 0
247 0 1 -1.1794 5.010244528912094 21.264743151966982 5.9292953121849745 0 0 0
31 0 1 -1.1794 7.242535909546156 22.29670616449627 6.81719692202638 0 0 0
32 0 2 0.5897 7.928632890367453 21.79744726254149 6.299905938156582 0 0 0
33 0 2 0.5897 6.364491952112609 22.068095025682297 6.436714359830158 0 0 0
387 0 2 0.5897 5.290846044055732 19.58803842128784 6.572337750425094 0 0 0
86 0 2 0.5897 7.591426273638366 22.165657878672178 8.742768034614887 0 0 0
734 0 2 0.5897 10.247809303914773 18.814994740032937 8.578875616973907 0 0 0
591 0 2 0.5897 9.904512411779136 21.138837672178283 4.712813378228336 0 0 0
330 0 2 0.5897 11.896695954594081 22.82019044366929 8.232287117048818 0 0 0
169 0 1 -1.1794 11.866876310318181 22.712193091243364 6.550970586751144 0 0 0
170 0 2 0.5897 12.73116176869594 22.26390567402713 6.3595259301635565 0 0 0
302 0 2 0.5897 9.927965179044545 19.53655761688791 6.061418463291446 0 0 0
589 0 1 -1.1794 9.652947538025645 21.263359788119196 5.628908037572925 0 0 0
590 0 2 0.5897 10.324903927061932 21.900063132849013 5.8487921225997095 0 0 0
352 0 1 -1.1794 16.514661350861708 22.431771137161782 6.743669328437296 0 0 0
353 0 2 0.5897 17.27609226854419 22.0206711707726 6.327466247993309 0 0 0
354 0 2 0.5897 16.62897402340309 22.571134656851 7.690723043008087 0 0 0
532 0 1 -1.1794 14.187544000335103 21.404785648875944 6.258693030599003 0 0 0
533 0 2 0.5897 15.075458612349767 21.733263528939148 6.517803067626923 0 0 0
534 0 2 0.5897 14.091015095910036 20.450277044142048 6.4683606025088 0 0 0
35 0 2 0.5897 0.9676378601289977 4.443822125993572 9.56584460230675 0 0 0
36 0 2 0.5897 1.7859687676536458 3.1509308472695667 9.52615237233292 0 0 0
167 0 2 0.5897 2.583555107967296 2.317668717194488 12.137315260977957 0 0 0
673 0 1 -1.1794 3.1757160403648355 1.9702796900918045 10.323360007025487 0 0 0
674 0 2 0.5897 4.012721814407715 2.055019388373348 9.860724273532147 0 0 0
675 0 2 0.5897 3.0129151483746615 1.0336523306482448 10.088990963110467 0 0 0
166 0 1 -1.1794 2.638064916914236 2.2464993667209394 13.113376959325617 0 0 0
34 0 1 -1.1794 0.8956533399572156 3.532188536904437 9.396734067141553 0 0 0
274 0 1 -1.1794 5.5111863040364595 2.950458682663957 9.410245543204413 0 0 0
276 0 2 0.5897 6.273743189386547 2.411697499364519 9.785087742788365 0 0 0
355 0 1 -1.1794 7.720545005793623 1.5048839381420318 10.469138446336268 0 0 0
356 0 2 0.5897 7.5751752873462195 0.5828960746186158 10.14468137819147 0 0 0
357 0 2 0.5897 7.574679563651171 1.4453739425401342 11.421342711431327 0 0 0
176 0 2 0.5897 8.86519817152653 2.7727961977461604 9.721664471579718 0 0 0
592 0 1 -1.1794 7.457523863556937 2.1299328893151026 13.28793142496079 0 0 0
678 0 2 0.5897 5.390773186857477 4.8577770736698795 9.789640934474875 0 0 0
175 0 1 -1.1794 9.447088126018398 3.4377216396402965 9.309732323844523 0 0 0
514 0 1 -1.1794 11.849310134402057 2.252244349717173 10.33987040019227 0 0 0
515 0 2 0.5897 11.869489803178288 2.193969417910279 11.296891689280363 0 0 0
516 0 2 0.5897 11.003510565837152 2.5812753722941384 10.071548308133844 0 0 0
849 0 2 0.5897 13.454878205234438 2.7325209447814642 9.870396562615305 0 0 0
329 0 2 0.5897 12.09269365227571 0.6161437792986257 9.471374983042866 0 1 0
705 0 2 0.5897 9.761872693858043 4.8466471241123505 10.053953872833297 0 0 0
847 0 1 -1.1794 14.25842652697224 3.1895649053241497 9.45514677848707 0 0 0
652 0 1 -1.1794 16.686457170825477 2.008313864076312 10.382049728084336 0 0 0
653 0 2 0.5897 16.854931340747136 2.08089598578899 11.325528360477966 0 0 0
654 0 2 0.5897 17.459760753802527 2.385797204241506 9.939421273136091 0 0 0
848 0 2 0.5897 15.050320967554459 2.7910116399223845 9.765912830465297 0 0 0
545 0 2 0.5897 14.30460217789228 4.7571068053906655 10.027393634753015 0 0 0
131 0 2 0.5897 16.299432725590187 0.6189030205666436 9.787177883551633 0 0 0
439 0 1 -1.1794 16.38113630815559 1.9987343795967978 13.04963914890331 0 0 0
440 0 2 0.5897 16.45337377381469 1.0326604441526026 13.284587993386161 0 0 0
649 0 1 -1.1794 3.1673871005126895 7.112732490870596 9.483046659206263 0 0 0
112 0 1 -1.1794 0.8060972725626179 6.211002599337556 10.317008746118862 0 0 0
114 0 2 0.5897 1.6226787379501342 6.607200124230237 9.977535058130545 0 0 0
257 0 2 0.5897 3.0889816615040893 8.922304416426188 9.787089619597158 0 0 0
651 0 2 0.5897 3.973189117238283 6.520929323081127 9.71763660868256 0 0 0
113 0 2 0.5897 0.8664221884866191 6.202254833923585 11.256401200074253 0 0 0
364 0 1 -1.1794 0.9765850757936742 5.894857033510817 13.173135613232278 0 0 0
332 0 2 0.5897 3.3635596431912322 7.895707052426012 13.148125228775445 0 0 0
762 0 2 0.5897 5.182311409473176 4.890632179064484 13.215775387596544 0 0 0
526 0 1 -1.1794 7.73220317316702 7.185900346202117 9.561451406227777 0 0 0
527 0 2 0.5897 7.874972977965165 8.068402430944554 9.900131334113935 0 0 0
676 0 1 -1.1794 5.25561754671885 5.758456089969947 10.126799246773194 0 0 0
677 0 2 0.5897 6.140927898171482 6.1609543113074245 9.96614881146981 0 0 0
761 0 2 0.5897 5.499587830838629 5.756852742872334 12.016916575249159 0 0 0
528 0 2 0.5897 8.54569723030218 6.731090862451019 9.788202319763274 0 0 0
760 0 1 -1.1794 5.441133649318467 5.788995233976554 12.995642629179597 0 0 0
703 0 1 -1.1794 9.872774554442506 5.756384123148951 10.421324642811257 0 0 0
313 0 1 -1.1794 12.162908931119564 6.995099834625834 9.318974611689404 0 0 0
314 0 2 0.5897 11.369628022873503 6.568888046248988 9.635220144281563 0 0 0
315 0 2 0.5897 12.86952164732628 6.476211368209875 9.757988318228456 0 0 0
444 0 2 0.5897 12.145076063921506 8.784744149121465 10.031108668414419 0 0 0
704 0 2 0.5897 10.161129662646964 5.6421431656149785 11.353901712614732 0 0 0
850 0 1 -1.1794 10.08254549952835 6.1755686368728675 13.09973626797707 0 0 0
815 0 2 0.5897 13.541139140669493 6.034632291263367 13.194293461971215 0 0 0
622 0 1 -1.1794 16.426562082316522 7.143659376289619 9.249263120554305 0 0 0
816 0 2 0.5897 14.332911351429258 5.655661157491205 11.938785443772696 0 0 0
544 0 1 -1.1794 14.320072302257818 5.6953120969915965 10.273268201753089 0 0 0
546 0 2 0.5897 14.961685188274284 6.053649950760009 9.637811487212575 0 0 0
623 0 2 0.5897 17.058924073690093 6.617379141705187 9.749353700950424 0 0 0
624 0 2 0.5897 16.30975053080065 7.983707159666551 9.682943819325521 0 0 0
814 0 1 -1.1794 14.326510760273452 5.558291443465941 12.89798882704972 0 0 0
194 0 2 0.5897 16.38732039303867 8.491234882978445 13.293156691441018 0 0 0
193 0 1 -1.1794 16.321275646372897 9.411560303276094 12.983976064531214 0 0 0
195 0 2 0.5897 16.49073066859176 9.406382122736074 12.056558519265614 0 0 0
256 0 1 -1.1794 3.1492425839615814 9.87674699853008 9.91620401764385 0 0 0
797 0 2 0.5897 3.004956171188274 9.759263913493973 11.852218337636597 0 0 0
796 0 1 -1.1794 2.9346239416847215 9.775725978593421 12.812095162306207 0 0 0
258 0 2 0.5897 4.089134693822871 10.12426156893905 9.851306418982734 0 0 0
13 0 1 -1.1794 0.6037352056651435 11.140953050273119 9.563533037181234 0 0 0
14 0 2 0.5897 0.4917637130819164 12.063439408417356 10.010196023383122 0 0 0
15 0 2 0.5897 1.4777733650457574 10.781385234627507 9.780110753469831 0 0 0
766 0 1 -1.1794 0.5315731239924663 13.641030814329058 10.51916321772798 0 0 0
767 0 2 0.5897 0.5975054322449755 13.747841697772103 11.518225254073537 0 0 0
637 0 1 -1.1794 1.1949107028090682 13.360512366359691 13.154515079111153 0 0 0
812 0 2 0.5897 3.490095505157624 14.015521014617077 9.918436496488493 0 0 0