LAMMPS (29 Sep 2021 - Update 2)
  using 1 OpenMP thread(s) per MPI task
plugin load libdeepmd_lmp.so
Loading plugin: deepmd pair style v2.0 by Han Wang
Loading plugin: compute deeptensor/atom v2.0 by Han Wang
Loading plugin: fix dplr v2.0 by Han Wang
echo both

include		in.partitions
variable        pid world 0
include		in.temp
variable        temperature equal 250
variable        tempDamp equal 0.100
include		in.pressure
variable        pressure equal 986.923
variable        pressureDamp equal 1.0 # This is 1 ps
include		in.seed
variable        seed world 745823

units           metal
atom_style	full
include		in.box
read_data       water.data
Reading data file ...
  orthogonal box = (0.0000000 0.0000000 0.0000000) to (18.207573 23.629177 22.213196)
  1 by 1 by 1 MPI processor grid
  reading atoms ...
  864 atoms
  reading velocities ...
  864 velocities
Finding 1-2 1-3 1-4 neighbors ...
  special bond factors lj:    0        0        0       
  special bond factors coul:  0        0        0       
     0 = max # of 1-2 neighbors
     0 = max # of 1-3 neighbors
     0 = max # of 1-4 neighbors
     1 = max # of special neighbors
  special bonds CPU = 0.000 seconds
  read_data CPU = 0.016 seconds
include 	in.setup
variable	out_freq equal 500
variable	out_freq2 equal 500

timestep        0.0005

neigh_modify    delay 7 every 1

include         in.deepmd
# This is deepMD model

# create groups ###
#group ox type 2
#group hy type 1

mass 2 15.999
mass 1 1.008

pair_style      deepmd ../graph.pb
pair_coeff      * *

bond_style      none
angle_style     none
dihedral_style  none
improper_style  none
neigh_modify exclude none


neighbor        2.0 bin
neigh_modify    every 10 delay 0 check no

thermo          ${out_freq}
thermo          500
thermo_style 	custom step temp pe etotal epair emol press lx ly lz xy xz yz vol pxx pyy pzz pxy pxz pyz cella cellb cellc cellalpha cellbeta cellgamma


restart 	${out_freq} restart.lmp.${pid} restart2.lmp.${pid}
restart 	500 restart.lmp.${pid} restart2.lmp.${pid}
restart 	500 restart.lmp.0 restart2.lmp.${pid}
restart 	500 restart.lmp.0 restart2.lmp.0


include         in.dump
dump            myDump all atom ${out_freq2} dump.water.${pid}
dump            myDump all atom 500 dump.water.${pid}
dump            myDump all atom 500 dump.water.0
dump            myDump2 all dcd ${out_freq2} dump.dcd
dump            myDump2 all dcd 500 dump.dcd
dump_modify     myDump append yes
dump_modify     myDump2 append yes


timer           timeout 23:50:00 every 1000
New timer settings: style=normal  mode=nosync  timeout=23:50:00

fix             2 all nph aniso ${pressure} ${pressure} ${pressureDamp}
fix             2 all nph aniso 986.923 ${pressure} ${pressureDamp}
fix             2 all nph aniso 986.923 986.923 ${pressureDamp}
fix             2 all nph aniso 986.923 986.923 1
fix             3 all temp/csvr ${temperature} ${temperature} ${tempDamp} ${seed}
fix             3 all temp/csvr 250 ${temperature} ${tempDamp} ${seed}
fix             3 all temp/csvr 250 250 ${tempDamp} ${seed}
fix             3 all temp/csvr 250 250 0.1 ${seed}
fix             3 all temp/csvr 250 250 0.1 745823
velocity 	all create ${temperature} ${seed} dist gaussian
velocity 	all create 250 ${seed} dist gaussian
velocity 	all create 250 745823 dist gaussian

run             400000

CITE-CITE-CITE-CITE-CITE-CITE-CITE-CITE-CITE-CITE-CITE-CITE-CITE

Your simulation uses code contributions which should be cited:

- USER-DEEPMD package:

@article{Wang_ComputPhysCommun_2018_v228_p178,
  author = {Wang, Han and Zhang, Linfeng and Han, Jiequn and E, Weinan},
  doi = {10.1016/j.cpc.2018.03.016},
  url = {https://doi.org/10.1016/j.cpc.2018.03.016},
  year = 2018,
  month = {jul},
  publisher = {Elsevier {BV}},
  volume = 228,
  journal = {Comput. Phys. Commun.},
  title = {{DeePMD-kit: A deep learning package for many-body potential energy representation and molecular dynamics}},
  pages = {178--184}
}

CITE-CITE-CITE-CITE-CITE-CITE-CITE-CITE-CITE-CITE-CITE-CITE-CITE

Neighbor list info ...
  update every 10 steps, delay 0 steps, check no
  max neighbors/atom: 2000, page size: 100000
  master list distance cutoff = 8
  ghost atom cutoff = 8
  binsize = 4, bins = 5 6 6
  1 neighbor lists, perpetual/occasional/extra = 1 0 0
  (1) pair deepmd, perpetual
      attributes: full, newton on
      pair build: full/bin
      stencil: full/bin/3d
      bin: standard
Per MPI rank memory allocation (min/avg/max) = 7.189 | 7.189 | 7.189 Mbytes
Step Temp PotEng TotEng E_pair E_mol Press Lx Ly Lz Xy Xz Yz Volume Pxx Pyy Pzz Pxy Pxz Pyz Cella Cellb Cellc CellAlpha CellBeta CellGamma 
       0          250   -169.12462   -141.23674   -169.12462            0   -24499.548    18.207573    23.629177    22.213196            0            0            0    9556.7825   -24843.474    -23966.75   -24688.418    1.2307403    310.87039   -220.59637    18.207573    23.629177    22.213196           90           90           90 
     500    236.19807   -150.80383   -124.45558   -150.80383            0    1049.0229    17.894321    23.178922    21.800154            0            0            0     9042.073   -2204.5198    2633.6348    2717.9536   -1060.5246   -103.71714   -410.11452    17.894321    23.178922    21.800154           90           90           90 
    1000    236.19249   -146.04333    -119.6957   -146.04333            0     -483.104    17.757981    23.037501    21.786438            0            0            0    8912.8213   -244.08171   -2870.5588    1665.3285    838.96315    998.77338   -238.95915    17.757981    23.037501    21.786438           90           90           90 
    1500    249.47541   -148.89786    -121.0685   -148.89786            0    -184.9163    17.976851    23.330207    22.147278            0            0            0    9288.6493     3294.183   -757.73023   -3091.2017   -348.54894    1353.9105    290.02207    17.976851    23.330207    22.147278           90           90           90 
    2000    256.05306    -146.9344    -118.3713    -146.9344            0    1241.6154    18.000648    23.303007    22.050597            0            0            0    9249.5467    2413.3841    874.15073    437.31149   -610.08966    374.41432   -710.66545    18.000648    23.303007    22.050597           90           90           90 
    2500    254.26185   -146.52797   -118.16468   -146.52797            0   -526.26118    18.018054    23.318442    21.909127            0            0            0    9205.1842    1044.1548    725.68594   -3348.6243     2289.794     456.1639   -998.82875    18.018054    23.318442    21.909127           90           90           90 
    3000    251.38819   -145.19249   -117.14976   -145.19249            0    1429.6961    17.826255    23.259526    21.945251            0            0            0    9099.1653    2012.0556    524.60675    1752.4259   -2328.4252    673.75673    298.93178    17.826255    23.259526    21.945251           90           90           90 
    3500    253.52062    -147.3341   -119.05349    -147.3341            0    4388.5775    17.879214    23.378494    22.180411            0            0            0    9271.1701    3970.2262    4126.4348    5069.0715      437.495   -455.14672   -1473.4948    17.879214    23.378494    22.180411           90           90           90 
    4000    248.64855    -147.6418   -119.90468    -147.6418            0   -4085.9685    18.071999    23.440222    22.235562            0            0            0    9419.2434   -2797.2078   -5584.4466   -3876.2511   -2644.2571   -744.13245    562.68429    18.071999    23.440222    22.235562           90           90           90 
    4500    238.99006   -146.08138   -119.42168   -146.08138            0    5345.3991     17.92776    23.116339    21.788843            0            0            0    9029.8235    5483.8224    4343.1916    6209.1832     95.43232    547.96794   -102.40707     17.92776    23.116339    21.788843           90           90           90 
    5000    245.03133   -146.11352   -118.77991   -146.11352            0    46.283384    18.002342    23.248089    21.990413            0            0            0    9203.4289    1399.4965   -2018.8943    758.24798    360.31244    843.94887    1166.3832    18.002342    23.248089    21.990413           90           90           90 
    5500    238.75717   -146.63356   -119.99983   -146.63356            0   -2745.2183    18.037756    23.317768    22.177746            0            0            0    9327.9645   -4558.3613   -1108.4492   -2568.8443    1827.7626   -1361.1968    606.01472    18.037756    23.317768    22.177746           90           90           90 
    6000      248.784   -147.18561   -119.43338   -147.18561            0    3489.0384    17.961356    23.241772    21.995067            0            0            0    9181.9232    4744.9868    2622.4621    3099.6664    758.61377   -436.11186   -439.72545    17.961356    23.241772    21.995067           90           90           90 
    6500    243.54086    -147.2452   -120.07785    -147.2452            0    3444.0419    17.942963    23.319547    21.968955            0            0            0     9192.289    3780.5043    1343.0473     5208.574   -623.26302     170.5064   -1441.0282    17.942963    23.319547    21.968955           90           90           90 
    7000    254.63962   -146.17174    -117.7663   -146.17174            0    1095.0715    17.892489     23.42824    22.045041            0            0            0    9241.0501    2836.2034   -3281.0815    3730.0926    2517.0026   -1190.0523   -821.93213    17.892489     23.42824    22.045041           90           90           90 
    7500    257.59082    -146.9294   -118.19475    -146.9294            0    1195.8451    18.004766    23.482215    22.161473            0            0            0    9369.6889     3221.084   -1447.4456    1813.8969   -3612.7705    452.76243    1509.8922    18.004766    23.482215    22.161473           90           90           90 
    8000    252.20774   -147.22986    -119.0957   -147.22986            0   -178.74692    17.973281    23.151032    22.013621            0            0            0    9159.8678   -1446.5513    2029.4303   -1119.1198   -1958.3063    35.067636   -181.97751    17.973281    23.151032    22.013621           90           90           90 
    8500    245.20544   -146.93165   -119.57861   -146.93165            0    4210.4962    18.022376    23.136085    22.033852            0            0            0    9187.3937     4734.643    7327.1654    569.68016   -667.46662    593.42051   -199.60983    18.022376    23.136085    22.033852           90           90           90 
    9000    249.24998     -144.996   -117.19179     -144.996            0   -325.82608    18.069621    23.339405    22.090555            0            0            0    9316.3421    -318.5307   -63.175278   -595.77226    1805.2248   -485.36735   -496.40501    18.069621    23.339405    22.090555           90           90           90 
    9500    256.36743   -146.26356   -117.66539   -146.26356            0    1944.3455    17.959447    23.370272    21.980013            0            0            0     9225.389    1252.8869    2752.1888    1827.9608    -1851.893    446.29166    1685.1968    17.959447    23.370272    21.980013           90           90           90 
   10000    250.42441   -145.27497   -117.33975   -145.27497            0     1516.428    17.848406    23.494805    22.022607            0            0            0    9235.0661    3176.3638    2318.4174   -945.49729    1955.0011    13.631941    1442.0081    17.848406    23.494805    22.022607           90           90           90 
   10500    264.27251   -144.73611   -115.25611   -144.73611            0   -1093.2346    17.806353    23.524894    22.253151            0            0            0    9321.6794    505.48928    852.31179   -4637.5048    134.88563   -2042.5917    1990.4469    17.806353    23.524894    22.253151           90           90           90 
   11000    259.55389   -146.38435   -117.43072   -146.38435            0    1164.1391    17.960926     23.28863    22.157661            0            0            0    9268.2254   -554.73917    1596.0706    2451.0859    689.31322    137.57847    798.83988    17.960926     23.28863    22.157661           90           90           90 
   11500    248.17203   -146.20944   -118.52548   -146.20944            0     1390.085     18.26504    23.034885    21.928094            0            0            0    9225.8748   -1004.9166    2521.7786    2653.3931    871.73328    571.62136   -180.25831     18.26504    23.034885    21.928094           90           90           90 
   12000    254.84107   -146.09934   -117.67144   -146.09934            0    131.21404    18.279743    23.108956    21.944915            0            0            0    9270.0976    952.21868   -370.18104   -188.39552   -291.79445   -1028.2615    1059.8878    18.279743    23.108956    21.944915           90           90           90 
   12500     260.3529   -146.04424   -117.00148   -146.04424            0    2924.0327    17.888677    23.338622    22.131339            0            0            0    9239.7691    3891.7013    3286.7313    1593.6655    1563.3965     1720.988   -1126.8395    17.888677    23.338622    22.131339           90           90           90 
   13000    257.85932   -145.54079   -116.77619   -145.54079            0    3010.9661    17.745944    23.505769    22.226532            0            0            0    9271.3993    4039.7945    3047.5158     1945.588    2041.8724   -2415.0763     1292.571    17.745944    23.505769    22.226532           90           90           90 
   13500    248.45902   -147.04735   -119.33137   -147.04735            0   -929.19055     17.89336    23.422195    22.040815            0            0            0    9237.3447   -512.87033   -4828.3496    2553.6483    550.35762     197.6317   -1224.5642     17.89336    23.422195    22.040815           90           90           90 
   14000     238.7095   -145.80308   -119.17468   -145.80308            0    1799.6324    18.090625    23.291791    22.005185            0            0            0    9272.1721   -542.74434    2802.0699    3139.5715    2871.5505   -78.818865    1521.0702    18.090625    23.291791    22.005185           90           90           90 
   14500    242.88198   -147.05089   -119.95704   -147.05089            0    2871.3328    18.114562     23.21203     22.03934            0            0            0    9267.0081    1129.6642    2467.5021     5016.832   -627.30396    208.20345   -1772.9231    18.114562     23.21203     22.03934           90           90           90 
   15000    257.17809   -147.55324   -118.86464   -147.55324            0    683.89816     17.99234     23.24404    22.142024            0            0            0    9260.1192    442.52626    2304.4163   -695.24809    3196.1863    2160.8119   -536.26266     17.99234     23.24404    22.142024           90           90           90 
   15500    257.88306   -147.24572   -118.47848   -147.24572            0   -50.728185    17.866908    23.415787    22.138889            0            0            0    9262.1964    2487.4396   -584.29888   -2055.3252    1153.6916    534.58868    393.43413    17.866908    23.415787    22.138889           90           90           90 
   16000    250.14291   -146.48318   -118.57937   -146.48318            0    1136.2873     17.91791    23.505093    21.971314            0            0            0    9253.4858    1608.6084   -1756.9996     3557.253   -2870.8413   -351.25842    7.3387691     17.91791    23.505093    21.971314           90           90           90 
   16500    246.26915   -145.93876   -118.46707   -145.93876            0   -781.88952    18.094133    23.333583    21.879226            0            0            0    9237.4301   -199.61655   -2057.1767    -88.87535   -1283.8554    652.33057   -2411.8408    18.094133    23.333583    21.879226           90           90           90 
   17000       255.67   -147.14654   -118.62617   -147.14654            0   -1453.6827    18.249535    22.999102    22.065973            0            0            0    9261.5945   -1459.1813   -1755.5859   -1146.2809   -701.35256    955.29689    864.29548    18.249535    22.999102    22.065973           90           90           90 
   17500    245.66475   -145.85814   -118.45387   -145.85814            0    1808.4569    18.126418    22.977876    22.310639            0            0            0    9292.5278    2503.1117    2509.7724    412.48661   -1329.9393    1119.5764    373.77486    18.126418    22.977876    22.310639           90           90           90 
   18000    232.53466   -146.07351   -120.13392   -146.07351            0    402.66966    17.804425    23.466033    22.138859            0            0            0    9249.5984   -108.94526    255.74022     1061.214   -720.97399    288.57331    221.05102    17.804425    23.466033    22.138859           90           90           90 
   18500    252.94423   -147.21188   -118.99557   -147.21188            0    3172.4817    17.747406    23.756411    21.918383            0            0            0    9241.1115    7267.0151    3518.1288   -1267.6987    455.70563   -1835.3541    514.49994    17.747406    23.756411    21.918383           90           90           90 
   19000    246.76107   -146.75781   -119.23124   -146.75781            0   -58.306959    17.952459    23.527763    22.007868            0            0            0    9295.7098    653.33559   -1459.3204    631.06394   -133.60963   -206.79475   -779.32551    17.952459    23.527763    22.007868           90           90           90 
   19500    248.79624   -146.32044   -118.56684   -146.32044            0   -1976.8298     18.09198    23.154202    22.119564            0            0            0    9266.0039    -2028.982   -2839.9469   -1061.5605   -3052.8992    1489.8451    610.75229     18.09198    23.154202    22.119564           90           90           90 
   20000     249.4387    -147.8446   -120.01934    -147.8446            0    4080.0082    18.078873    23.026441    22.089118            0            0            0     9195.525    2019.1807    4757.1685    5463.6755   -126.67009   -466.30549    2253.4376    18.078873    23.026441    22.089118           90           90           90 
   20500    244.59042   -147.21631   -119.93189   -147.21631            0   -1992.0738    18.076077    23.260716    22.114564            0            0            0    9298.3452   -3807.9688   -1241.4884   -926.76424    917.94418   -780.05646    1922.5976    18.076077    23.260716    22.114564           90           90           90 
   21000    238.27839   -146.87864   -120.29833   -146.87864            0    2457.4801    17.924173    23.440778    21.951987            0            0            0    9223.2714    5452.1693   -834.22145    2754.4925   -941.09107   -88.307208   -929.46616    17.924173    23.440778    21.951987           90           90           90 
   21500    239.24715   -147.85227   -121.16389   -147.85227            0   -2327.1661    17.882024    23.520255    22.021407            0            0            0    9261.9782   -3707.1689     -2950.04   -324.28941   -1511.2768    382.38185     651.1191    17.882024    23.520255    22.021407           90           90           90 
   22000    252.49223   -147.74779    -119.5819   -147.74779            0    1931.7788    17.912991    23.330082    22.114759            0            0            0    9242.0133    1221.5005    2288.0584    2285.7776    2250.8306    444.13926    737.39131    17.912991    23.330082    22.114759           90           90           90 
   22500    245.59886   -146.82164   -119.42471   -146.82164            0     195.6541    18.117072    23.175829    22.119743            0            0            0    9287.5967    1338.5446   -1430.2699    678.68761    179.33524    666.27551   -253.04638    18.117072    23.175829    22.119743           90           90           90 
   23000    241.64887   -147.11701   -120.16071   -147.11701            0    582.23422    18.137895    23.140442    21.926137            0            0            0    9202.8146   -1222.0724    2544.3472    424.42784   -1451.5732   -704.37859   -982.53874    18.137895    23.140442    21.926137           90           90           90 
   23500    254.72553   -147.04988   -118.63486   -147.04988            0    2570.8528    18.016459     23.36105    22.002476            0            0            0    9260.4772    -1.906185    4996.5461    2717.9185   -1867.7485    484.71664    1507.4232    18.016459     23.36105    22.002476           90           90           90 
   24000    252.29626   -145.08631   -116.94228   -145.08631            0     1756.944    17.767557    23.557728    22.172009            0            0            0    9280.3886    4429.9427    749.58963     91.29954   -241.30411   -1478.7149   -1194.9993    17.767557    23.557728    22.172009           90           90           90 
   24500    248.02957   -146.31418   -118.64611   -146.31418            0    548.13548    17.772073    23.534953    22.193404            0            0            0    9282.7221   -854.48344   -36.414316    2535.3042   -586.89898   -1146.3324    724.24733    17.772073    23.534953    22.193404           90           90           90 
   25000    256.24566   -146.02973   -117.44514   -146.02973            0    1675.6114    18.133911    23.296151    21.957559            0            0            0    9275.9778    524.46121    390.09505    4112.2778   -1230.7075    412.11871    317.23907    18.133911    23.296151    21.957559           90           90           90 
   25500    263.60232   -146.06458   -116.65934   -146.06458            0     2735.742    18.300413    23.140977    21.927049            0            0            0     9285.874    777.11574    3145.0203      4285.09   -707.29355   -1056.5927   -1583.7356    18.300413    23.140977    21.927049           90           90           90 
   26000    262.13133   -146.60324    -117.3621   -146.60324            0    1252.9184    18.083082    23.175256    22.122357            0            0            0    9271.0385    2546.4614    233.68484    978.60891    -529.4109    1679.3476    24.007449    18.083082    23.175256    22.122357           90           90           90 
   26500    251.66071   -146.74648   -118.67334   -146.74648            0    579.42217    17.862597    23.422166    22.194404            0            0            0    9285.7107    96.034596   -463.82971    2106.0616    324.54932    936.80916    47.216091    17.862597    23.422166    22.194404           90           90           90 
   27000    251.66446   -145.51583   -117.44228   -145.51583            0    2686.8714    17.801779    23.507311    22.039754            0            0            0     9223.019    4119.5458    2440.2031    1500.8653    1570.8658    892.88119   -516.92921    17.801779    23.507311    22.039754           90           90           90 
   27500    254.58702   -146.28365   -117.88408   -146.28365            0   -2198.9587    17.995117    23.439182    21.990382            0            0            0    9275.3415   -4817.2376   -3459.4174    1679.7788    297.49198     509.2603    1607.5622    17.995117    23.439182    21.990382           90           90           90 
   28000     246.2834   -146.96514   -119.49186   -146.96514            0    3982.7494    18.141402    23.210835    22.078493            0            0            0    9296.7477    1168.7894    3737.0315    7042.4271   -2726.4207   -1538.3697   -855.08433    18.141402    23.210835    22.078493           90           90           90 
   28500    251.43659   -145.99172   -117.94359   -145.99172            0    986.65942    18.103458    23.108772    22.171384            0            0            0    9275.3697   -327.07155    1535.5942    1751.4556   -1535.0197    720.90969     770.2678    18.103458    23.108772    22.171384           90           90           90 
   29000    243.78155   -145.92913   -118.73494   -145.92913            0     580.6515    17.985646    23.325481     22.18048            0            0            0    9305.2404     439.4227    2075.7967   -773.26488   -1456.0452   -1471.9728   -263.45017    17.985646    23.325481     22.18048           90           90           90 
   29500    250.85091   -144.95769    -116.9749   -144.95769            0    1876.3407    17.867174    23.489718    21.955782            0            0            0    9214.7291   -679.85477   -408.56051    6717.4374    1599.6113    365.86184    849.98159    17.867174    23.489718    21.955782           90           90           90 
   30000    262.51005   -144.59956   -115.31616   -144.59956            0   -1315.9309    17.956833    23.588273    22.007187            0            0            0     9321.599   -195.89193   -1272.4534   -2479.4472    51.331254   -1316.9517   -1620.7694    17.956833    23.588273    22.007187           90           90           90 
   30500    252.97219   -145.23288   -117.01345   -145.23288            0     3350.439    18.026306    23.334609     22.12703            0            0            0     9307.443    2225.2127     2760.524    5065.5802   -1936.0151    -743.4606    -436.4662    18.026306    23.334609     22.12703           90           90           90 
   31000    251.17984   -145.03362   -117.01413   -145.03362            0     1377.399    18.035373     23.01143    22.136794            0            0            0    9187.2064    2103.2161    253.30318    1775.6778   -1047.4563   -496.14904   -686.28773    18.035373     23.01143    22.136794           90           90           90 
   31500     243.2925   -144.76795    -117.6283   -144.76795            0   -294.09138    18.088864    23.146866    22.066738            0            0            0    9239.3549   -2125.3997   -594.59183    1837.7173    1584.2662     1030.207     1394.634    18.088864    23.146866    22.066738           90           90           90 
   32000    250.17031   -146.73002   -118.82314   -146.73002            0    623.03477    18.048106    23.516453    22.002139            0            0            0    9338.3111    1350.5752   -1891.4595    2409.9887   -208.65341    250.31813   -1818.5853    18.048106    23.516453    22.002139           90           90           90 
   32500    245.14925   -145.26578   -117.91901   -145.26578            0    1458.9947    17.847164    23.506132    21.985247            0            0            0    9223.2023    1761.1134    865.68822    1750.1825   -2035.0084    647.35484    727.40266    17.847164    23.506132    21.985247           90           90           90 
   33000    247.23846   -145.81698   -118.23715   -145.81698            0    1912.2046    17.867643    23.388753    22.156568            0            0            0    9259.2718    1642.2631    1872.8883    2221.4625    2301.3754   -2426.0424    749.90653    17.867643    23.388753    22.156568           90           90           90 
   33500    260.88236   -147.48378   -118.38196   -147.48378            0     87.56053    18.066514    23.223742    22.225877            0            0            0    9325.3573   -225.41689     1669.715   -1181.6165   -255.99511   -1737.3608    763.95656    18.066514    23.223742    22.225877           90           90           90 
   34000    243.08742   -147.69834   -120.58158   -147.69834            0    3206.2204    18.061732    23.106662    21.920614            0            0            0    9148.4877    3355.1478    3112.3062    3151.2071    -998.3881   -3299.0241    1733.9939    18.061732    23.106662    21.920614           90           90           90 
   34500    241.51296   -147.96954   -121.02841   -147.96954            0    545.00128    18.104663    23.407912    22.059607            0            0            0    9348.6929    704.99638   -153.94977    1083.9572    2016.9881    385.41603   -208.91238    18.104663    23.407912    22.059607           90           90           90 
   35000    244.16696   -148.21353   -120.97633   -148.21353            0    763.59649    17.870445    23.353997    22.006433            0            0            0    9184.3035   -1322.0967   -653.75491    4266.6411    2003.3771    439.29342    1918.6889    17.870445    23.353997    22.006433           90           90           90 
   35500     243.5958   -147.47688    -120.3034   -147.47688            0    1157.9577    17.839414    23.372414    22.065484            0            0            0    9200.2076    3501.7668   -90.549778    62.656252   -28.707567    349.52997   -452.47685    17.839414    23.372414    22.065484           90           90           90 
   36000      253.713   -147.91554   -119.61347   -147.91554            0   -947.86087    18.037474    23.409774    22.222055            0            0            0    9383.3334   -1572.3958   -1445.5505    174.36366   -427.08613   -1024.9903    303.34574    18.037474    23.409774    22.222055           90           90           90 
   36500    252.16685   -146.79645   -118.66686   -146.79645            0     1613.756    18.008952    23.200364    22.012126            0            0            0    9196.9796    876.30136    3134.4493    830.51732   -2379.7152    482.41148   -1189.9794    18.008952    23.200364    22.012126           90           90           90 
   37000    250.37984   -146.46159   -118.53134   -146.46159            0   -1157.6956    18.120397    23.304792    22.028072            0            0            0    9302.2801   -2674.1533      -251.48   -547.45359    -1117.047    -2189.377   -1142.0664    18.120397    23.304792    22.028072           90           90           90 
   37500    250.68501   -147.14081   -119.17652   -147.14081            0    1947.9004    17.997913    23.320391    22.020568            0            0            0    9242.4371    2286.0711     1099.362     2458.268   -1329.9893    1886.8266   -821.29249    17.997913    23.320391    22.020568           90           90           90 
   38000     252.7534    -146.3514   -118.15638    -146.3514            0    2386.9307     17.89468    23.382908    22.118252            0            0            0    9254.9329    2105.2058    4184.2033    871.38305    1773.0086    -1161.527    684.58976     17.89468    23.382908    22.118252           90           90           90 
   38500    244.54614   -145.58076   -118.30127   -145.58076            0   -260.66359    18.007067    23.417209    22.179941            0            0            0    9352.7323   -211.31189    1563.9649   -2134.6437    558.16412   -1041.6766   -285.22142    18.007067    23.417209    22.179941           90           90           90 
   39000    256.75397   -147.47043   -118.82914   -147.47043            0    2498.8981    17.968206    23.172229    21.929955            0            0            0    9130.8306    3564.7239    778.13185    3153.8386    1820.7101    262.99951   -2026.2958    17.968206    23.172229    21.929955           90           90           90 
   39500    256.81174   -147.16491   -118.51717   -147.16491            0    59.542424    18.156661    23.364655    22.068862            0            0            0    9362.1434   -922.20958    590.70541    510.13145   -341.14395   -882.91777   -573.77753    18.156661    23.364655    22.068862           90           90           90 
   40000    250.02185   -147.03853   -119.14821   -147.03853            0    2084.9294    18.084511    23.381675    22.131431            0            0            0    9358.1904    5523.8594    2166.7566   -1435.8277   -3388.0237   -668.11416    1244.4616    18.084511    23.381675    22.131431           90           90           90 
   40500    248.37212   -147.33225   -119.62596   -147.33225            0    2284.2459    17.842177    23.195231    22.014093            0            0            0    9110.6076    112.09306    3039.1691    3701.4756    1934.4301    352.15747   -1018.6502    17.842177    23.195231    22.014093           90           90           90 
   41000    240.69252   -145.40564   -118.55602   -145.40564            0    -1329.022    17.991455    23.461983     22.23752            0            0            0     9386.796   -3899.3078   -337.48349    249.72529     654.4356    1680.2874   -1665.2281    17.991455    23.461983     22.23752           90           90           90 
   41500    250.76694   -146.89767   -118.92424   -146.89767            0    3602.2679    17.970471    23.362597    22.045635            0            0            0    9255.5704    1751.2455    853.96797    8201.5903    -1081.572   -380.67864   -488.83661    17.970471    23.362597    22.045635           90           90           90 
   42000    255.24084   -146.96537   -118.49287   -146.96537            0    1911.3908    18.062837    23.312273    22.021536            0            0            0    9272.9556    2167.4397    2949.7061    617.02666    1777.6328   -696.40027    346.47061    18.062837    23.312273    22.021536           90           90           90 
   42500    248.17627   -145.89016   -118.20572   -145.89016            0    1214.8371    18.047262     23.21343    22.056503            0            0            0    9240.3259    1273.0648    2990.8537   -619.40711   -852.73022   -557.62453     1060.188    18.047262     23.21343    22.056503           90           90           90 
   43000    265.19287   -147.36252   -117.77986   -147.36252            0    -2442.208    18.005388    23.289306    22.144043            0            0            0    9285.7274    902.68402   -4568.5942   -3660.7139    -135.6598   -393.79981   -90.440245    18.005388    23.289306    22.144043           90           90           90 
   43500     252.4064   -147.15982    -119.0035   -147.15982            0      2902.75    17.932484    23.439713    22.147048            0            0            0    9309.1193    1755.6566    1972.3017    4980.2917   -191.62016   -1208.8174    452.21609    17.932484    23.439713    22.147048           90           90           90 
   44000    248.97417   -146.66476   -118.89132   -146.66476            0    2538.0714    17.914345    23.469454    21.949782            0            0            0    9228.5641    3400.7735    2379.2287     1834.212   -158.06465   -1147.2043   -1635.1287    17.914345    23.469454    21.949782           90           90           90 
   44500    244.69583   -145.66147   -118.36529   -145.66147            0    -754.1956     18.05501    23.349611    21.968179            0            0            0     9261.289   -1233.1517    48.745297   -1078.1803    -660.4448   -237.90547    3504.7017     18.05501    23.349611    21.968179           90           90           90 
   45000    242.47729   -147.45527   -120.40657   -147.45527            0    3288.6826    18.050543    23.062907    22.186456            0            0            0    9236.1773    7266.9784    146.35465    2452.7147      -591.05   -111.40494   -490.52663    18.050543    23.062907    22.186456           90           90           90 
   45500    243.10974   -147.47626     -120.357   -147.47626            0    669.96558    18.016281    23.176338    22.361557            0            0            0    9337.0994    639.04463    4221.1024   -2850.2503   -912.01513   -2528.2831      2632.47    18.016281    23.176338    22.361557           90           90           90 
   46000     247.5385   -146.52886   -118.91556   -146.52886            0    720.80591    17.842073    23.410307    21.931596            0            0            0    9160.5736    1181.3308   -1575.4158    2556.5027    2435.1808   -1875.2362   -817.96915    17.842073    23.410307    21.931596           90           90           90 
   46500    245.80652   -146.12384   -118.70375   -146.12384            0    1121.4617    17.937877    23.675677    21.734263            0            0            0    9230.3545    769.19909    1068.5171    1526.6691    1965.0957     995.1382   -613.82263    17.937877    23.675677    21.734263           90           90           90 
   47000    242.53932   -145.92413   -118.86851   -145.92413            0    1622.2418     18.03887    23.526046    22.065021            0            0            0    9364.0258    352.04002    777.34984    3737.3354   -102.77099    319.47506   -941.12143     18.03887    23.526046    22.065021           90           90           90 
   47500    250.70152   -146.02341   -118.05728   -146.02341            0   -355.81187    17.971815    23.127482     22.21699            0            0            0    9234.3325    1508.4913   -1324.7951   -1251.1318   -802.62109    -33.14912    157.46178    17.971815    23.127482     22.21699           90           90           90 
   48000    250.26996   -145.65807   -117.74008   -145.65807            0    1605.6866    18.050866     23.15701    22.148004            0            0            0    9257.9566    386.45852    1830.6368    2599.9644    657.66881    508.22698   -640.29787    18.050866     23.15701    22.148004           90           90           90 
   48500    259.61302   -147.56353   -118.60331   -147.56353            0    1466.1687    18.080656    23.330189    21.949391            0            0            0    9258.8048    513.20377    2320.7995     1564.503      944.417    544.69773   -97.335545    18.080656    23.330189    21.949391           90           90           90 
   49000    265.60691   -146.56678   -116.93793   -146.56678            0    1754.6281     17.99046    23.483968    22.025149            0            0            0    9305.3478    1390.3993    1558.8858    2314.5992   -587.08076    1750.6636   -915.82244     17.99046    23.483968    22.025149           90           90           90 
   49500    267.26787   -144.22115   -114.40702   -144.22115            0   -1521.8667    17.859791    23.455792    22.197087            0            0            0    9298.7045   -2202.8955   -2415.6286    52.924163    -248.4717    2439.7236   -1561.5233    17.859791    23.455792    22.197087           90           90           90 
   50000    269.51227   -146.76105   -116.69655   -146.76105            0    2478.2006    17.947314    23.240049     22.11857            0            0            0    9225.5774    4701.2287    3210.5906   -477.21749    3568.2198    -506.7022    -1098.674    17.947314    23.240049     22.11857           90           90           90 
   50500    257.73741   -147.39485   -118.64386   -147.39485            0   -1257.4237    18.210722    23.227344    22.065759            0            0            0    9333.5227   -3285.8257   -1495.4718    1009.0263   -1214.3022    526.93511    240.01111    18.210722    23.227344    22.065759           90           90           90 
   51000    261.12419   -146.96628   -117.83748   -146.96628            0    2969.9924    18.160028    23.276944      21.9875            0            0            0    9294.3351    2395.9646    2376.0694    4137.9431    90.398202   -1140.3017    1341.8887    18.160028    23.276944      21.9875           90           90           90 
   51500    241.96212   -146.04595   -119.05471   -146.04595            0    472.36194    17.948721    23.369172    22.054795            0            0            0    9250.8122   -1113.9838   -1955.2059    4486.2755   -441.02746   -1204.8019   -986.91334    17.948721    23.369172    22.054795           90           90           90 
   52000    233.11403   -146.62478   -120.62056   -146.62478            0    2527.4631    17.851002    23.404014    22.217109            0            0            0    9281.9771    4331.3569     1264.961    1986.0714    1700.5073   -1199.7911   -334.86992    17.851002    23.404014    22.217109           90           90           90 
   52500     248.6003    -145.0353   -117.30356    -145.0353            0   -1170.7216    17.944994    23.352689    22.208794            0            0            0    9306.9031    1145.0341   -3555.5933   -1101.6054    1220.1786   -1907.2193   -2069.4463    17.944994    23.352689    22.208794           90           90           90 
   53000     248.8745   -147.40037   -119.63805   -147.40037            0    832.50803    18.114964    23.330998    21.931396            0            0            0    9269.0895    2042.9952   -3010.0734    3464.6022   -849.44736   -63.773688    2167.2259    18.114964    23.330998    21.931396           90           90           90 
   53500    251.10812   -147.04357   -119.03209   -147.04357            0   -270.19621    18.211338    23.301805    21.895101            0            0            0    9291.3402   -1976.4147    113.73841    1052.0877    201.59377   -766.28792   -156.56691    18.211338    23.301805    21.895101           90           90           90 
   54000    257.81326   -146.52771   -117.76825   -146.52771            0    1578.6462    17.996372    23.221949    22.162402            0            0            0    9261.9084    1911.1805    1152.1088    1672.6494    1543.6915    957.37814    1567.4075    17.996372    23.221949    22.162402           90           90           90 
   54500      245.333   -148.32583   -120.95856   -148.32583            0    878.98964    17.836273    23.391349    22.351462            0            0            0     9325.354    273.82833    1424.7129    938.42765    28.482189    595.12592     525.9447    17.836273    23.391349    22.351462           90           90           90 
   55000    244.30652   -146.72156    -119.4688   -146.72156            0   -577.91004    17.902957     23.63017     22.08966            0            0            0    9345.0288    1473.9561   -2559.9941   -647.69212    667.00831    135.58021    -509.2154    17.902957     23.63017     22.08966           90           90           90 
   55500    246.37729   -147.31733   -119.83357   -147.31733            0    3026.1203    18.024381    23.481184    21.771839            0            0            0    9214.5783     437.3971    1922.8729    6718.0909    782.86174    1445.5839   -632.87538    18.024381    23.481184    21.771839           90           90           90 
   56000    255.61287   -145.82215   -117.30815   -145.82215            0   -462.05095    18.136966    23.279742    22.114417            0            0            0    9337.2352   -43.088213    309.92813   -1652.9928    632.19936   -928.71283    -492.6752    18.136966    23.279742    22.114417           90           90           90 
   56500    243.25151   -144.80415   -117.66908   -144.80415            0   -1041.9199    18.086667    23.198492    22.346008            0            0            0    9376.0137    1845.2077   -548.71746   -4422.2498   -1008.0891    760.94918    78.628132    18.086667    23.198492    22.346008           90           90           90 
   57000    257.32953   -147.22601   -118.52051   -147.22601            0   -85.094398    17.923296    23.230632    22.109759            0            0            0    9205.8291    395.53428    978.59093   -1629.4084    2890.9873   -518.40854   -404.71314    17.923296    23.230632    22.109759           90           90           90 
   57500     252.2568   -146.38118   -118.24155   -146.38118            0   -738.91371     18.00278    23.530623    21.978079            0            0            0    9310.2799   -884.51243   -2002.8098    670.58108    230.36016   -67.369581   -124.02436     18.00278    23.530623    21.978079           90           90           90 
   58000    242.16381   -145.32132   -118.30758   -145.32132            0    2129.2007    18.005744    23.506182    21.992726            0            0            0    9308.3399    3432.5984    1532.1089    1422.8948    2103.3029   -1350.3699   -284.95792    18.005744    23.506182    21.992726           90           90           90 
   58500    247.43919   -146.63121   -119.02899   -146.63121            0    964.35887    18.023869    23.338663    22.190182            0            0            0    9334.3671   -797.40339    3358.8943    331.58572    2338.9368    -1014.994   -1228.9967    18.023869    23.338663    22.190182           90           90           90 
   59000     254.2013   -146.06548   -117.70894   -146.06548            0   -299.47356    18.043584    23.219628    22.232673            0            0            0    9314.7189   -2990.9204   -550.33587    2642.8356    1160.3537    270.26457     638.2082    18.043584    23.219628    22.232673           90           90           90 
   59500    255.24822   -146.57228   -118.09896   -146.57228            0   -568.83639    18.066921    23.242316    22.053732            0            0            0    9260.7384    -1528.724    -2389.885    2212.0999   -167.21824   -2226.6559    816.82543    18.066921    23.242316    22.053732           90           90           90 
   60000    246.25861   -146.52295   -119.05243   -146.52295            0    2421.6769    18.100302    23.481351     21.99106            0            0            0    9346.6305    4203.0297    2831.5496    230.45153     661.1954    -1296.325    -151.4375    18.100302    23.481351     21.99106           90           90           90 
   60500    247.60528   -147.03276   -119.41202   -147.03276            0    -1262.305    17.937811    23.455485    22.063223            0            0            0    9282.8818   -426.90632   -2926.4903   -433.51846    3317.4627   -2113.6749     457.0874    17.937811    23.455485    22.063223           90           90           90 
   61000     256.1495   -147.38069   -118.80683   -147.38069            0    3734.6005    17.871842    23.350157    22.249172            0            0            0    9284.8093    5763.8301    2027.3414    3412.6299   -162.93016    3.1115226    447.91581    17.871842    23.350157    22.249172           90           90           90 
   61500    257.55686   -146.78554   -118.05468   -146.78554            0    2033.6718    18.024261    23.279996    22.208505            0            0            0    9318.7938    2471.3883    1642.7671    1986.8601   -617.63506   -1204.6788    351.06791    18.024261    23.279996    22.208505           90           90           90 
   62000    257.17414   -146.72478   -118.03661   -146.72478            0    1129.7594    18.227177     23.30231    21.872613            0            0            0    9290.0716   -2943.2939    1199.0282     5133.544    58.816993    2224.8365    1721.5568    18.227177     23.30231    21.872613           90           90           90 
   62500    250.79198   -146.31104   -118.33482   -146.31104            0    1565.4337     18.15963    23.373696     21.97001            0            0            0    9325.3392    592.06245    1173.4531    2930.7856    1399.3206   -1593.9899    187.72286     18.15963    23.373696     21.97001           90           90           90 
   63000    247.08066   -143.95094   -116.38872   -143.95094            0    1136.0103    17.893234    23.357088    22.220919            0            0            0    9286.8744    2409.4935    2283.4214   -1284.8841   -185.09007   -347.34942    342.18229    17.893234    23.357088    22.220919           90           90           90 
   63500    252.71384   -147.08358   -118.89297   -147.08358            0    400.83605    17.848075     23.40732    22.303615            0            0            0    9317.9061    3166.3326   -3135.7671    1171.9426   -583.76509   -762.89076   -1154.6757    17.848075     23.40732    22.303615           90           90           90 
   64000    253.07989   -146.00032   -117.76888   -146.00032            0    1887.4687    17.993709    23.496459    22.046499            0            0            0    9321.0048    -472.5533    3408.6081    2726.3512    444.63288   -1150.3441    513.05968    17.993709    23.496459    22.046499           90           90           90 
   64500    249.90199   -146.30805    -118.4311   -146.30805            0    806.57085    18.156803    23.460329    21.858363            0            0            0    9310.8883    2951.1878   -2123.6451    1592.1698    360.84971    1198.3113    24.639976    18.156803    23.460329    21.858363           90           90           90 
   65000    235.35191   -146.60587   -120.35201   -146.60587            0    254.54598    18.162932    23.213086    21.985939            0            0            0     9269.661   -2226.2209    1576.2185    1413.6403   -724.88798    966.80468   -1785.7833    18.162932    23.213086    21.985939           90           90           90 
   65500    239.64776   -145.90393   -119.17086   -145.90393            0    2178.3668    18.074219    23.152034    22.319839            0            0            0    9339.8468    1294.5115     5416.596   -176.00698   -1644.7601    555.65866     416.2011    18.074219    23.152034    22.319839           90           90           90 
   66000    254.00098   -145.54431   -117.21012   -145.54431            0    2836.6811    17.908731      23.2751    22.228454            0            0            0    9265.4312    2070.1976    1905.4294    4534.4163    1153.8959    1717.1772     -1654.73    17.908731      23.2751    22.228454           90           90           90 
   66500     249.2444   -145.50903   -117.70545   -145.50903            0   -375.75082    17.956907    23.638113    21.952692            0            0            0     9318.202    2838.0222   -4499.2043    533.92968    -1282.778   -350.80947    2736.6949    17.956907    23.638113    21.952692           90           90           90 
   67000    246.11963   -146.35452    -118.8995   -146.35452            0     2014.224    18.023598    23.601177     21.94556            0            0            0     9335.161    4472.6343   -530.51004    2100.5477    937.53548   -563.69365   -1632.9292    18.023598    23.601177     21.94556           90           90           90 
   67500    247.17152   -146.87888   -119.30653   -146.87888            0    1090.0454    17.986251    23.163001    22.090449            0            0            0    9203.2247   -2201.0026    2399.4112    3071.7277   -575.85594    851.88765    933.11101    17.986251    23.163001    22.090449           90           90           90 
   68000    252.53624   -147.53275   -119.36196   -147.53275            0   -916.40264    18.114382    23.122014    22.277098            0            0            0    9330.5619   -4227.9633    1578.3919   -99.636425     -1150.95   -1473.4126   -375.78423    18.114382    23.122014    22.277098           90           90           90 
   68500    241.76498   -145.35991   -118.39066   -145.35991            0    834.95148    18.077876    23.272181    22.053173            0            0            0     9278.026    558.95475    2734.2596   -788.35995   -1243.4521    29.605858   -348.93244    18.077876    23.272181    22.053173           90           90           90 
   69000     242.0262   -146.90396   -119.90557   -146.90396            0    1867.5574    18.012887     23.40273    21.949205            0            0            0    9252.7035    2157.7106    1080.2956     2364.666    1276.0988   -558.94005    950.03163    18.012887     23.40273    21.949205           90           90           90 
   69500    250.35816   -148.25436   -120.32653   -148.25436            0     1563.533    17.985162     23.46907    22.107202            0            0            0    9331.3399    701.61356    212.84306    3776.1422    1438.5784   -1937.8473    441.55819    17.985162     23.46907    22.107202           90           90           90 
   70000    242.11999   -146.50155    -119.4927   -146.50155            0   -356.46563    17.910243    23.353586    22.156322            0            0            0    9267.2896   -1473.4825   -786.91646    1191.0021   -1456.1157    1514.5873    654.84469    17.910243    23.353586    22.156322           90           90           90 
   70500    246.79778   -146.84955   -119.31889   -146.84955            0   -107.35254    18.007636    23.363024    22.129285            0            0            0    9310.0743   -436.65848   -1201.1542     1315.755   -211.60118   -962.46004   -655.87467    18.007636    23.363024    22.129285           90           90           90 
   71000    238.70059   -145.66404   -119.03663   -145.66404            0    1256.3834    18.061768    23.294007    22.083904            0            0            0    9291.3823   -1896.2829    5275.6143    389.81863    1111.9878    230.94999   -75.378581    18.061768    23.294007    22.083904           90           90           90 
   71500    242.69525   -146.66514   -119.59213   -146.66514            0    3099.0577    18.072991    23.235698    22.113588            0            0            0    9286.3482    2412.0681    3283.7564    3601.3486    1216.6209    140.26041   -45.659329    18.072991    23.235698    22.113588           90           90           90 
   72000    268.80079   -145.71026   -115.72513   -145.71026            0    830.35871    18.105844    23.364015    22.139673            0            0            0    9365.6402   -172.44707    3414.9487   -751.42548   -1906.0364    1275.3236   -415.95313    18.105844    23.364015    22.139673           90           90           90 
   72500    246.64609   -145.05721   -117.54346   -145.05721            0    3123.6762    17.987671    23.424856    21.965335            0            0            0    9255.2824    3752.7203    434.30955    5183.9988   -860.78972    370.12842    1140.1994    17.987671    23.424856    21.965335           90           90           90 
   73000    249.91345   -146.74043   -118.86221   -146.74043            0    2122.7214    17.954141    23.465588    22.023011            0            0            0    9278.3931    367.27686    1258.0974    4742.7901    413.39122   -743.88525   -1361.1961    17.954141    23.465588    22.023011           90           90           90 
   73500    245.80422   -146.21134   -118.79151   -146.21134            0   -23.617283     17.94884    23.318149    22.141931            0            0            0    9267.1451   -95.803007    583.92948   -558.97833   -1628.2234    212.93555     391.7454     17.94884    23.318149    22.141931           90           90           90 
   74000    237.99116   -145.75785   -119.20958   -145.75785            0    -227.9419    18.089034    23.315293    22.262404            0            0            0    9389.1939    608.46533   -763.30861   -528.98242     3131.054   -620.24529    715.82028    18.089034    23.315293    22.262404           90           90           90 
   74500    257.51775   -147.26428   -118.53778   -147.26428            0   -908.52649    18.024711    23.258037    22.072747            0            0            0    9253.3237    1152.7882   -1054.2175   -2824.1501   -1308.7923    50.896162    142.23078    18.024711    23.258037    22.072747           90           90           90 
   75000     244.3737   -145.40677   -118.14651   -145.40677            0    540.47026    18.041446    23.406529    21.947559            0            0            0    9268.1827    1671.4798    3562.2202   -3612.2892   -2266.7235   -931.20465   -2377.7007    18.041446    23.406529    21.947559           90           90           90 
   75500     244.7153   -146.98973   -119.69137   -146.98973            0    2950.0566    18.024888    23.535959     21.98598            0            0            0    9327.1785    3390.9133    3917.0921    1542.1644    3622.3777   -165.67769    637.24523    18.024888    23.535959     21.98598           90           90           90 
   76000    258.29256   -147.50069   -118.68777   -147.50069            0   -244.70782    17.917544    23.374586    22.128344            0            0            0    9267.6862    -1525.212   -1846.5725    2637.6611    287.54451    1214.0928   -390.35654    17.917544    23.374586    22.128344           90           90           90 
   76500    231.34272    -147.9017   -122.09507    -147.9017            0    661.60741    18.009875    23.189946    22.237418            0            0            0    9287.4139    330.98739    1543.5111    110.32375    -96.99649    763.94711    1066.9871    18.009875    23.189946    22.237418           90           90           90 
   77000    242.10164   -148.58756   -121.58076   -148.58756            0    2885.0249    18.182065    23.121208    21.998373            0            0            0     9247.925    2403.0216    550.58539    5701.4678   -2055.7679    588.84096    420.05162    18.182065    23.121208    21.998373           90           90           90 
   77500    252.06424   -147.42223   -119.30409   -147.42223            0   -26.410151    18.196937    23.345652     21.85346            0            0            0    9283.7731    946.11293    -2402.666    1377.3226    2190.6729    232.45833    432.07473    18.196937    23.345652     21.85346           90           90           90 
   78000    256.38029   -145.36005   -116.76044   -145.36005            0    1479.2466    17.960015    23.573034    22.115941            0            0            0    9363.2714    927.66946    741.04719    2769.0231    -953.1236   -935.20174    2670.2599    17.960015    23.573034    22.115941           90           90           90 
   78500    237.82941   -146.64958   -120.11935   -146.64958            0    2539.8216    17.701011    23.396381     22.23846            0            0            0     9209.827    2399.4907    5289.0133   -69.039152    212.20057   -673.09449   -111.49632    17.701011    23.396381     22.23846           90           90           90 
   79000    244.96251   -147.40936   -120.08343   -147.40936            0    -607.7334    17.925836    23.377376    22.168965            0            0            0    9290.1043   -1324.3247    1029.6227   -1528.4982   -3364.9864    125.23421   -519.06172    17.925836    23.377376    22.168965           90           90           90 
   79500    252.51621    -145.6917   -117.52314    -145.6917            0    2011.5731    18.179078    23.349792    21.988032            0            0            0    9333.4289    2434.1948    1191.6338    2408.8908    1572.1603   -195.51093    1371.8827    18.179078    23.349792    21.988032           90           90           90 
   80000    260.39515   -146.41557    -117.3681   -146.41557            0   -410.69457    18.176494    23.250169    21.885297            0            0            0    9248.8703    2032.2423   -2942.4183   -321.90763   -207.05287    2286.0285    46.683103    18.176494    23.250169    21.885297           90           90           90 
   80500    248.68645   -145.89487   -118.15352   -145.89487            0    627.28976    18.065698    23.330054    22.145415            0            0            0    9333.7102    1339.2573    -389.4376    932.04959    1254.9159   -2397.1304   -26.976231    18.065698    23.330054    22.145415           90           90           90 
   81000    248.02727   -146.98487   -119.31706   -146.98487            0    1572.0172    17.896455    23.328365    22.169637            0            0            0    9255.7133    2941.8707    937.13855    837.04225   -1418.5087   -1501.3922   -665.52074    17.896455    23.328365    22.169637           90           90           90 
   81500    244.82616   -146.87829   -119.56756   -146.87829            0    632.72469    17.893728    23.459425     22.10492            0            0            0    9279.1277    126.59429   -1053.8381    2825.4179   -183.35602   -559.25795     2499.853    17.893728    23.459425     22.10492           90           90           90 
   82000    244.05119   -146.61631   -119.39203   -146.61631            0   -1861.9559    18.033446    23.483922    22.061671            0            0            0    9343.0303   -1022.4128     -2252.61   -2310.8451    796.14381    314.15947    585.79243    18.033446    23.483922    22.061671           90           90           90 
   82500    264.28578    -146.3658   -116.88432    -146.3658            0    3532.5357    18.057255    23.264143    22.014353            0            0            0    9247.9341    3682.1317    5490.9523    1424.5232    464.11681   -575.25692    432.82479    18.057255    23.264143    22.014353           90           90           90 
   83000     253.7603   -145.86577   -117.55843   -145.86577            0   -1911.5533    18.120922    23.219082    22.198063            0            0            0    9339.8608   -3026.8646    2518.4512   -5226.2464   -2717.6536   -1983.1571      1637.46    18.120922    23.219082    22.198063           90           90           90 
   83500    257.99522   -147.18849   -118.40874   -147.18849            0    2778.9104     17.94008    23.167466    22.121344            0            0            0    9194.2098    2757.7987     3101.775    2477.1576   -1178.6269   -358.01346   -463.65278     17.94008    23.167466    22.121344           90           90           90 
   84000    251.79135   -144.30763   -116.21993   -144.30763            0    266.24745    18.046077    23.726601    22.029318            0            0            0    9432.3389    2000.9465   -1742.1989    539.99473    532.31937    1727.0168    632.55716    18.046077    23.726601    22.029318           90           90           90 
   84500    245.45611    -144.8496    -117.4686    -144.8496            0    2673.6707    17.971638    23.720796    21.797681            0            0            0    9292.3849     2447.096     274.7024    5299.2138   -1842.2056    566.71571   -321.00433    17.971638    23.720796    21.797681           90           90           90 
   85000    249.09127    -147.0186    -119.2321    -147.0186            0    3571.3532    17.911514      23.3334    22.036376            0            0            0    9209.8063    4744.5521    1955.9385    4013.5689   -1190.0383    849.15685   -864.18788    17.911514      23.3334    22.036376           90           90           90 
   85500     259.9776   -146.05281   -117.05192   -146.05281            0   -375.33271    18.056695     23.23568    22.355936            0            0            0    9379.6472   -2110.7587    1041.9852   -57.224632    1300.5134    286.93887    169.90875    18.056695     23.23568    22.355936           90           90           90 
   86000    251.47782   -146.60976   -118.55703   -146.60976            0    2418.4746    18.024924    23.231386    22.083592            0            0            0    9247.3711    3573.9905    142.56548    3538.8677    627.62945    401.07717   -84.295507    18.024924    23.231386    22.083592           90           90           90 
   86500    239.80669   -146.25463   -119.50383   -146.25463            0    908.03176      18.1176    23.523084    22.046311            0            0            0    9395.7374    3200.1331    565.41546   -1041.4533    102.15101    1671.8647   -420.58563      18.1176    23.523084    22.046311           90           90           90 
   87000    241.00098   -147.39845   -120.51443   -147.39845            0    116.76831    17.959814    23.427385    22.000998            0            0            0    9256.9524   -1386.1392    -684.5026    2420.9467    1210.7115     420.6945    83.684312    17.959814    23.427385    22.000998           90           90           90 
   87500    249.69963    -146.5993   -118.74493    -146.5993            0    2340.1753    17.886381    23.231689    22.123454            0            0            0    9192.9776    1348.3929    4617.8224    1054.3106   -616.46792   -296.21206   -651.55855    17.886381    23.231689    22.123454           90           90           90 
   88000    250.34229   -146.42574   -118.49968   -146.42574            0    686.09202    18.048319      23.3588    22.222256            0            0            0     9368.616    4812.2699    856.81934   -3610.8131     99.58131   -1156.5511    -1144.523    18.048319      23.3588    22.222256           90           90           90 
   88500    247.02929   -147.02651   -119.47002   -147.02651            0    732.18696    18.075072    23.336691    21.964452            0            0            0    9264.8775   -638.45495    900.48579      1934.53    972.73494    428.69642    665.98048    18.075072    23.336691    21.964452           90           90           90 
   89000    237.23442   -147.69547   -121.23162   -147.69547            0   -860.18295      18.0436    23.413543    21.924797            0            0            0    9262.4504   -974.13594   -1647.9386    41.525675    877.44946   -968.60769    1395.5906      18.0436    23.413543    21.924797           90           90           90 
   89500    235.00673   -147.36953   -121.15417   -147.36953            0    3868.2406    17.854465    23.356058    22.160389            0            0            0    9241.1017    7750.2405    2481.5482     1372.933     1939.879    1821.1213    723.05831    17.854465    23.356058    22.160389           90           90           90 
   90000    239.04899   -147.90011   -121.23383   -147.90011            0    460.51699    17.828261    23.348825     22.34286            0            0            0    9300.6389    379.92738   -238.64601    1240.2696   -354.31271    411.30897     3113.335    17.828261    23.348825     22.34286           90           90           90 
   90500    250.68761   -147.17552   -119.21094   -147.17552            0    955.16699    18.029648    23.417654    22.110636            0            0            0    9335.3771   -430.93758    2292.8084    1003.6302   -1215.2682   -900.67671   -790.28427    18.029648    23.417654    22.110636           90           90           90 
   91000    257.76183   -147.41984   -118.66612   -147.41984            0     1067.825    18.156043    23.363005    21.727135            0            0            0    9216.2098   -649.17654    463.26699    3389.3845   -1152.9373    1343.0933   -853.62315    18.156043    23.363005    21.727135           90           90           90 
   91500    230.07809     -146.931   -121.26544     -146.931            0     972.8301    18.106569    23.252515    21.894335            0            0            0    9218.0245   -151.69249    3160.3249   -90.142093    772.21833   -705.83769    931.95585    18.106569    23.252515    21.894335           90           90           90 
   92000    245.98872   -147.13681   -119.69639   -147.13681            0    2001.0304    17.988743    23.336325    22.431773            0            0            0    9416.6598    1545.3866    2343.4374    2114.2671   -323.05711   -1263.2519    7.0940599    17.988743    23.336325    22.431773           90           90           90 
   92500    241.01639   -146.08978   -119.20404   -146.08978            0    2546.1635    17.789789    23.283333    22.180213            0            0            0    9187.1678    3532.2337    4249.9091   -143.65241    1894.1777   -17.987467   -71.411688    17.789789    23.283333    22.180213           90           90           90 
   93000    247.98547   -146.81757   -119.15442   -146.81757            0   -445.52993    17.989955    23.510868    22.045644            0            0            0    9324.4136   -1297.1891   -3992.7258     3953.325   -12.734606      653.195    1759.1823    17.989955    23.510868    22.045644           90           90           90 
   93500    245.36005   -146.54869   -119.17841   -146.54869            0    1293.5797    18.070467    23.419335    21.953419            0            0            0    9290.6496   -677.35411    3278.7167    1279.3766     1288.899   -696.17413    1100.3287    18.070467    23.419335    21.953419           90           90           90 
   94000    248.70453   -147.35664   -119.61328   -147.35664            0   -695.54315    18.054967    23.271703    22.094983            0            0            0    9283.6454   -1235.1335     834.8255   -1686.3214   -234.92101   -81.683118    346.37401    18.054967    23.271703    22.094983           90           90           90 
   94500    243.64844   -147.06157   -119.88222   -147.06157            0    1041.3245    18.049935    23.320498    22.276472            0            0            0    9376.9127    1420.3721    1837.2776   -133.67614    992.18039   -416.21125   -805.43092    18.049935    23.320498    22.276472           90           90           90 
   95000    239.50482    -147.9865   -121.26938    -147.9865            0    2066.7972    17.929213    23.242963     22.03428            0            0            0    9182.3021    3767.4814   -29.963133    2462.8732    68.651446   -1043.1283   -1658.6321    17.929213    23.242963     22.03428           90           90           90 
   95500    245.49866   -146.40534    -119.0196   -146.40534            0   -823.47761    18.101838    23.445385    21.998903            0            0            0    9336.4349     7.497448   -2631.1133    153.18303     1284.725    -313.1423    -658.4541    18.101838    23.445385    21.998903           90           90           90 
   96000    257.54313   -146.90241   -118.17309   -146.90241            0     2700.425    18.046269     23.46076    21.968178            0            0            0    9300.8689    435.58015    4473.8303    3191.8645    879.46396    794.59396    1654.5346    18.046269     23.46076    21.968178           90           90           90 
   96500    258.89516   -147.05675   -118.17661   -147.05675            0    168.02013    17.925678    23.374893    22.131514            0            0            0    9273.3434    2118.8624    1465.4343   -3080.2364    -955.8607    1484.7999    934.55495    17.925678    23.374893    22.131514           90           90           90 
   97000    246.35289   -145.96922   -118.48819   -145.96922            0    782.69735    17.918937    23.268118    22.324806            0            0            0     9308.103    2586.7679   -818.55991      579.884   -215.44632   -133.44774    -120.6612    17.918937    23.268118    22.324806           90           90           90 
   97500    254.01502   -147.18515   -118.84939   -147.18515            0    3716.1497    18.022505    23.219647    22.187413            0            0            0    9284.9041    3155.6062    7007.9133    984.92979     1233.029    267.70482    -1444.743    18.022505    23.219647    22.187413           90           90           90 
   98000    251.79706   -148.22829   -120.13995   -148.22829            0    654.49614    18.233992    23.411695    21.846852            0            0            0    9326.1732   -181.86989   -236.91298    2382.2713    877.43314   -984.38478   -251.78791    18.233992    23.411695    21.846852           90           90           90 
   98500     243.2418   -145.79481   -118.66082   -145.79481            0   -1367.5017    18.143306    23.447969    21.917977            0            0            0    9324.4265   -4355.8403    2187.3967   -1934.0616   -2276.5753    -471.9949   -498.67143    18.143306    23.447969    21.917977           90           90           90 
   99000    241.31104   -146.22811    -119.3095   -146.22811            0    2518.8901    17.849317    23.281017    22.262941            0            0            0    9251.3708    3874.4198    2883.8049    798.44559    3567.8906     -318.209    1100.0792    17.849317    23.281017    22.262941           90           90           90 
   99500    254.59702   -145.28397   -116.88329   -145.28397            0   -3145.2435    17.899554    23.321364    22.366484            0            0            0    9336.7101   -3580.2557   -2607.7244   -3247.7505    1413.9451   -509.96204   -166.73805    17.899554    23.321364    22.366484           90           90           90 
  100000    247.93488    -145.9279   -118.27039    -145.9279            0   -1288.6545    18.082474     23.37044    22.026785            0            0            0    9308.4178    2058.5716   -1532.0353   -4392.4998   -485.97401     328.7476    339.33265    18.082474     23.37044    22.026785           90           90           90 
  100500    251.52267   -146.44455   -118.38681   -146.44455            0    2086.8291     18.15882    23.359284    21.859631            0            0            0    9272.3532   -155.09539   -370.06522    6785.6478    22.332848   -477.22375    27.652206     18.15882    23.359284    21.859631           90           90           90 
  101000    254.58195   -147.41178   -119.01277   -147.41178            0   -299.94033    18.117576    23.359918    22.127049            0            0            0    9364.7226   -2486.5721    584.49413     1002.257   -2878.9308   -316.03862    297.88577    18.117576    23.359918    22.127049           90           90           90 
  101500    238.07965   -146.07086   -119.51271   -146.07086            0    1430.9864    17.930455     23.25339    22.181932            0            0            0    9248.6207    3211.0853    3547.2224   -2465.3483    3720.0624   -1186.8707   -1317.0351    17.930455     23.25339    22.181932           90           90           90 
  102000    249.69953   -146.76396   -118.90961   -146.76396            0    1271.4214    17.964047    23.355252    22.210579            0            0            0    9318.5561    2872.2899    3524.1833   -2582.2089    226.52694    1150.7742    589.12722    17.964047    23.355252    22.210579           90           90           90 
  102500    243.51127   -146.78276   -119.61871   -146.78276            0     1366.411     18.04893     23.43805    22.053649            0            0            0    9329.3926    2942.3625    830.99356     325.8769    219.81921   -951.32959   -690.17633     18.04893     23.43805    22.053649           90           90           90 
  103000    247.71551   -146.09139   -118.45835   -146.09139            0    1064.9193    18.044056    23.379482    21.887646            0            0            0    9233.5373    2582.9055   -1389.7636     2001.616    2484.3746    795.62524    -89.93811    18.044056    23.379482    21.887646           90           90           90 
  103500    251.97892   -148.07936   -119.97074   -148.07936            0    770.23303    18.102915    23.416437    22.066101            0            0            0    9353.9478   -29.423164    -970.4878    3310.6101   -1208.7814   -745.04542   -377.05568    18.102915    23.416437    22.066101           90           90           90 
  104000    245.54921   -145.76916   -118.37778   -145.76916            0    2669.4805    17.984333    23.281148    22.235444            0            0            0    9309.8896     1616.194    3208.6582    3183.5892    1309.2352   -1473.3359   -219.67868    17.984333    23.281148    22.235444           90           90           90 
  104500    250.51648   -147.20449     -119.259   -147.20449            0    1789.4359    17.954486    23.338779    22.212968            0            0            0    9308.0287    4103.8191    2734.0561   -1469.5676   -1053.6976   -314.63097   -110.18823    17.954486    23.338779    22.212968           90           90           90 
  105000    251.23749   -145.71258   -117.68666   -145.71258            0     981.6805    17.971356    23.436648    22.024558            0            0            0    9276.4867   -670.34437     1959.224    1656.1619    2299.9588   -133.25078   -49.549712    17.971356    23.436648    22.024558           90           90           90 
  105500    240.86773   -144.48864   -117.61948   -144.48864            0   -1482.4943    18.106266    23.536476     22.06575            0            0            0    9403.4892    916.93304   -3783.3397   -1581.0762   -395.75774    386.49281    319.47617    18.106266    23.536476     22.06575           90           90           90 
  106000    246.41694   -145.77206   -118.28388   -145.77206            0    3088.6895    18.002659    23.280955    22.004991            0            0            0    9222.7121    3245.0338    5521.9798    499.05475   -583.23862   -992.07876    778.31303    18.002659    23.280955    22.004991           90           90           90 
  106500    242.08125    -145.9861   -118.98158    -145.9861            0    605.55409    18.016152     23.26828    22.192862            0            0            0    9303.3554    689.56691    2562.9093   -1435.8139    1327.4812    995.00347    717.33386    18.016152     23.26828    22.192862           90           90           90 
  107000    244.74854   -146.14247   -118.84041   -146.14247            0   -942.97362    17.985409    23.325726    22.178968            0            0            0     9304.581   -3677.3448   -1837.5442    2685.9681     2372.378    948.58895     816.4355    17.985409    23.325726    22.178968           90           90           90 
  107500    252.28086   -146.75348   -118.61117   -146.75348            0    2178.6921    18.012083    23.374766    22.065546            0            0            0    9290.2175    1963.0374    4351.2781    221.76093   -585.42023   -1617.3013    -1531.663    18.012083    23.374766    22.065546           90           90           90 
  108000    237.33362   -144.04228   -117.56736   -144.04228            0   -1091.7421    18.038649    23.530566    22.076706            0            0            0    9370.6704   -608.54374   -823.47194   -1843.2107    298.25407    2157.4932     1326.378    18.038649    23.530566    22.076706           90           90           90 
  108500    260.27493    -146.1995   -117.16544    -146.1995            0    2582.0969     17.87655    23.368602    21.991154            0            0            0    9186.8045   -80.513261    4742.3578    3084.4461    3227.2565   -840.89648    484.54015     17.87655    23.368602    21.991154           90           90           90 
  109000    247.17326   -146.36866   -118.79611   -146.36866            0    1736.3298    18.009973    23.431453    22.221169            0            0            0    9377.3294    1637.3884    1211.6829    2359.9182    1291.2702    1190.6284     317.9216    18.009973    23.431453    22.221169           90           90           90 
  109500    243.42832   -144.94067   -117.78587   -144.94067            0   -589.08738    18.064982    23.381142    22.192584            0            0            0    9373.7015    1671.7473   -604.97644    -2834.033   -2255.5943   -2411.9269    524.61799    18.064982    23.381142    22.192584           90           90           90 
  110000    256.90699   -147.37175   -118.71339   -147.37175            0    3169.0301    17.967022    23.232946     21.94153            0            0            0    9158.9837    313.59004    2075.2114     7118.289    476.34354    1679.5504    491.13693    17.967022    23.232946     21.94153           90           90           90 
  110500     241.4169   -146.68543   -119.75501   -146.68543            0     1428.632    18.051132    23.446967    22.074784            0            0            0    9343.0265    3821.8619   -1278.4729     1742.507   -394.82048   -81.091697   -386.16973    18.051132    23.446967    22.074784           90           90           90 
  111000    248.45274   -146.71184   -118.99657   -146.71184            0    205.28564    17.980563    23.381423    22.050658            0            0            0     9270.342   -824.64875   -1486.3054     2926.811   -1821.1755    230.02386    -61.83328    17.980563    23.381423    22.050658           90           90           90 
  111500    248.12003   -146.22607   -118.54791   -146.22607            0    2023.0425    17.948745    23.289298    22.152904            0            0            0    9260.2169    3940.7737    1560.7539    567.60008   -1120.9517    9.0599969   -510.67894    17.948745    23.289298    22.152904           90           90           90 
[...]
  373500    247.57015   -147.80149   -120.18467   -147.80149            0    287.32337    17.898585    23.366868    22.199677            0            0            0    9284.6569    1089.0149    1409.0247   -1636.0695    1299.7062    2403.2254   -395.93521    17.898585    23.366868    22.199677           90           90           90 
  374000    252.98883   -146.14515   -117.92387   -146.14515            0     1513.032    18.078986    23.371133    22.069293            0            0            0    9324.8588    882.64962    2001.2976    1655.1487   -1823.8996    311.49151    1177.3916    18.078986    23.371133    22.069293           90           90           90 
  374500    259.11678   -145.53442   -116.62956   -145.53442            0    575.40199    18.082366    23.243221    21.872639            0            0            0    9192.9044    1166.3074   -1327.0155    1886.9141   0.61940204    439.51886    1681.1822    18.082366    23.243221    21.872639           90           90           90 
  375000    263.93718   -145.87493   -116.43234   -145.87493            0    476.55976    18.149288    23.365289    22.138176            0            0            0    9387.9895   -451.83476    1718.2418     163.2722    8.6245329   -673.18072    117.47331    18.149288    23.365289    22.138176           90           90           90 
  375500    254.82615   -146.93652   -118.51028   -146.93652            0    2104.1324    17.930207    23.258756    22.162003            0            0            0    9242.3154    1098.2026    2708.9273    2505.2674    1173.3871    198.66132    182.95003    17.930207    23.258756    22.162003           90           90           90 
  376000    252.92744    -146.3284   -118.11396    -146.3284            0   -666.28687    17.955366    23.405616    22.159702            0            0            0    9312.7564   -894.48502   -406.65857   -697.71703     836.5616   -1621.6155    1016.4359    17.955366    23.405616    22.159702           90           90           90 
  376500     255.7629   -145.22031   -116.68957   -145.22031            0    2370.4183     18.02927    23.438307     21.99424            0            0            0    9294.2286    3329.4689    3018.3865    763.39957    1727.1438   -910.55192    1728.2278     18.02927    23.438307     21.99424           90           90           90 
  377000    243.20414   -147.05986   -119.93007   -147.05986            0    865.66378    18.094081    23.332858    22.025122            0            0            0    9298.7122   -2723.3993    375.97483    4944.4158    1556.2189   -1487.1697    -326.1531    18.094081    23.332858    22.025122           90           90           90 
  377500    247.44872   -147.09367   -119.49039   -147.09367            0    1784.9582     18.08286    23.254133    22.175408            0            0            0    9324.7861   -135.47457    3848.7145    1641.6346    2839.9304   -20.733275   -398.91401     18.08286    23.254133    22.175408           90           90           90 
  378000    251.74118   -146.77193   -118.68982   -146.77193            0    466.09082     17.98852    23.248095    22.166256            0            0            0    9269.9023    143.31004   -117.50364    1372.4661    25.115069   -156.93058     -173.614     17.98852    23.248095    22.166256           90           90           90 
  378500    246.29873   -147.40415   -119.92916   -147.40415            0    -1153.535    17.977713    23.532362    22.154952            0            0            0    9372.8309   -2307.2003   -2964.2793    1810.8746    345.18804   -854.06282   -267.83396    17.977713    23.532362    22.154952           90           90           90 
  379000    249.47379   -146.00635   -118.17718   -146.00635            0    1024.3158    17.857983    23.622146    22.019921            0            0            0    9288.9693   -627.08837   -845.96725    4546.0029    846.25134    650.79199    718.70824    17.857983    23.622146    22.019921           90           90           90 
  379500    246.42207   -146.96059   -119.47184   -146.96059            0    539.66283    17.965695    23.395976    22.057243            0            0            0      9271.21   -1414.0852     523.9915    2509.0822    2100.9937    14.473266    1740.5576    17.965695    23.395976    22.057243           90           90           90 
  380000    240.00318   -146.30512   -119.53241   -146.30512            0    -1058.326     18.20576    23.115548    22.209251            0            0            0    9346.4549   -1251.8831    1862.1388   -3785.2336   -1190.8973    825.29425    720.65057     18.20576    23.115548    22.209251           90           90           90 
  380500    237.95804   -146.62182   -120.07724   -146.62182            0    2306.2503    18.180686    22.929614    22.205172            0            0            0    9256.8059    2305.5993    2108.8779    2504.2737     1963.668    265.56639    509.55192    18.180686    22.929614    22.205172           90           90           90 
  381000    246.39778   -146.48041   -118.99437   -146.48041            0   -482.79918    18.013701    23.260591    22.134765            0            0            0     9274.673    -695.2745   -1924.0324    1170.9093   -2743.9744    934.29114    -465.0398    18.013701    23.260591    22.134765           90           90           90 
  381500    266.47572   -145.57654   -115.85077   -145.57654            0    3433.8562    17.884068     23.76749    22.105185            0            0            0    9396.0167    3780.6545     2999.821    3521.0929    2715.7022     -374.337    869.95448    17.884068     23.76749    22.105185           90           90           90 
  382000    253.51937   -146.25318   -117.97271   -146.25318            0    4222.8555    17.802345    23.616971    22.004116            0            0            0    9251.3546    6345.0515    1720.6393    4602.8756    -3951.879    334.31708    846.46588    17.802345    23.616971    22.004116           90           90           90 
  382500     254.8954   -144.82278   -116.38881   -144.82278            0    1781.3626    18.003528    23.365667    22.222964            0            0            0    9348.4102    2450.9608    819.66921    2073.4578   -629.10475   -866.60125    945.27845    18.003528    23.365667    22.222964           90           90           90 
  383000    254.00256   -145.65729   -117.32293   -145.65729            0   -1673.4892    18.167278    23.194105    22.239267            0            0            0    9371.0437   -4531.3682   -209.48018   -279.61914   -591.47776    -417.0757   -1614.1143    18.167278    23.194105    22.239267           90           90           90 
  383500    265.60256   -145.66295   -116.03459   -145.66295            0    2735.7283    18.042923    23.137731    22.022071            0            0            0    9193.6041    2659.4072     4638.883    908.89481   -624.46321     696.9509    930.37918    18.042923    23.137731    22.022071           90           90           90 
  384000    250.31382   -146.72332   -118.80043   -146.72332            0   -874.29226    18.121511    23.501209    22.200108            0            0            0    9454.5245   -1647.3315   -759.60719   -215.93808   -769.67407    1077.4595    1866.8357    18.121511    23.501209    22.200108           90           90           90 
  384500    249.81528   -146.94931   -119.08204   -146.94931            0    2902.9899    17.902376     23.39724    21.969776            0            0            0    9202.3961     1260.003    5830.9511    1618.0156   -1336.1926    563.88729    1822.1644    17.902376     23.39724    21.969776           90           90           90 
  385000    235.73717   -146.53208   -120.23524   -146.53208            0     268.8743    17.984693     23.52767    22.182432            0            0            0    9386.2281   -296.26672    -47.43608    1150.3257   -32.822416    736.84888   -1109.3927    17.984693     23.52767    22.182432           90           90           90 
  385500     247.5535   -147.76909   -120.15413   -147.76909            0    447.79871    18.030984    23.350718     22.19455            0            0            0    9344.7141    111.53533    82.670589    1149.1902   -758.12587   -885.77183    1159.4271    18.030984    23.350718     22.19455           90           90           90 
  386000    253.03951   -147.17356   -118.94662   -147.17356            0   -567.55982    18.050202    23.226609    22.065271            0            0            0    9250.7541   -1374.5766    -2522.361    2194.2581     761.9233    864.50956     1893.577    18.050202    23.226609    22.065271           90           90           90 
  386500    251.75859   -145.37811   -117.29406   -145.37811            0    1504.2009    18.125046    23.366014    22.080488            0            0            0    9351.3093    2623.1545    785.09481    1104.3535   -199.05327   -1183.8164   -135.92995    18.125046    23.366014    22.080488           90           90           90 
  387000    252.50359   -146.89047   -118.72331   -146.89047            0    2208.3563    18.006853    23.407877     22.08502            0            0            0    9308.8843    2065.7848    2944.0892    1615.1947   -267.62745   -774.63228   -816.77954    18.006853    23.407877     22.08502           90           90           90 
  387500    252.95366   -146.78785   -118.57049   -146.78785            0    113.34902    17.933637    23.464957    22.189389            0            0            0    9337.5615   -1371.1118    3234.2268   -1523.0679    16.106683   -115.49371   -77.074609    17.933637    23.464957    22.189389           90           90           90 
  388000    245.90262   -148.04161    -120.6108   -148.04161            0    688.43249     17.95235    23.438803    22.092072            0            0            0    9295.9373   -82.275505   -2016.4188    4163.9917    136.45345   -598.39408      174.528     17.95235    23.438803    22.092072           90           90           90 
  388500    244.77957   -148.27796   -120.97243   -148.27796            0    792.51488    18.055136    23.289475    22.050991            0            0            0    9272.3241   -1386.7072    4030.9124   -266.66048    244.76157     363.0938   -197.90773    18.055136    23.289475    22.050991           90           90           90 
  389000    244.54361   -147.43862   -120.15941   -147.43862            0   -349.73611    18.148645    23.203601    22.116877            0            0            0    9313.7246    497.32663    -1312.415      -234.12      31.8917   -455.15076    1843.8519    18.148645    23.203601    22.116877           90           90           90 
  389500    246.77217    -147.8959    -120.3681    -147.8959            0    347.44215    18.116414    23.246291    22.111769            0            0            0    9312.1377   -308.76888    669.55092    681.54442   -325.87237    973.85522    1176.2503    18.116414    23.246291    22.111769           90           90           90 
  390000     241.3187   -147.73116    -120.8117   -147.73116            0    2.5987869    17.965493    23.517942    22.044778            0            0            0    9314.1705    563.03207   -410.46236   -144.77335    342.23613    135.82788    425.45006    17.965493    23.517942    22.044778           90           90           90 
  390500    248.51975   -146.33526   -118.61251   -146.33526            0    1983.0052    17.757692    23.581915    22.018557            0            0            0    9220.4995    808.49959     1939.737     3200.779   -1709.5394    1148.5432   -1160.1179    17.757692    23.581915    22.018557           90           90           90 
  391000    257.52215    -145.9081   -117.18111    -145.9081            0    -1671.778    17.964634     23.60845    22.260684            0            0            0    9441.1381    73.078134   -4348.9275   -739.48473   -862.25703    1010.8996    728.56621    17.964634     23.60845    22.260684           90           90           90 
  391500    263.90848   -145.89791   -116.45852   -145.89791            0    1677.7078    18.090235    23.204388     22.09126            0            0            0    9273.3106    1170.6695    2104.1381    1758.3158   -1955.3677   -2184.2464   -214.03424    18.090235    23.204388     22.09126           90           90           90 
  392000    238.36731    -147.3234   -120.73317    -147.3234            0    2199.8459    18.161992    23.137533    22.096886            0            0            0     9285.635    4364.3691    215.46081    2019.7076   -1807.7098     798.5948   -398.23875    18.161992    23.137533    22.096886           90           90           90 
  392500    236.51856   -147.20698   -120.82298   -147.20698            0     32.23791    18.043431    23.314333     22.16173            0            0            0    9322.7871    783.42679    837.25675   -1523.9698    880.05032   -1611.5299   -1969.8496    18.043431    23.314333     22.16173           90           90           90 
  393000    248.03041   -145.61379   -117.94563   -145.61379            0    1693.3537    17.903016    23.512932    22.167908            0            0            0    9331.6339   -151.39578    63.687046    5167.7697    2653.0613    635.62373    -106.6821    17.903016    23.512932    22.167908           90           90           90 
  393500    268.77297   -145.51068   -115.52865   -145.51068            0    -504.2193    17.930412    23.578849    22.045998            0            0            0    9320.5733   -1118.5199   -1641.5463    1247.4083    91.252897   -693.47932   -497.69678    17.930412    23.578849    22.045998           90           90           90 
  394000    242.88907   -146.14954    -119.0549   -146.14954            0    1906.2975    18.015639     23.38574    21.935146            0            0            0    9241.4756    281.08315    492.32422    4945.4853     1224.532   -1944.6958   -155.32406    18.015639     23.38574    21.935146           90           90           90 
  394500    240.02714   -146.09311   -119.31772   -146.09311            0   -190.68044    18.156546    23.162299    22.236579            0            0            0    9351.5342    366.21865    583.63512   -1521.8951    -848.8869    131.10856    615.63314    18.156546    23.162299    22.236579           90           90           90 
  395000    250.02511   -145.42251   -117.53183   -145.42251            0    14.396096     18.07419    23.112708    22.310715            0            0            0    9320.1557    942.16751    3588.0532   -4487.0324    515.58384   -194.52096    41.867013     18.07419    23.112708    22.310715           90           90           90 
  395500    243.30114   -146.06545   -118.92484   -146.06545            0    -1300.012    17.955811     23.50645    22.044235            0            0            0     9304.373   -8.2469665   -2441.8434   -1449.9456   -2678.1519    2016.0303    -1445.301    17.955811     23.50645    22.044235           90           90           90 
  396000     237.5058   -146.24837   -119.75424   -146.24837            0    2347.1839    17.880446    23.807597    21.787457            0            0            0    9274.7123     2890.038   -334.04577    4485.5596    -1154.242   -1033.4838    287.50143    17.880446    23.807597    21.787457           90           90           90 
  396500    242.16794   -147.65973   -120.64553   -147.65973            0    3249.5027     17.92016    23.570565     21.94961            0            0            0    9271.2584    667.37538    1825.2758    7255.8571   -152.76272    205.47735    -1109.946     17.92016    23.570565     21.94961           90           90           90 
  397000    253.06333   -147.25576   -119.02616   -147.25576            0    195.96289    18.084183    23.202122    22.358845            0            0            0    9381.5799    1013.6608    1026.1848    -1451.957   -166.45006   -1739.6847    1050.6464    18.084183    23.202122    22.358845           90           90           90 
  397500    248.21756   -145.96849   -118.27945   -145.96849            0    1860.1777    18.074065    23.080533    22.209252            0            0            0    9264.7907    384.67213    3684.7214    1511.1395    63.355756   -44.361368    843.77095    18.074065    23.080533    22.209252           90           90           90 
  398000    246.31018   -146.86153   -119.38526   -146.86153            0    178.99559    18.149132    23.398893    22.055082            0            0            0    9366.1229   -3372.2335    820.61874    3088.6016    114.84119    -1146.237    891.19978    18.149132    23.398893    22.055082           90           90           90 
  398500    262.21033   -146.76946    -117.5195   -146.76946            0    2277.9339    18.005402    23.517263    21.948949            0            0            0    9294.0141     3321.878    3050.6081    461.31569    2510.6651    -395.4449   -874.45546    18.005402    23.517263    21.948949           90           90           90 
  399000    235.28994   -148.17564    -121.9287   -148.17564            0   -804.84105     17.90241    23.472652    22.073522            0            0            0    9275.6703   -1020.1954   -1325.6085   -68.719261   -1299.4766    -1375.133    334.56107     17.90241    23.472652    22.073522           90           90           90 
  399500    244.76575   -146.54026   -119.23627   -146.54026            0    390.32095    18.011975    23.404478    22.307833            0            0            0    9404.1094    543.64046    1071.7686    -444.4462     31.94666    -265.3139   -1458.0221    18.011975    23.404478    22.307833           90           90           90 
  400000    244.63863   -148.15756   -120.86775   -148.15756            0    3888.8189    17.974857    23.153316    22.052257            0            0            0    9177.6541    5318.8428    665.76635    5681.8477   -244.52911   -530.15647     719.4964    17.974857    23.153316    22.052257           90           90           90 
Loop time of 2136.66 on 1 procs for 400000 steps with 864 atoms

Performance: 8.087 ns/day, 2.968 hours/ns, 187.208 timesteps/s
73.6% CPU use with 1 MPI tasks x 1 OpenMP threads

MPI task timing breakdown:
Section |  min time  |  avg time  |  max time  |%varavg| %total
---------------------------------------------------------------
Pair    | 1864.6     | 1864.6     | 1864.6     |   0.0 | 87.26
Bond    | 0.070676   | 0.070676   | 0.070676   |   0.0 |  0.00
Neigh   | 245.64     | 245.64     | 245.64     |   0.0 | 11.50
Comm    | 8.2949     | 8.2949     | 8.2949     |   0.0 |  0.39
Output  | 1.9668     | 1.9668     | 1.9668     |   0.0 |  0.09
Modify  | 14.542     | 14.542     | 14.542     |   0.0 |  0.68
Other   |            | 1.595      |            |       |  0.07

Nlocal:        864.000 ave         864 max         864 min
Histogram: 1 0 0 0 0 0 0 0 0 0
Nghost:        3758.00 ave        3758 max        3758 min
Histogram: 1 0 0 0 0 0 0 0 0 0
Neighs:         0.00000 ave           0 max           0 min
Histogram: 1 0 0 0 0 0 0 0 0 0
FullNghs:      171672.0 ave      171672 max      171672 min
Histogram: 1 0 0 0 0 0 0 0 0 0

Total # of neighbors = 171672
Ave neighs/atom = 198.69444
Ave special neighs/atom = 0.0000000
Neighbor list builds = 40000
Dangerous builds not checked

unfix		3
unfix		2

write_data	data.final.${pid}
write_data	data.final.0
System init for write_data ...

write_restart   restart.lmp.${pid}
write_restart   restart.lmp.0
System init for write_restart ...
Unloading pair style deepmd
Unloading compute style deepmd
Unloading fix style deepmd
Total wall time: 0:35:39
