LAMMPS data file via MDAnalysis

        3840  atoms
           0  bonds
           0  angles
           0  dihedrals
           0  impropers

           2  atom types
           0  bond types
           0  angle types
           0  dihedral types
           0  improper types

0.000000 52.789078 xlo xhi
0.000000 24.860033 ylo yhi
0.000000 22.900757 zlo zhi


Masses

1 15.999000
2 1.008000

Atoms

1 0 1 -1.179400 5.660915 22.259321 5.462145
2 0 2 0.589700 5.590858 23.195709 5.624538
3 0 2 0.589700 6.178065 21.927818 6.191789
4 0 1 -1.179400 2.154505 10.580034 13.284631
5 0 2 0.589700 2.076732 10.310319 14.194690
6 0 2 0.589700 2.319133 11.517846 13.326283
7 0 1 -1.179400 20.342388 13.682856 4.790281
8 0 2 0.589700 20.160734 13.735476 5.723776
9 0 2 0.589700 20.285221 12.753399 4.588031
10 0 1 -1.179400 0.794406 1.741657 2.826186
11 0 2 0.589700 -0.044712 1.561050 2.405083
12 0 2 0.589700 1.446896 1.579840 2.148475
13 0 1 -1.179400 -0.617437 2.490911 5.068022
14 0 2 0.589700 -0.083548 2.271829 4.308564
15 0 2 0.589700 -1.324372 3.030770 4.719978
16 0 1 -1.179400 50.959103 1.367678 1.998830
17 0 2 0.589700 50.575558 0.571371 1.641058
18 0 2 0.589700 50.363136 2.061246 1.725133
19 0 1 -1.179400 7.596868 11.972660 9.228164
20 0 2 0.589700 7.636260 11.952524 10.179426
21 0 2 0.589700 8.488070 11.766701 8.948271
22 0 1 -1.179400 -0.469972 4.120365 1.315624
23 0 2 0.589700 -0.917825 3.415242 0.855408
24 0 2 0.589700 -0.637574 4.894734 0.786271
25 0 1 -1.179400 1.420091 22.158161 21.913826
26 0 2 0.589700 1.380498 21.739695 21.059183
27 0 2 0.589700 2.026213 21.618338 22.416018
28 0 1 -1.179400 -0.504784 24.775795 5.370498
29 0 2 0.589700 -0.620323 0.661467 5.491987
30 0 2 0.589700 -1.136438 24.543777 4.693619
31 0 1 -1.179400 20.861223 2.558056 10.828740
32 0 2 0.589700 21.675962 2.462692 11.319383
33 0 2 0.589700 21.127419 2.956237 10.005106
34 0 1 -1.179400 6.627829 8.969132 16.997257
35 0 2 0.589700 7.213500 9.191677 17.716888
36 0 2 0.589700 5.933052 8.452601 17.400511
37 0 1 -1.179400 4.656413 3.549666 13.023307
38 0 2 0.589700 4.006052 4.208215 13.258031
39 0 2 0.589700 5.254001 3.523543 13.766739
40 0 1 -1.179400 14.858161 0.698913 10.569538
41 0 2 0.589700 15.451818 1.429771 10.412732
42 0 2 0.589700 15.095774 0.054244 9.909288
43 0 1 -1.179400 9.708245 24.023518 21.367664
44 0 2 0.589700 10.460000 24.454399 20.965088
45 0 2 0.589700 9.763423 24.261013 22.288263
46 0 1 -1.179400 16.260799 3.032098 10.306569
47 0 2 0.589700 16.712934 3.698415 10.817578
48 0 2 0.589700 15.706404 3.524422 9.706098
49 0 1 -1.179400 6.638611 20.934065 12.202580
50 0 2 0.589700 7.020474 20.911360 11.329658
51 0 2 0.589700 6.630075 20.023420 12.482999
52 0 1 -1.179400 21.408625 20.477663 13.158615
53 0 2 0.589700 20.997351 20.121248 12.375952
54 0 2 0.589700 22.154165 20.978912 12.833389
55 0 1 -1.179400 2.252083 18.611076 16.697748
56 0 2 0.589700 1.371353 18.758150 16.355019
57 0 2 0.589700 2.759821 19.357746 16.389650
58 0 1 -1.179400 11.127789 15.215820 3.874529
59 0 2 0.589700 10.988672 14.926972 2.977665
60 0 2 0.589700 11.816863 14.643736 4.206238
61 0 1 -1.179400 20.258768 22.794336 10.881583
62 0 2 0.589700 20.447250 22.148636 10.206807
63 0 2 0.589700 19.469761 22.468777 11.311484
64 0 1 -1.179400 9.480866 20.461010 13.658190
65 0 2 0.589700 9.293409 20.460592 14.592031
66 0 2 0.589700 8.739902 20.001768 13.267294
67 0 1 -1.179400 11.352970 10.054159 22.820482
68 0 2 0.589700 12.234372 10.141259 0.012273
69 0 2 0.589700 10.921653 9.419030 0.216846
70 0 1 -1.179400 0.647012 19.775028 1.649090
71 0 2 0.589700 0.930567 18.985308 2.101265
72 0 2 0.589700 1.275588 19.879641 0.938574
73 0 1 -1.179400 21.286358 2.836066 18.380512
74 0 2 0.589700 21.013290 2.003782 18.756399
75 0 2 0.589700 22.085947 2.631630 17.898558
76 0 1 -1.179400 17.414761 16.775156 2.301527
77 0 2 0.589700 17.675259 17.350594 3.014971
78 0 2 0.589700 17.705124 15.909413 2.575223
79 0 1 -1.179400 21.290995 0.509707 6.783770
80 0 2 0.589700 21.232731 1.294975 6.247407
81 0 2 0.589700 20.411888 0.134025 6.752914
82 0 1 -1.179400 17.569098 3.696965 3.547108
83 0 2 0.589700 17.803085 4.413703 4.129896
84 0 2 0.589700 17.823538 2.910579 4.021667
85 0 1 -1.179400 12.038623 9.954898 12.215199
86 0 2 0.589700 11.503497 10.739500 12.308155
87 0 2 0.589700 12.330169 9.969400 11.308282
88 0 1 -1.179400 12.550319 18.526188 17.430998
89 0 2 0.589700 13.288657 18.087496 17.012587
90 0 2 0.589700 12.858994 18.719097 18.311548
91 0 1 -1.179400 23.705061 2.667868 0.233599
92 0 2 0.589700 23.888422 3.603099 0.243986
93 0 2 0.589700 24.447495 2.275088 0.688780
94 0 1 -1.179400 13.331396 6.795004 11.035081
95 0 2 0.589700 13.028085 6.992599 10.153722
96 0 2 0.589700 12.567108 6.947942 11.587627
97 0 1 -1.179400 25.042719 4.542307 3.374148
98 0 2 0.589700 25.736376 4.343751 2.748675
99 0 2 0.589700 25.392769 5.260484 3.894232
100 0 1 -1.179400 6.113071 4.655593 5.593760
101 0 2 0.589700 5.604631 4.606332 6.399083
102 0 2 0.589700 5.629282 5.269016 5.046582
103 0 1 -1.179400 14.345393 0.807655 21.688320
104 0 2 0.589700 13.910233 1.656419 21.688641
105 0 2 0.589700 14.186220 0.458197 22.559990
106 0 1 -1.179400 13.728245 4.871734 15.837159
107 0 2 0.589700 13.509709 4.229327 16.506079
108 0 2 0.589700 14.612749 4.637390 15.558538
109 0 1 -1.179400 21.265629 2.847883 1.568128
110 0 2 0.589700 22.122534 2.682679 1.177247
111 0 2 0.589700 21.112278 2.096824 2.134035
112 0 1 -1.179400 15.491619 -0.009322 7.811259
113 0 2 0.589700 14.583891 0.257672 7.669530
114 0 2 0.589700 15.559642 24.193377 7.385623
115 0 1 -1.179400 24.017632 5.445455 0.510860
116 0 2 0.589700 23.097775 5.633432 0.695380
117 0 2 0.589700 24.498066 5.871342 1.216018
118 0 1 -1.179400 20.753939 11.154634 13.037729
119 0 2 0.589700 20.142860 11.774448 13.429637
120 0 2 0.589700 21.168560 10.722732 13.779620
121 0 1 -1.179400 30.114540 1.171121 4.187459
122 0 2 0.589700 29.440516 1.138103 3.512127
123 0 2 0.589700 30.941380 1.159854 3.707850
124 0 1 -1.179400 28.350382 1.139235 2.245955
125 0 2 0.589700 27.393290 1.126740 2.247538
126 0 2 0.589700 28.600704 0.306250 1.856199
127 0 1 -1.179400 31.539164 4.270792 3.286115
128 0 2 0.589700 31.978342 4.343870 2.443145
129 0 2 0.589700 31.752047 3.392757 3.589593
130 0 1 -1.179400 28.692034 4.326761 3.630795
131 0 2 0.589700 29.618692 4.534560 3.513416
132 0 2 0.589700 28.337862 4.296419 2.746621
133 0 1 -1.179400 26.575333 2.534774 4.854576
134 0 2 0.589700 27.261854 2.899533 4.300075
135 0 2 0.589700 25.799278 3.055974 4.655963
136 0 1 -1.179400 25.637442 1.127969 2.000751
137 0 2 0.589700 25.020456 1.281515 2.712445
138 0 2 0.589700 25.251875 0.410592 1.504997
139 0 1 -1.179400 30.111626 2.667613 0.551260
140 0 2 0.589700 30.145798 3.619715 0.530446
141 0 2 0.589700 29.316000 2.467518 1.041459
142 0 1 -1.179400 27.055340 4.162392 1.203805
143 0 2 0.589700 26.915176 4.897887 0.614577
144 0 2 0.589700 27.091492 3.401089 0.632174
145 0 1 -1.179400 30.164005 5.576796 0.401086
146 0 2 0.589700 30.893524 5.959618 0.884529
147 0 2 0.589700 30.266945 5.908915 22.683613
148 0 1 -1.179400 26.678005 24.889532 4.954611
149 0 2 0.589700 25.891970 24.555923 4.525489
150 0 2 0.589700 26.608738 0.784154 4.874760
151 0 1 -1.179400 36.359657 0.735060 4.060943
152 0 2 0.589700 35.659096 0.860651 3.424308
153 0 2 0.589700 37.159142 0.693018 3.539000
154 0 1 -1.179400 34.517715 1.105669 2.023777
155 0 2 0.589700 33.581848 0.913710 2.079681
156 0 2 0.589700 34.558216 2.032333 1.805389
157 0 1 -1.179400 37.655483 4.359566 3.557800
158 0 2 0.589700 38.068977 4.212195 2.711680
159 0 2 0.589700 38.139050 3.797912 4.158108
160 0 1 -1.179400 34.981514 4.067292 3.603730
161 0 2 0.589700 35.937042 4.103717 3.561449
162 0 2 0.589700 34.745029 4.721960 4.254488
163 0 1 -1.179400 32.894260 2.542974 4.774849
164 0 2 0.589700 33.599045 2.943983 4.270268
165 0 2 0.589700 33.008114 1.606527 4.639640
166 0 1 -1.179400 31.729069 0.973690 1.782893
167 0 2 0.589700 31.357662 1.770563 1.413877
168 0 2 0.589700 31.194378 0.272204 1.418943
169 0 1 -1.179400 36.750404 2.983013 0.595115
170 0 2 0.589700 36.585453 2.668077 22.880661
171 0 2 0.589700 36.603439 3.923310 0.544904
172 0 1 -1.179400 33.470192 4.217405 1.370730
173 0 2 0.589700 34.158802 4.417883 2.001091
174 0 2 0.589700 33.553406 4.893931 0.705201
175 0 1 -1.179400 36.281528 5.611215 0.384422
176 0 2 0.589700 37.007111 5.844996 0.959890
177 0 2 0.589700 36.365116 6.204882 22.813381
178 0 1 -1.179400 33.307709 24.924923 4.721369
179 0 2 0.589700 32.496895 24.508244 4.433716
180 0 2 0.589700 33.494282 24.527180 5.566594
181 0 1 -1.179400 42.752338 1.312293 4.022879
182 0 2 0.589700 42.783092 0.504728 4.527499
183 0 2 0.589700 42.070587 1.161065 3.371758
184 0 1 -1.179400 40.947258 1.226985 1.918361
185 0 2 0.589700 41.403221 1.853942 1.362910
186 0 2 0.589700 41.274467 0.377277 1.635772
187 0 1 -1.179400 44.243958 4.203253 3.395632
188 0 2 0.589700 44.646355 4.966590 3.801448
189 0 2 0.589700 44.587814 3.463066 3.888265
190 0 1 -1.179400 41.335918 4.374447 3.308535
191 0 2 0.589700 42.284595 4.269730 3.379783
192 0 2 0.589700 40.975159 3.611856 3.752695
193 0 1 -1.179400 39.828518 2.565883 4.634964
194 0 2 0.589700 39.628746 1.639463 4.736268
195 0 2 0.589700 39.679821 2.938040 5.499049
196 0 1 -1.179400 38.207512 1.202029 2.152683
197 0 2 0.589700 37.812435 1.862363 1.589739
198 0 2 0.589700 39.143391 1.245836 1.957771
199 0 1 -1.179400 42.707676 2.779650 0.393205
200 0 2 0.589700 42.884853 3.707790 0.517742
201 0 2 0.589700 43.467678 2.339914 0.770067
202 0 1 -1.179400 39.458412 4.452949 1.425247
203 0 2 0.589700 40.152763 4.501007 2.078948
204 0 2 0.589700 39.527832 5.272505 0.944288
205 0 1 -1.179400 42.752060 5.603237 0.599446
206 0 2 0.589700 42.025181 5.827023 1.177256
207 0 2 0.589700 43.521534 5.988122 1.015213
208 0 1 -1.179400 39.412975 24.744337 4.845569
209 0 2 0.589700 40.151749 24.267033 4.472591
210 0 2 0.589700 39.324123 24.395155 5.727199
211 0 1 -1.179400 48.858799 1.062869 4.117878
212 0 2 0.589700 49.597904 1.233490 3.537307
213 0 2 0.589700 49.222126 0.511840 4.805602
214 0 1 -1.179400 47.263023 0.951860 1.760154
215 0 2 0.589700 47.614204 1.007050 2.644308
216 0 2 0.589700 46.321995 1.091583 1.864252
217 0 1 -1.179400 50.748856 4.269970 3.546171
218 0 2 0.589700 49.864502 4.352936 3.191404
219 0 2 0.589700 -1.471291 4.257864 2.780460
220 0 1 -1.179400 47.667152 3.950262 3.674423
221 0 2 0.589700 47.375961 4.670712 4.226309
222 0 2 0.589700 47.129967 4.021189 2.889444
223 0 1 -1.179400 45.802429 2.360875 5.037202
224 0 2 0.589700 45.794815 1.408157 5.056092
225 0 2 0.589700 46.609295 2.584300 4.576112
226 0 1 -1.179400 44.436966 0.950625 1.930399
227 0 2 0.589700 43.917015 0.352597 1.399262
228 0 2 0.589700 43.908001 1.092704 2.711253
229 0 1 -1.179400 48.964256 2.837507 0.685398
230 0 2 0.589700 48.960281 2.469780 22.976091
231 0 2 0.589700 48.274807 2.363237 1.145533
232 0 1 -1.179400 46.171078 4.352248 1.535428
233 0 2 0.589700 45.451305 4.387133 2.162197
234 0 2 0.589700 45.956684 3.615851 0.969911
235 0 1 -1.179400 49.250107 5.517784 0.687904
236 0 2 0.589700 49.009590 4.597456 0.626726
237 0 2 0.589700 49.111893 5.859433 22.978834
238 0 1 -1.179400 45.884201 24.638659 4.882115
239 0 2 0.589700 45.904884 24.247049 5.750026
240 0 2 0.589700 45.166145 24.193470 4.436493
241 0 1 -1.179400 17.938450 4.963226 11.157671
242 0 2 0.589700 17.521563 5.753702 11.490578
243 0 2 0.589700 18.037481 5.120856 10.223689
244 0 1 -1.179400 12.949292 2.543774 3.216228
245 0 2 0.589700 13.841815 2.658626 2.891892
246 0 2 0.589700 12.846887 3.221434 3.877944
247 0 1 -1.179400 1.709731 5.946949 21.872446
248 0 2 0.589700 0.762311 5.888871 21.995014
249 0 2 0.589700 2.042568 6.255973 22.710196
250 0 1 -1.179400 12.949442 24.423794 4.542607
251 0 2 0.589700 12.163658 24.472673 4.001039
252 0 2 0.589700 13.576278 -0.049873 4.114369
253 0 1 -1.179400 3.099281 7.284738 16.453932
254 0 2 0.589700 2.551309 8.063689 16.393093
255 0 2 0.589700 3.681663 7.456094 17.190008
256 0 1 -1.179400 50.901855 7.232328 2.203521
257 0 2 0.589700 50.436188 6.494441 1.818193
258 0 2 0.589700 50.482681 7.360423 3.050010
259 0 1 -1.179400 2.561905 1.452880 0.689265
260 0 2 0.589700 3.456479 1.791446 0.672810
261 0 2 0.589700 2.566853 0.736873 0.060890
262 0 1 -1.179400 1.384426 17.953028 3.649676
263 0 2 0.589700 2.077205 18.609589 3.685932
264 0 2 0.589700 0.729541 18.256618 4.274417
265 0 1 -1.179400 6.285728 0.454043 2.436719
266 0 2 0.589700 5.429097 0.288590 2.828091
267 0 2 0.589700 6.847907 24.817366 2.782797
268 0 1 -1.179400 -0.759170 6.025791 5.502084
269 0 2 0.589700 -0.858616 6.968182 5.401230
270 0 2 0.589700 -1.299189 5.653486 4.809426
271 0 1 -1.179400 4.909126 15.171302 18.266253
272 0 2 0.589700 4.135798 15.546511 17.848740
273 0 2 0.589700 5.530367 15.894212 18.320639
274 0 1 -1.179400 3.257674 16.916718 7.640981
275 0 2 0.589700 3.952054 17.392370 7.189694
276 0 2 0.589700 2.735138 16.530632 6.942606
277 0 1 -1.179400 12.552656 24.230658 17.939741
278 0 2 0.589700 11.750301 23.844704 17.592064
279 0 2 0.589700 13.163808 24.222351 17.206888
280 0 1 -1.179400 2.263993 24.578289 5.868773
281 0 2 0.589700 1.341640 24.381090 5.707697
282 0 2 0.589700 2.678737 23.725687 5.971984
283 0 1 -1.179400 1.416795 12.286399 22.058546
284 0 2 0.589700 1.751770 13.051748 22.517702
285 0 2 0.589700 0.471070 12.312349 22.203094
286 0 1 -1.179400 3.928726 18.982916 3.691216
287 0 2 0.589700 4.209806 18.282751 3.108906
288 0 2 0.589700 4.327091 19.769344 3.327697
289 0 1 -1.179400 11.473886 9.976612 17.204008
290 0 2 0.589700 10.861137 10.175914 16.500063
291 0 2 0.589700 11.568595 9.028724 17.177395
292 0 1 -1.179400 7.618382 16.717546 21.787964
293 0 2 0.589700 6.674938 16.854950 21.704426
294 0 2 0.589700 7.739789 15.786725 21.623600
295 0 1 -1.179400 21.704765 7.841627 13.464224
296 0 2 0.589700 20.866144 8.151879 13.802755
297 0 2 0.589700 21.477125 7.094493 12.918230
298 0 1 -1.179400 2.612071 3.472979 6.482557
299 0 2 0.589700 3.286435 3.513343 7.157156
300 0 2 0.589700 1.906330 2.962374 6.874335
301 0 1 -1.179400 8.429284 18.777668 3.733894
302 0 2 0.589700 8.424071 18.682974 4.681448
303 0 2 0.589700 9.270332 18.412949 3.462129
304 0 1 -1.179400 -1.474209 14.859942 10.821975
305 0 2 0.589700 -1.509846 13.918277 10.680305
306 0 2 0.589700 51.071648 15.237428 9.981744
307 0 1 -1.179400 7.514834 15.481822 14.561171
308 0 2 0.589700 6.589929 15.452524 14.804599
309 0 2 0.589700 7.875764 14.661231 14.885912
310 0 1 -1.179400 21.536467 12.330325 1.676859
311 0 2 0.589700 21.637278 13.245687 1.921901
312 0 2 0.589700 22.331367 12.126084 1.187208
313 0 1 -1.179400 2.454272 7.989311 0.694737
314 0 2 0.589700 1.962278 7.660944 1.442785
315 0 2 0.589700 3.364071 8.005521 0.990179
316 0 1 -1.179400 1.996897 9.701653 7.460752
317 0 2 0.589700 2.152583 10.218682 8.245543
318 0 2 0.589700 1.810426 8.824907 7.784477
319 0 1 -1.179400 22.155474 12.372213 7.764263
320 0 2 0.589700 22.782993 12.165876 7.075380
321 0 2 0.589700 22.042599 11.552988 8.237574
322 0 1 -1.179400 18.712557 1.282890 4.057924
323 0 2 0.589700 18.337845 1.092661 3.202512
324 0 2 0.589700 19.630753 1.024362 3.983018
325 0 1 -1.179400 15.333675 20.145144 1.251098
326 0 2 0.589700 14.609394 19.616589 0.921524
327 0 2 0.589700 15.346044 19.974194 2.187850
328 0 1 -1.179400 9.361855 17.781454 19.830141
329 0 2 0.589700 10.209855 17.535686 20.197224
330 0 2 0.589700 8.740431 17.647179 20.541901
331 0 1 -1.179400 19.152601 14.888697 -0.046180
332 0 2 0.589700 19.490259 15.437972 22.421101
333 0 2 0.589700 18.256128 15.193868 0.089361
334 0 1 -1.179400 23.051247 5.773602 6.739738
335 0 2 0.589700 23.316227 5.831896 5.826528
336 0 2 0.589700 23.688314 6.310457 7.205899
337 0 1 -1.179400 24.949900 10.456174 3.390093
338 0 2 0.589700 25.320791 11.202416 3.853312
339 0 2 0.589700 25.171274 9.704732 3.932723
340 0 1 -1.179400 1.170656 21.817827 8.936484
341 0 2 0.589700 0.783126 21.328037 9.656645
342 0 2 0.589700 1.949444 21.318567 8.696494
343 0 1 -1.179400 16.027697 22.831692 10.196446
344 0 2 0.589700 15.808152 22.852415 9.269783
345 0 2 0.589700 16.722088 23.480343 10.293450
346 0 1 -1.179400 9.398191 9.548513 5.437423
347 0 2 0.589700 10.096996 9.965804 4.937824
348 0 2 0.589700 9.019027 8.912427 4.837012
349 0 1 -1.179400 20.646051 7.149274 7.283943
350 0 2 0.589700 21.422073 6.648694 7.037898
351 0 2 0.589700 20.559383 7.807286 6.600554
352 0 1 -1.179400 15.810380 13.354013 4.632674
353 0 2 0.589700 16.287565 12.532152 4.715930
354 0 2 0.589700 15.767756 13.696549 5.520296
355 0 1 -1.179400 18.653381 1.982983 9.456873
356 0 2 0.589700 19.356981 2.406445 9.944484
357 0 2 0.589700 17.849623 2.357252 9.813970
358 0 1 -1.179400 15.971843 10.926225 7.473455
359 0 2 0.589700 15.874930 10.590076 8.359290
360 0 2 0.589700 15.758957 11.852549 7.544771
361 0 1 -1.179400 30.146757 7.286657 4.159433
362 0 2 0.589700 29.923037 7.957255 4.798351
363 0 2 0.589700 29.473160 7.365510 3.487472
364 0 1 -1.179400 28.587896 7.358646 1.831059
365 0 2 0.589700 28.923532 6.719302 1.208852
366 0 2 0.589700 27.651781 7.413700 1.640162
367 0 1 -1.179400 31.498199 10.327117 3.309777
368 0 2 0.589700 32.033012 9.635180 3.691374
369 0 2 0.589700 31.791777 10.381410 2.405018
370 0 1 -1.179400 28.610098 10.457172 3.427866
371 0 2 0.589700 29.562126 10.366386 3.466473
372 0 2 0.589700 28.431446 10.726575 2.531891
373 0 1 -1.179400 26.796206 8.899428 5.016332
374 0 2 0.589700 26.846027 7.959612 4.866856
375 0 2 0.589700 27.513533 9.261599 4.500052
376 0 1 -1.179400 25.447725 7.530198 1.815873
377 0 2 0.589700 25.105736 7.523834 2.705274
378 0 2 0.589700 24.867275 8.122442 1.343554
379 0 1 -1.179400 30.125977 9.082484 0.483783
380 0 2 0.589700 29.425314 8.595121 0.912408
381 0 2 0.589700 30.924965 8.800693 0.926138
382 0 1 -1.179400 26.954212 10.515715 1.201245
383 0 2 0.589700 26.163322 10.442917 1.732678
384 0 2 0.589700 26.883837 9.803596 0.572338
385 0 1 -1.179400 29.997736 11.921374 0.253958
386 0 2 0.589700 29.279270 12.317167 0.743319
387 0 2 0.589700 29.876451 10.983365 0.370713
388 0 1 -1.179400 26.978096 6.140970 4.721824
389 0 2 0.589700 27.679649 5.575645 4.404760
390 0 2 0.589700 26.849642 5.876869 5.627835
391 0 1 -1.179400 36.215889 7.673169 4.048491
392 0 2 0.589700 36.222458 6.854701 4.536167
393 0 2 0.589700 36.059837 8.343299 4.707492
394 0 1 -1.179400 34.736759 7.639826 1.718075
395 0 2 0.589700 35.220486 7.537780 2.533448
396 0 2 0.589700 34.941120 6.852962 1.220886
397 0 1 -1.179400 37.582153 10.399394 3.497359
398 0 2 0.589700 37.961720 11.190057 3.871461
399 0 2 0.589700 36.647861 10.592023 3.421317
400 0 1 -1.179400 34.774933 10.390558 3.224918
401 0 2 0.589700 34.413750 9.675972 3.742399
402 0 2 0.589700 34.551708 11.176614 3.715311
403 0 1 -1.179400 33.222801 8.642588 4.734282
404 0 2 0.589700 32.952465 9.006974 5.572081
405 0 2 0.589700 33.123764 7.700727 4.840353
406 0 1 -1.179400 31.719954 7.271868 1.839578
407 0 2 0.589700 32.655304 7.472836 1.863022
408 0 2 0.589700 31.429018 7.375810 2.740839
409 0 1 -1.179400 36.690708 9.201620 0.586915
410 0 2 0.589700 36.014809 8.852379 1.163854
411 0 2 0.589700 36.557762 10.145061 0.608983
412 0 1 -1.179400 33.246536 10.566236 1.010648
413 0 2 0.589700 33.837524 10.536169 1.759134
414 0 2 0.589700 33.456730 9.782353 0.511166
415 0 1 -1.179400 36.615360 11.961790 0.431163
416 0 2 0.589700 35.727932 12.303546 0.534648
417 0 2 0.589700 37.181667 12.649128 0.774122
418 0 1 -1.179400 33.045162 5.904665 4.943817
419 0 2 0.589700 32.962547 5.325922 5.695882
420 0 2 0.589700 32.565395 5.461603 4.248849
421 0 1 -1.179400 42.798252 7.356538 3.996772
422 0 2 0.589700 42.612011 8.014711 4.660030
423 0 2 0.589700 42.087952 7.448792 3.365141
424 0 1 -1.179400 41.127628 7.294977 1.982731
425 0 2 0.589700 40.179253 7.377869 2.081377
426 0 2 0.589700 41.344414 7.872237 1.256402
427 0 1 -1.179400 44.114071 10.555679 3.441193
428 0 2 0.589700 44.522804 11.279702 3.908087
429 0 2 0.589700 44.483902 10.600716 2.564020
430 0 1 -1.179400 41.188511 10.688377 3.376570
431 0 2 0.589700 40.847485 9.998445 3.939042
432 0 2 0.589700 42.128120 10.514618 3.323381
433 0 1 -1.179400 39.357422 8.830307 4.972548
434 0 2 0.589700 39.317112 7.890880 4.817883
435 0 2 0.589700 38.642654 9.189133 4.450453
436 0 1 -1.179400 38.277496 7.241173 2.096290
437 0 2 0.589700 37.759048 7.414955 2.877722
438 0 2 0.589700 38.050713 7.948462 1.499329
439 0 1 -1.179400 42.665222 9.284814 0.279909
440 0 2 0.589700 42.387028 9.009131 22.580589
441 0 2 0.589700 42.623596 10.236476 0.253229
442 0 1 -1.179400 39.370808 10.874828 1.330210
443 0 2 0.589700 38.518406 10.752610 1.745835
444 0 2 0.589700 39.998020 10.850086 2.049133
445 0 1 -1.179400 42.550659 11.968570 0.754765
446 0 2 0.589700 42.623051 12.549434 0.003292
447 0 2 0.589700 43.252552 12.247181 1.339309
448 0 1 -1.179400 39.362286 6.015284 4.734850
449 0 2 0.589700 40.115189 5.757132 4.206449
450 0 2 0.589700 38.601677 5.789241 4.202696
451 0 1 -1.179400 49.369446 7.252615 4.451934
452 0 2 0.589700 48.982166 7.940547 4.986525
453 0 2 0.589700 48.736439 7.113705 3.751247
454 0 1 -1.179400 47.419048 7.223534 2.479240
455 0 2 0.589700 46.471752 7.335067 2.557995
456 0 2 0.589700 47.523975 6.481799 1.890573
457 0 1 -1.179400 50.581081 10.482895 3.643204
458 0 2 0.589700 50.957039 9.739540 4.107021
459 0 2 0.589700 51.017719 10.478578 2.795786
460 0 1 -1.179400 47.607285 10.477446 3.281066
461 0 2 0.589700 47.350227 11.058356 3.991306
462 0 2 0.589700 48.560337 10.420681 3.348732
463 0 1 -1.179400 45.776627 8.818041 4.871948
464 0 2 0.589700 45.102661 9.294430 4.391730
465 0 2 0.589700 46.603527 9.148620 4.524216
466 0 1 -1.179400 44.654530 7.519474 1.797070
467 0 2 0.589700 44.266808 8.056713 1.111639
468 0 2 0.589700 44.002956 7.520832 2.494652
469 0 1 -1.179400 48.919346 8.981364 0.649751
470 0 2 0.589700 48.103920 8.719458 1.074257
471 0 2 0.589700 49.607300 8.569549 1.168429
472 0 1 -1.179400 45.651611 10.730938 1.069150
473 0 2 0.589700 45.611435 9.905305 0.595325
474 0 2 0.589700 46.286556 10.576298 1.764791
475 0 1 -1.179400 48.806061 11.644934 0.619703
476 0 2 0.589700 49.017200 10.715476 0.616129
477 0 2 0.589700 48.191185 11.748664 1.342115
478 0 1 -1.179400 45.801979 5.877141 4.773836
479 0 2 0.589700 45.407246 5.528425 5.568302
480 0 2 0.589700 45.547314 6.795689 4.765037
481 0 1 -1.179400 -0.639826 10.456940 18.771841
482 0 2 0.589700 0.311404 10.559049 18.743206
483 0 2 0.589700 -0.845854 9.916905 18.014484
484 0 1 -1.179400 6.497723 14.351915 7.907105
485 0 2 0.589700 6.880517 13.609766 8.367300
486 0 2 0.589700 6.536924 14.107686 6.987455
487 0 1 -1.179400 14.946246 20.574963 16.212044
488 0 2 0.589700 15.317959 20.182955 15.426792
489 0 2 0.589700 14.002681 20.588724 16.052626
490 0 1 -1.179400 3.922188 9.069184 5.658114
491 0 2 0.589700 4.499382 9.819103 5.533698
492 0 2 0.589700 3.345716 9.324340 6.374281
493 0 1 -1.179400 -0.825829 14.986722 4.785390
494 0 2 0.589700 -0.809987 15.578413 5.531698
495 0 2 0.589700 -0.952533 14.122937 5.167293
496 0 1 -1.179400 50.393166 13.735890 2.001242
497 0 2 0.589700 50.005402 14.567281 1.740951
498 0 2 0.589700 50.014740 13.098994 1.401227
499 0 1 -1.179400 0.564580 13.550158 2.218886
500 0 2 0.589700 -0.381753 13.654814 2.316291
501 0 2 0.589700 0.874991 13.340257 3.094941
502 0 1 -1.179400 2.176503 24.205109 18.365961
503 0 2 0.589700 3.011251 24.671251 18.353596
504 0 2 0.589700 1.535991 24.860659 18.633566
505 0 1 -1.179400 1.740657 12.353507 4.472459
506 0 2 0.589700 1.620839 11.488852 4.090322
507 0 2 0.589700 2.425166 12.233075 5.127121
508 0 1 -1.179400 -0.794560 12.183615 5.278470
509 0 2 0.589700 -1.289571 11.664449 4.649867
510 0 2 0.589700 0.101690 12.180481 4.944166
511 0 1 -1.179400 10.294704 13.303549 6.345471
512 0 2 0.589700 10.375409 12.693069 7.072258
513 0 2 0.589700 11.174352 13.663487 6.237881
514 0 1 -1.179400 18.842363 0.534183 13.269545
515 0 2 0.589700 19.398060 0.040008 12.671782
516 0 2 0.589700 17.952234 0.248754 13.066488
517 0 1 -1.179400 9.065014 2.480971 18.322714
518 0 2 0.589700 9.765735 2.855229 18.852772
519 0 2 0.589700 8.790689 1.703482 18.800936
520 0 1 -1.179400 21.925858 14.517676 14.000607
521 0 2 0.589700 21.857635 15.288093 14.556946
522 0 2 0.589700 22.407936 13.884373 14.526240
523 0 1 -1.179400 5.359755 18.167904 15.550030
524 0 2 0.589700 5.599673 18.398590 16.442625
525 0 2 0.589700 4.829383 18.901014 15.247205
526 0 1 -1.179400 16.377104 18.660252 18.372440
527 0 2 0.589700 16.008390 18.864464 17.517670
528 0 2 0.589700 15.614454 18.529087 18.932758
529 0 1 -1.179400 19.449205 8.967729 14.747402
530 0 2 0.589700 18.613258 9.431111 14.720394
531 0 2 0.589700 19.622290 8.840036 15.675251
532 0 1 -1.179400 9.789721 24.500967 5.289829
533 0 2 0.589700 9.379400 24.304613 4.452157
534 0 2 0.589700 10.303947 23.723604 5.493898
535 0 1 -1.179400 5.571605 24.564884 13.258945
536 0 2 0.589700 6.124760 24.499165 14.033329
537 0 2 0.589700 6.068553 24.121277 12.576387
538 0 1 -1.179400 11.166162 1.426553 16.759342
539 0 2 0.589700 11.573059 0.661152 17.156746
540 0 2 0.589700 10.397548 1.599995 17.299765
541 0 1 -1.179400 17.766747 8.279313 18.481195
542 0 2 0.589700 17.307358 8.307445 17.646233
543 0 2 0.589700 18.689787 8.184487 18.247641
544 0 1 -1.179400 13.871296 15.901723 22.842686
545 0 2 0.589700 14.738944 15.676893 22.509184
546 0 2 0.589700 13.988948 15.963624 0.616512
547 0 1 -1.179400 18.224661 24.657757 10.421689
548 0 2 0.589700 18.353191 0.467846 10.037590
549 0 2 0.589700 19.081848 24.238602 10.357561
550 0 1 -1.179400 16.244049 16.122250 8.849315
551 0 2 0.589700 16.914558 16.058155 9.525882
552 0 2 0.589700 15.797557 16.945726 9.029150
553 0 1 -1.179400 12.770337 7.260683 8.510510
554 0 2 0.589700 13.197475 7.832821 7.878558
555 0 2 0.589700 12.209599 6.695699 7.984344
556 0 1 -1.179400 6.872063 16.353832 4.187982
557 0 2 0.589700 7.103446 16.190758 3.278426
558 0 2 0.589700 7.670163 16.709654 4.575201
559 0 1 -1.179400 20.779266 8.558253 2.328824
560 0 2 0.589700 19.881496 8.885596 2.374232
561 0 2 0.589700 21.270788 9.115836 2.926520
562 0 1 -1.179400 14.712044 11.847569 21.227917
563 0 2 0.589700 14.936430 11.091868 20.692465
564 0 2 0.589700 15.546540 12.290882 21.373869
565 0 1 -1.179400 13.334169 13.120659 9.237426
566 0 2 0.589700 14.075873 13.430781 9.753451
567 0 2 0.589700 13.230187 12.208339 9.492288
568 0 1 -1.179400 2.871041 21.880407 5.894063
569 0 2 0.589700 2.446907 21.824821 5.042182
570 0 2 0.589700 3.807868 21.848555 5.701361
571 0 1 -1.179400 23.726366 15.790594 6.441619
572 0 2 0.589700 24.059160 16.669081 6.278708
573 0 2 0.589700 23.274197 15.856588 7.278350
574 0 1 -1.179400 22.180050 22.496613 20.180950
575 0 2 0.589700 23.111931 22.704313 20.245874
576 0 2 0.589700 21.861086 22.538136 21.077843
577 0 1 -1.179400 24.915110 16.938606 3.186014
578 0 2 0.589700 25.110023 16.302908 3.868421
579 0 2 0.589700 23.965221 17.049463 3.224510
580 0 1 -1.179400 13.553258 17.564045 11.010205
581 0 2 0.589700 12.954196 18.306728 11.038529
582 0 2 0.589700 13.021990 16.845520 10.675684
583 0 1 -1.179400 3.819963 12.316231 2.225753
584 0 2 0.589700 3.109549 11.693395 2.084650
585 0 2 0.589700 3.526665 12.846515 2.961200
586 0 1 -1.179400 8.927767 8.270157 10.581383
587 0 2 0.589700 8.013384 8.419428 10.342591
588 0 2 0.589700 9.419668 8.457850 9.786296
589 0 1 -1.179400 23.708199 15.805593 0.189320
590 0 2 0.589700 23.598070 15.267349 22.580370
591 0 2 0.589700 24.079454 15.214019 0.838118
592 0 1 -1.179400 21.177752 22.065342 22.906902
593 0 2 0.589700 20.919827 22.968138 -0.097764
594 0 2 0.589700 22.068846 22.003054 0.079768
595 0 1 -1.179400 8.691958 19.302418 22.953123
596 0 2 0.589700 8.905150 18.378408 22.857008
597 0 2 0.589700 7.913162 19.313061 0.337441
598 0 1 -1.179400 5.682257 24.946512 6.079398
599 0 2 0.589700 6.134576 0.654251 5.722694
600 0 2 0.589700 5.076494 0.254185 6.722921
601 0 1 -1.179400 30.029409 13.436895 3.859743
602 0 2 0.589700 29.989292 14.239012 4.372325
603 0 2 0.589700 29.978052 12.737735 4.504783
604 0 1 -1.179400 28.339586 13.518301 1.767011
605 0 2 0.589700 28.613935 14.264621 1.241547
606 0 2 0.589700 28.959969 13.498288 2.491919
607 0 1 -1.179400 31.490128 16.572397 3.306927
608 0 2 0.589700 31.972235 15.923829 3.813605
609 0 2 0.589700 31.923145 16.578110 2.457682
610 0 1 -1.179400 28.524466 16.432287 3.676250
611 0 2 0.589700 29.447800 16.602573 3.491777
612 0 2 0.589700 28.142126 17.295532 3.810328
613 0 1 -1.179400 26.514530 14.810619 4.620985
614 0 2 0.589700 26.657207 13.868814 4.651226
615 0 2 0.589700 27.343332 15.166624 4.304179
616 0 1 -1.179400 24.572340 13.989704 2.381876
617 0 2 0.589700 23.984648 13.962829 3.133049
618 0 2 0.589700 25.439695 14.138471 2.756185
619 0 1 -1.179400 29.842342 15.548296 0.449225
620 0 2 0.589700 29.998354 16.483006 0.347873
621 0 2 0.589700 30.692944 15.191356 0.701149
622 0 1 -1.179400 26.944889 16.596352 1.128802
623 0 2 0.589700 26.190306 16.919062 1.617939
624 0 2 0.589700 27.613045 16.434097 1.791122
625 0 1 -1.179400 30.093109 18.257250 0.465679
626 0 2 0.589700 30.893059 18.666998 0.790926
627 0 2 0.589700 29.408102 18.553808 1.061135
628 0 1 -1.179400 26.941582 12.201108 4.814961
629 0 2 0.589700 27.035730 11.761130 5.654458
630 0 2 0.589700 27.519175 11.719229 4.227811
631 0 1 -1.179400 36.450352 13.342553 3.860641
632 0 2 0.589700 36.280552 14.025563 4.502857
633 0 2 0.589700 35.779915 13.472218 3.193446
634 0 1 -1.179400 34.684402 13.663945 1.795035
635 0 2 0.589700 34.886044 14.377645 1.196762
636 0 2 0.589700 33.771648 13.808467 2.042737
637 0 1 -1.179400 37.676125 16.904863 3.309491
638 0 2 0.589700 37.989811 16.169003 3.827857
639 0 2 0.589700 38.209396 17.642172 3.596691
640 0 1 -1.179400 34.886688 17.011913 3.452754
641 0 2 0.589700 35.840424 17.046095 3.379684
642 0 2 0.589700 34.701836 16.130440 3.764351
643 0 1 -1.179400 33.354088 14.801967 4.526594
644 0 2 0.589700 33.443970 13.894300 4.802488
645 0 2 0.589700 33.499817 15.308600 5.320002
646 0 1 -1.179400 31.855047 13.532056 1.619005
647 0 2 0.589700 31.319727 12.848847 1.222691