LAMMPS data file via write_data, version 29 Sep 2021, timestep = 400000

864 atoms
2 atom types

0.0670360275155879 18.140536972486878 xlo xhi
0.06295489312975278 23.566222106869247 ylo yhi
0.0915489555468092 22.121647044453518 zlo zhi

Masses

1 1.008
2 15.999

Atoms # full

706 0 1 -1.1794 2.840254826282582 1.9021437498591653 3.2383595255201496 0 0 0
708 0 2 0.5897 2.118120012493924 2.487808200378808 2.9404258544518593 0 0 0
1 0 1 -1.1794 0.8901742346266851 3.2553742927188196 2.0981026867265564 0 0 0
3 0 2 0.5897 0.8554154687574732 4.182621142833197 2.240243085843765 0 0 0
707 0 2 0.5897 2.7403009959641484 1.945003554484509 4.175192228500379 0 0 0
20 0 2 0.5897 0.5243978828095718 3.208668849985305 0.35755915390053583 0 0 0
29 0 2 0.5897 4.288374682103526 2.5832154775847114 2.9580244911831928 0 0 0
188 0 2 0.5897 2.779040623576806 0.32662482021741535 2.2924531859208717 0 0 0
30 0 2 0.5897 5.0924401525641425 3.9073570228759844 2.9045388077918783 0 0 0
28 0 1 -1.1794 5.169202662992195 2.9213887046202482 2.6802644163275104 0 0 0
668 0 2 0.5897 4.720499861287455 3.155475498132609 0.4649931427375169 0 0 0
493 0 1 -1.1794 7.483223591325986 1.9236467152419399 2.6916696392546093 0 0 0
494 0 2 0.5897 6.577625373934426 2.353183541331115 2.484552050694008 0 0 0
495 0 2 0.5897 8.219369830278588 2.479486447683991 2.3594583182021505 0 0 0
819 0 2 0.5897 7.58343624196749 0.2083926988423591 2.535599649062197 0 0 0
846 0 2 0.5897 7.393156295757801 2.1011359426896745 4.48272939552316 0 0 0
750 0 2 0.5897 9.79567261883156 3.4715377689726705 1.1045272317322068 0 0 0
749 0 2 0.5897 9.682403278701553 4.161905765018681 2.4829592897763813 0 0 0
748 0 1 -1.1794 9.828123064208906 3.295774337415366 2.027003532165301 0 0 0
106 0 1 -1.1794 12.054485226554402 1.9448694166790919 2.7985994442954825 0 0 0
108 0 2 0.5897 11.198445898731313 2.262250893399738 2.5572211599683112 0 0 0
107 0 2 0.5897 12.019605456547337 1.7691257695903402 3.713740529800397 0 0 0
63 0 2 0.5897 12.295626940345512 0.21461861242151936 2.279805180630436 0 0 0
215 0 2 0.5897 13.65366442167078 2.664392354849409 2.6955391736278282 0 0 0
2 0 2 0.5897 18.091803401215316 2.998824560377642 2.4540086830845316 0 0 0
214 0 1 -1.1794 14.461887655239975 3.0154106142582364 2.2919367727870115 0 0 0
216 0 2 0.5897 14.467964933880197 3.9523636255337644 2.455732571214352 0 0 0
406 0 1 -1.1794 16.809015153377047 1.738495716176294 2.7654479272093635 0 0 0
407 0 2 0.5897 16.966780644671157 0.8829662322786294 2.3376111439204883 0 0 0
408 0 2 0.5897 15.948082764026296 2.1126178109919986 2.5968890741939843 0 0 0
369 0 2 0.5897 14.655686435056072 2.8803084117654536 0.5883511020881083 0 0 0
123 0 2 0.5897 2.963644598912192 8.298051453231476 2.95426817795995 0 0 0
253 0 1 -1.1794 2.8104216808732354 6.97427162761806 2.0567679112208292 0 0 0
254 0 2 0.5897 2.911376881927406 6.975075368992831 1.0702675839701539 0 0 0
255 0 2 0.5897 1.8897859083577573 6.603781225396461 2.2248833679734554 0 0 0
595 0 1 -1.1794 0.3851697016345454 5.869713119285024 2.9914133674061754 0 0 0
597 0 2 0.5897 0.2807254428947126 5.798261483991705 3.9366185811625956 0 0 0
122 0 2 0.5897 3.0517907433273166 9.184947494140133 4.239362667935188 0 0 0
121 0 1 -1.1794 2.8963078103888327 9.239363068246579 3.2936907985682153 0 0 0
138 0 2 0.5897 3.9612314213657496 5.959324480363506 2.8684111780508816 0 0 0
136 0 1 -1.1794 4.778455989551544 5.511217737940741 3.1938669915313174 0 0 0
65 0 2 0.5897 7.5156593820515445 8.387303498950452 2.7171598862364736 0 0 0
415 0 1 -1.1794 7.160435661642055 6.775036673448271 2.1223487453764074 0 0 0
416 0 2 0.5897 6.388929937488768 6.393342599025704 2.580932847013012 0 0 0
417 0 2 0.5897 7.9557730170192285 6.337956935439704 2.4067924595351915 0 0 0
137 0 2 0.5897 4.75076981178251 5.611726012256321 4.164022307919549 0 0 0
66 0 2 0.5897 7.817751894313361 9.216047148441978 3.9627113290507254 0 0 0
162 0 2 0.5897 7.013029958227938 6.864683854258444 0.4341691426505573 0 0 0
64 0 1 -1.1794 7.583341296641449 9.310308094434035 3.0340101691875447 0 0 0
298 0 1 -1.1794 9.462301989065606 5.612230270766175 3.3411100819909647 0 0 0
190 0 1 -1.1794 11.966855966921647 6.953875125994771 2.065796915707673 0 0 0
191 0 2 0.5897 12.006705350282699 6.952043741328609 1.110932819300218 0 0 0
192 0 2 0.5897 12.08694226029407 7.892802929389378 2.3064457697501237 0 0 0
299 0 2 0.5897 10.288180584133878 5.932327089506287 2.991389359081595 0 0 0
300 0 2 0.5897 9.409913759701416 5.799839086599382 4.273451414876197 0 0 0
110 0 2 0.5897 13.482697091466417 6.057355777633014 2.803936775753118 0 0 0
596 0 2 0.5897 17.7316358135893 6.3958481197488934 2.6242234711757417 0 0 0
109 0 1 -1.1794 14.335151731891298 5.789506091155865 3.0756240602360805 0 0 0
111 0 2 0.5897 15.013065215588798 6.40778902183701 2.8872752898011504 0 0 0
838 0 1 -1.1794 16.409297545494592 7.316683722900632 2.0956665865526265 0 0 0
839 0 2 0.5897 16.490944963154554 8.216442192386644 2.429722907933651 0 0 0
840 0 2 0.5897 16.533358301752937 7.349868163437147 1.1578754489619745 0 0 0
44 0 2 0.5897 1.7147219026905416 10.512994847403377 2.7460924823852797 0 0 0
45 0 2 0.5897 0.9439360811614892 11.850252598214572 2.9211075618536295 0 0 0
43 0 1 -1.1794 0.9852813788204371 11.05149489812044 2.3642782348106217 0 0 0
373 0 1 -1.1794 0.6827638988433286 13.406435731983546 3.5249953076004195 0 0 0
374 0 2 0.5897 0.6243244232225553 13.373080578953736 4.490318749448954 0 0 0
396 0 2 0.5897 0.8043258865362777 10.379964223792722 0.41009421236211896 0 0 0
219 0 2 0.5897 4.123622107184919 10.104192626169885 2.4864047251875716 0 0 0
173 0 2 0.5897 4.6412174916797 13.898416587771038 2.6261154841066796 0 0 0
174 0 2 0.5897 5.126683758639756 12.44471094725684 2.5621502496032407 0 0 0
217 0 1 -1.1794 4.933896463754878 10.559067253936625 2.194522006079724 0 0 0
172 0 1 -1.1794 5.3719204974697385 13.323703410977977 2.8185646376913445 0 0 0
218 0 2 0.5897 5.665154092117632 10.06047054989894 2.50731862622007 0 0 0
363 0 2 0.5897 5.067967622782954 10.827789706765303 0.45789664416454173 0 0 0
773 0 2 0.5897 8.93674475173469 10.255328795088372 2.209436520086422 0 0 0
91 0 1 -1.1794 11.992814735411889 9.697593200975694 2.8689307088878704 0 0 0
774 0 2 0.5897 9.622231110112079 10.815565781529651 0.9122737909635783 0 0 0
772 0 1 -1.1794 9.713488567956574 10.75645119228267 1.8844566845219033 0 0 0
93 0 2 0.5897 11.14303914948852 10.218780846822286 2.662565577240353 0 0 0
154 0 1 -1.1794 9.736867787081303 13.250685232438245 2.810573956911192 0 0 0
156 0 2 0.5897 9.73810367449527 12.389313181304397 2.4334407906746054 0 0 0
155 0 2 0.5897 10.54937655165842 13.614510118523787 2.487949838752547 0 0 0
860 0 2 0.5897 13.609541177254764 10.784501952186282 2.340341743898619 0 0 0
92 0 2 0.5897 12.095531703327657 9.717836644122054 3.840616442656024 0 0 0
842 0 2 0.5897 16.659439977008038 9.727129014640687 4.178510110634324 0 0 0
841 0 1 -1.1794 16.79771141966605 9.874640327727661 3.2123861157086444 0 0 0
375 0 2 0.5897 17.970090718309358 13.888260483608521 3.1578534103217026 0 0 0
55 0 1 -1.1794 14.692715416916855 13.819164174752972 3.0159258519287158 0 0 0
56 0 2 0.5897 14.741301619031244 13.818287709521123 3.9906014944463504 0 0 0
843 0 2 0.5897 17.635308576245876 10.387636427080642 3.0053942093827866 0 0 0
859 0 1 -1.1794 14.472650723391403 11.231526676749176 2.25201270187456 0 0 0
57 0 2 0.5897 14.686164371939128 12.883638443626502 2.869795743283849 0 0 0
861 0 2 0.5897 15.176968854930456 10.598543414285167 2.545177460237585 0 0 0
152 0 2 0.5897 14.491287450326046 11.377799727903644 0.3845420974792973 0 0 0
557 0 2 0.5897 2.122697856712755 14.430299190329862 2.318827599538056 0 0 0
556 0 1 -1.1794 3.035410951698286 14.578770456267796 1.9367553173176584 0 0 0
292 0 1 -1.1794 3.2428069011420013 17.30137135695672 2.821080555602644 0 0 0
293 0 2 0.5897 3.448739320445578 16.475030458549657 2.375436329998667 0 0 0
344 0 2 0.5897 1.9017490587393788 18.125736764361353 1.9771598573913278 0 0 0
558 0 2 0.5897 3.013674815926867 14.842493750384042 0.9911957410937704 0 0 0
294 0 2 0.5897 3.243571069632769 17.166422509889617 3.7671030110921326 0 0 0
227 0 2 0.5897 4.444960868296274 18.77000598340468 2.5011667378893816 0 0 0
345 0 2 0.5897 1.077160528814467 18.543325180629004 0.6790703220311196 0 0 0
343 0 1 -1.1794 1.12366987923661 18.560656348304185 1.6614422857308713 0 0 0
480 0 2 0.5897 6.802939020253488 14.304469252625804 2.350701975264112 0 0 0
479 0 2 0.5897 8.221745661821222 14.352298083685145 2.6847855269536067 0 0 0
478 0 1 -1.1794 7.510454268971356 14.928804399355979 2.321708306002032 0 0 0
448 0 1 -1.1794 7.533004541752416 17.700565588628134 2.3932962576608565 0 0 0
449 0 2 0.5897 7.382903086098382 16.73838063050258 2.5333715553187655 0 0 0
450 0 2 0.5897 6.671668983718163 18.16663023802715 2.3721718228600976 0 0 0
317 0 2 0.5897 7.400123924059233 15.150718453473951 0.48101048063566737 0 0 0
308 0 2 0.5897 8.025595129901046 17.763443615008438 4.392322345671967 0 0 0
321 0 2 0.5897 9.265778576871721 18.249853291704984 2.4887099063783826 0 0 0
560 0 2 0.5897 13.065952964196946 14.376476082504658 2.414261168201198 0 0 0
559 0 1 -1.1794 12.186642450187398 14.552266544069932 2.03615708395772 0 0 0
561 0 2 0.5897 12.301882977954378 14.40078072111733 1.0409407743436527 0 0 0
320 0 2 0.5897 10.831349329479304 18.27820317538641 2.4444598715111963 0 0 0
832 0 1 -1.1794 12.315579756432658 17.44785405143299 2.553169420759209 0 0 0
834 0 2 0.5897 12.377133739289526 16.586087009896584 2.110696095870579 0 0 0
833 0 2 0.5897 13.03425970059074 17.909467221363766 2.1189420689511 0 0 0
389 0 2 0.5897 9.99425881296576 18.723688876322196 0.542745976701297 0 0 0
645 0 2 0.5897 11.863207326208615 17.02045413736865 4.435243333604446 0 0 0
179 0 2 0.5897 16.13389016418909 14.585249103162989 2.6310487769914292 0 0 0
178 0 1 -1.1794 17.006266474062134 14.849103098402823 2.3394667218742184 0 0 0
180 0 2 0.5897 17.06356827033833 15.787959154367604 2.705069165407722 0 0 0
745 0 1 -1.1794 16.911327642657312 17.61208822710919 2.7690418672513015 0 0 0
746 0 2 0.5897 17.674183327939872 17.876230574911347 2.2266083210264656 0 0 0
747 0 2 0.5897 16.174719594441278 18.059754345184537 2.336576777953033 0 0 0
614 0 2 0.5897 17.054760522603946 15.004370200939132 0.5093208348855964 0 0 0
304 0 1 -1.1794 14.601832857483851 18.769514439702014 1.7594216951950075 0 0 0
305 0 2 0.5897 14.528645704715144 18.80265616634897 0.7919933978399026 0 0 0
187 0 1 -1.1794 3.1158618390392028 22.949652911728716 1.9631532777701253 0 0 0
189 0 2 0.5897 2.8972635055368294 22.933036598055367 1.0050085030897131 0 0 0
695 0 2 0.5897 1.2952751282370145 20.32322788795475 2.3762558518318135 0 0 0
696 0 2 0.5897 2.007400916718904 21.700260870770773 2.618826546676546 0 0 0
694 0 1 -1.1794 1.1705952222796883 21.231647320277897 2.7980654869169483 0 0 0
413 0 2 0.5897 0.9475417555267599 21.298732415713648 4.418392550646187 0 0 0
226 0 1 -1.1794 5.171350362744597 19.10696961381521 2.0162629332269386 0 0 0
266 0 2 0.5897 4.612162411467257 22.206723884484866 2.3757108011528327 0 0 0
228 0 2 0.5897 5.336967423719668 20.04166242553389 2.3011635136438353 0 0 0
265 0 1 -1.1794 5.357575938943968 21.742832702494375 2.7649053220280035 0 0 0
267 0 2 0.5897 6.234604237226229 22.204649117084365 2.5288510189884077 0 0 0
817 0 1 -1.1794 7.639295882253591 22.702096605003486 2.4235191407373597 0 0 0
818 0 2 0.5897 8.502903707349141 22.27148575623301 2.7259033178417016 0 0 0
498 0 2 0.5897 7.472712601606366 22.569449070586092 0.6001909085827257 0 0 0
319 0 1 -1.1794 10.027409458945353 18.903393507936 2.386828559655046 0 0 0
398 0 2 0.5897 10.103538319632102 20.562739328492203 2.8880370617366373 0 0 0
61 0 1 -1.1794 12.466299013475462 22.700300726091214 2.2919733701691727 0 0 0
62 0 2 0.5897 13.315958679265384 22.608288260142817 2.697327108802196 0 0 0
397 0 1 -1.1794 10.161305547986755 21.491567993634494 3.098045162465743 0 0 0
399 0 2 0.5897 11.044737447239836 21.833789210241424 2.812879935264939 0 0 0
425 0 2 0.5897 12.564900424557305 22.61615623592157 0.3756141211318823 0 0 0
729 0 2 0.5897 17.83830554603939 22.033278168616327 2.0089766580498534 0 0 0
306 0 2 0.5897 14.461095671691654 19.66903690334375 2.068600526959406 0 0 0
118 0 1 -1.1794 14.786044966621997 21.411463415967535 3.197813763373912 0 0 0
120 0 2 0.5897 15.723397583932485 21.680113807128887 2.9437534393029585 0 0 0
727 0 1 -1.1794 17.061272507015026 22.632503152102682 1.857177128339101 0 0 0
728 0 2 0.5897 16.607581878661716 22.44724136407142 1.0086207698785137 0 0 0
119 0 2 0.5897 14.79549844348749 21.256096375580988 4.1341407602576625 0 0 0
487 0 1 -1.1794 2.6877940708588564 2.0182962073132042 5.890194743176561 0 0 0
488 0 2 0.5897 1.913775876498841 2.528487727633911 6.2355850283626495 0 0 0
489 0 2 0.5897 2.685744492603692 1.1177951299634339 6.290332245562724 0 0 0
784 0 1 -1.1794 0.3390195619800949 3.0608173451347733 6.825081838873791 0 0 0
785 0 2 0.5897 0.22744209802142135 2.881532833840074 7.787236141007189 0 0 0
83 0 2 0.5897 4.369453495263368 2.607934881256286 6.493571625091284 0 0 0
82 0 1 -1.1794 5.268381654107804 2.9266072882695133 6.7936554000365135 0 0 0
275 0 2 0.5897 5.376529292824037 2.843598028876504 8.688625610992647 0 0 0
84 0 2 0.5897 5.966483126313049 2.3441454586607287 6.3660109461279495 0 0 0
844 0 1 -1.1794 7.377680823988647 1.9745071376715668 5.433891934310241 0 0 0
845 0 2 0.5897 7.614663569191173 1.0520590422868477 5.654629992732038 0 0 0
419 0 2 0.5897 8.701782044025423 2.9628079508019627 6.016638230884645 0 0 0
686 0 2 0.5897 5.232987210317987 4.724480894016293 6.489132444024501 0 0 0
420 0 2 0.5897 9.477703745379765 4.290573242662539 6.298238225482584 0 0 0
418 0 1 -1.1794 9.497318902280401 3.313051741969923 6.4856241353875 0 0 0
177 0 2 0.5897 9.199894289147556 2.898816671260265 8.33364924735855 0 0 0
802 0 1 -1.1794 11.749739368983848 2.148542488416331 5.605284740496873 0 0 0
803 0 2 0.5897 10.814419604831704 2.5422738071557305 5.815247383400002 0 0 0
804 0 2 0.5897 12.427064206873737 2.674433262165916 5.9806574539673525 0 0 0
171 0 2 0.5897 11.89010594489406 0.6174614713882122 6.222284307119768 0 0 0
660 0 2 0.5897 16.568302848615655 1.4257483532373678 4.732655007902114 0 0 0
786 0 2 0.5897 17.786378977679657 2.4162517012049327 6.3494784023279225 0 0 0
437 0 2 0.5897 14.178801968143217 2.899179466111879 7.641359793694647 0 0 0
436 0 1 -1.1794 14.154864897878662 2.908629243195744 6.681323581522934 0 0 0
438 0 2 0.5897 14.898358555844979 2.337622894893379 6.351938258025841 0 0 0
658 0 1 -1.1794 16.412073476372385 1.4016216817891027 5.666402519492455 0 0 0
659 0 2 0.5897 16.32370021766852 0.4596089529753716 5.840984522468767 0 0 0
732 0 2 0.5897 13.893094565839617 4.652814299047561 6.119078279693441 0 0 0
183 0 2 0.5897 0.42780388729757984 4.976709071342513 6.515891856324634 0 0 0
10 0 1 -1.1794 2.9577552248721264 7.064039894045281 6.854506306627682 0 0 0
11 0 2 0.5897 2.033535933812666 6.835147473448423 6.749951346219844 0 0 0
12 0 2 0.5897 3.052288533055408 8.02350596372739 6.640761421680087 0 0 0
650 0 2 0.5897 2.8734762377285192 7.079031922245803 8.60925280791331 0 0 0
181 0 1 -1.1794 0.4961695242635138 5.926692002440682 6.429961739051728 0 0 0
687 0 2 0.5897 4.464250682318203 6.049557616135426 6.504710469905171 0 0 0
685 0 1 -1.1794 5.2884783860066635 5.669707208910796 6.210947281059217 0 0 0
145 0 1 -1.1794 7.49757241016586 7.101129895490425 7.175883511442361 0 0 0
146 0 2 0.5897 6.680244664092326 6.78073372088456 6.748329677757346 0 0 0
147 0 2 0.5897 7.447789427774814 6.849056233281257 8.120906560365057 0 0 0
714 0 2 0.5897 7.697495713270894 8.768327243715177 6.736696405912062 0 0 0
165 0 2 0.5897 8.836944064335999 6.46353075578895 6.44316647613191 0 0 0
163 0 1 -1.1794 9.513606695977721 5.911521776077554 6.040544002070833 0 0 0
164 0 2 0.5897 10.33201386866698 6.26251221942122 6.3737206221959735 0 0 0
230 0 2 0.5897 12.169052551257963 9.046193919035272 6.411555433681941 0 0 0
391 0 1 -1.1794 11.630934473905734 7.127235794711928 7.118002582310958 0 0 0
392 0 2 0.5897 11.63481056077661 7.244675008222601 8.084781848289259 0 0 0
393 0 2 0.5897 12.31670139697732 6.492196294571743 6.869790555082802 0 0 0
731 0 2 0.5897 13.732028261875108 5.460314303261741 4.836718681588267 0 0 0
730 0 1 -1.1794 13.626617246841418 5.514180230799164 5.804970620868489 0 0 0
182 0 2 0.5897 17.60264531059887 6.242703280264289 6.487757890021046 0 0 0
525 0 2 0.5897 16.418799014644414 8.57774825882167 6.268633266645402 0 0 0
541 0 1 -1.1794 15.953694732088465 6.857720836354207 6.772429459135636 0 0 0
542 0 2 0.5897 15.146135259144323 6.590145558474244 6.386480476513322 0 0 0
543 0 2 0.5897 15.960744538452543 6.617070602086711 7.705822722804845 0 0 0
793 0 1 -1.1794 3.0442669044923876 9.777841019279498 6.054411062003153 0 0 0
794 0 2 0.5897 2.2582672678520526 10.25094640952644 6.318050677876823 0 0 0
551 0 2 0.5897 0.8030265374457269 10.87202254784771 7.963708141062174 0 0 0
795 0 2 0.5897 3.855032412615859 10.209403983231946 6.414992045444162 0 0 0
655 0 1 -1.1794 0.6062034491106845 13.438341580826277 6.309405289389054 0 0 0
552 0 2 0.5897 0.43795739032421116 11.648293191166372 6.645665202693184 0 0 0
550 0 1 -1.1794 0.5620557593037829 10.772852735983813 6.994634996776113 0 0 0
656 0 2 0.5897 1.4971192657924575 13.840416608671905 6.362499144191456 0 0 0
712 0 1 -1.1794 7.80394270481951 9.47380442179123 6.032183827158822 0 0 0
713 0 2 0.5897 8.586115910099293 10.027387623156175 6.249854060525509 0 0 0
200 0 2 0.5897 5.950501731609085 13.42391236484925 4.79255577607209 0 0 0
199 0 1 -1.1794 5.876684726596783 13.641079760319682 5.712018846368806 0 0 0
577 0 1 -1.1794 5.520649751168392 10.977603457757395 6.581637218051213 0 0 0
578 0 2 0.5897 6.172250809523856 10.3246970532184 6.3028095024697635 0 0 0
579 0 2 0.5897 5.858331864973399 11.806868984516115 6.215277806999367 0 0 0
582 0 2 0.5897 5.692069363987905 10.701525795806548 8.323227261300087 0 0 0
229 0 1 -1.1794 12.327772753806594 9.837003839816445 5.873863761737908 0 0 0
806 0 2 0.5897 9.92437435707028 13.681184947645969 4.582014217117088 0 0 0
807 0 2 0.5897 9.83332129691094 12.6828236159464 5.801508797948542 0 0 0
231 0 2 0.5897 13.14025267677433 10.178443580037902 6.226280269772869 0 0 0
805 0 1 -1.1794 9.985689185373428 13.604447549443893 5.53924120101202 0 0 0
739 0 1 -1.1794 9.915500412257092 11.095389648067803 6.73477031575865 0 0 0
740 0 2 0.5897 10.791723378979592 10.632691805438807 6.601018102478708 0 0 0
741 0 2 0.5897 9.80320610204991 11.162288428323325 7.6921828320457415 0 0 0
523 0 1 -1.1794 16.50478128436968 9.52184537751675 5.909022729041301 0 0 0
524 0 2 0.5897 17.360288889176406 9.945416059242463 6.145726158191432 0 0 0
636 0 2 0.5897 14.679533706791043 12.126033928860089 6.402755515596787 0 0 0
634 0 1 -1.1794 14.631693619597359 11.17012464427608 6.620686208381912 0 0 0
635 0 2 0.5897 15.326922635141802 10.645793130954454 6.23026958511106 0 0 0
857 0 2 0.5897 14.223026922905031 11.263232823429787 8.105641684220663 0 0 0
724 0 1 -1.1794 14.564370032192747 13.883219588084586 5.957107506182132 0 0 0
18 0 2 0.5897 3.8457711942042954 14.320757617092433 6.452956864551139 0 0 0
17 0 2 0.5897 2.953331652995109 14.672478388325612 7.640692490983629 0 0 0
16 0 1 -1.1794 3.048152960360461 14.747451676401253 6.721249284887739 0 0 0
238 0 1 -1.1794 3.4821694692251284 17.52316162969297 5.469724706064716 0 0 0
239 0 2 0.5897 3.345152810313362 16.665267017549255 5.973290088516218 0 0 0
240 0 2 0.5897 4.170578893430456 18.02585432915165 5.975374918758045 0 0 0
341 0 2 0.5897 2.0128707145287326 18.054782058658184 6.064241915593153 0 0 0
340 0 1 -1.1794 1.2573378905649453 18.58052079852206 6.330386023896034 0 0 0
201 0 2 0.5897 6.549794169230332 14.331104447371954 5.89343151504436 0 0 0
519 0 2 0.5897 8.821217516987089 14.917166171838296 6.3430112963375365 0 0 0
517 0 1 -1.1794 7.891186247186694 15.21843370203551 6.588208051600413 0 0 0
307 0 1 -1.1794 7.824015908304348 17.73983465637261 5.384020086475853 0 0 0
518 0 2 0.5897 7.873671078586709 16.08997666358315 6.174831598200883 0 0 0
309 0 2 0.5897 8.641461623450727 18.166102617545025 5.738923186401066 0 0 0
102 0 2 0.5897 5.368529475778908 18.708682502405058 8.251869245303228 0 0 0
378 0 2 0.5897 7.308469198051271 14.943653448086899 8.301827816637712 0 0 0
642 0 2 0.5897 11.487877550311257 14.35678017458806 6.4501741950223845 0 0 0
640 0 1 -1.1794 12.252210729274026 14.786493768128432 6.84669854162444 0 0 0
641 0 2 0.5897 12.08682714632105 14.935980930784885 7.813798627633948 0 0 0
643 0 1 -1.1794 11.955560246079784 17.1009618262649 5.406691597376169 0 0 0
644 0 2 0.5897 12.026900865335868 16.1373468777192 5.751022044271433 0 0 0
303 0 2 0.5897 10.630051737913858 18.707460812646996 6.239495392253124 0 0 0
734 0 2 0.5897 9.591919249999693 18.823707103061142 8.458191518194365 0 0 0
726 0 2 0.5897 13.791195420542518 14.438493476151015 6.143327555754962 0 0 0
725 0 2 0.5897 15.365816470311417 14.3493529809747 6.249480365655353 0 0 0
348 0 2 0.5897 13.763317260900433 18.087253337203226 5.997536640010351 0 0 0
657 0 2 0.5897 18.085398129182952 14.166778556037505 6.565051325416281 0 0 0
563 0 2 0.5897 17.8310323759045 18.091504333201062 5.938851833688788 0 0 0
564 0 2 0.5897 16.8451873824949 17.770053663930895 4.698988550832745 0 0 0
205 0 1 -1.1794 16.734625943119386 15.28972897388935 6.588893366431967 0 0 0
206 0 2 0.5897 17.001333304584836 16.192343854245028 6.338377526638344 0 0 0
207 0 2 0.5897 16.556940007251338 15.254365671812755 7.517688519817214 0 0 0
562 0 1 -1.1794 16.93936297462695 17.77819113086409 5.674146843387993 0 0 0
347 0 2 0.5897 15.282425660054454 18.200932858440698 6.157359499723005 0 0 0
346 0 1 -1.1794 14.449718258346412 18.61172999504779 6.3923082155927196 0 0 0
371 0 2 0.5897 14.16795037681653 18.3977809223299 8.186642381570985 0 0 0
342 0 2 0.5897 1.3037222178688994 18.868921720894267 7.265988951279888 0 0 0
700 0 1 -1.1794 2.8291538300193655 22.83603168977004 6.722651239496566 0 0 0
701 0 2 0.5897 2.869549535823008 22.721522867205504 7.693339056582205 0 0 0
702 0 2 0.5897 2.04533208217656 22.354517400987433 6.409488441447478 0 0 0
412 0 1 -1.1794 0.8401922929872935 21.359222143031197 5.4476962817318775 0 0 0
414 0 2 0.5897 0.8339145237765802 20.371211316083738 5.653775521012107 0 0 0
248 0 2 0.5897 4.26683517226212 21.947682675086458 5.740581308910795 0 0 0
386 0 2 0.5897 6.314401346674279 19.279518909822865 6.198704270287867 0 0 0
385 0 1 -1.1794 5.3984329829335564 19.2699861114565 6.508062840935946 0 0 0
249 0 2 0.5897 5.271476166692145 21.736565527294182 4.5298850896206675 0 0 0
247 0 1 -1.1794 5.116203385323076 21.626726047158463 5.488618915139801 0 0 0
387 0 2 0.5897 5.086127711992754 20.183943615753485 6.226155516151774 0 0 0
31 0 1 -1.1794 7.082554329291952 23.071198996147814 6.647096954535946 0 0 0
32 0 2 0.5897 7.837565204390467 22.50055633173895 6.396258695056138 0 0 0
33 0 2 0.5897 6.271321737868815 22.725237629626548 6.231244020377472 0 0 0
86 0 2 0.5897 7.113611048801357 22.748579555423007 8.418090243743999 0 0 0
301 0 1 -1.1794 9.883667585599094 19.134063973357744 6.604022254322586 0 0 0
591 0 2 0.5897 9.853749071466893 21.811567380130708 4.830175146219782 0 0 0
302 0 2 0.5897 9.74255517672953 20.035294498557327 6.298584597359707 0 0 0
169 0 1 -1.1794 11.896403298264406 23.208864856481394 6.47607749594248 0 0 0
170 0 2 0.5897 12.760673023500587 22.74978344852085 6.379228313412336 0 0 0
589 0 1 -1.1794 9.76382124763181 21.82203787674624 5.80650124040898 0 0 0
590 0 2 0.5897 10.57392489114227 22.306264063305346 6.117919901680807 0 0 0
330 0 2 0.5897 11.965145454697364 22.87208439333988 8.243464719022683 0 0 0
353 0 2 0.5897 17.37632536421019 22.079991577163078 6.127724414322638 0 0 0
534 0 2 0.5897 14.217908220213252 20.355608538008312 6.225560109817872 0 0 0
532 0 1 -1.1794 14.212988036080398 21.34753447419462 6.068524015976734 0 0 0
352 0 1 -1.1794 16.57921678635121 22.352688634094495 6.637725559042103 0 0 0
354 0 2 0.5897 16.782725690776022 22.40684819214125 7.595646758174108 0 0 0
533 0 2 0.5897 15.088979435318528 21.615610444492752 6.434627667927474 0 0 0
36 0 2 0.5897 1.1643567059483981 3.028411522288308 9.835803204764296 0 0 0
167 0 2 0.5897 2.7993597370503958 1.6059911102007722 11.954335196705589 0 0 0
673 0 1 -1.1794 2.9189130763448397 2.0439473408450737 10.108950070122507 0 0 0
674 0 2 0.5897 3.8065365813531837 2.3522637324661915 10.103726274464078 0 0 0
675 0 2 0.5897 2.916630733855351 1.2793505686525757 9.475282671773934 0 0 0
34 0 1 -1.1794 0.2658490892821541 3.1947637407966876 9.482161989752322 0 0 0
35 0 2 0.5897 0.16145451831334792 4.159816336100711 9.623717738893703 0 0 0
166 0 1 -1.1794 2.735212564730919 1.5248990781186038 12.873585110099164 0 0 0
168 0 2 0.5897 2.004714085180103 2.008515635823442 13.280640571002662 0 0 0
274 0 1 -1.1794 5.294640580522913 2.9352088577116078 9.659885643585952 0 0 0
276 0 2 0.5897 5.9489848996273444 2.3732712427068594 10.147002738138418 0 0 0
355 0 1 -1.1794 7.198821145589308 1.6389556642729919 10.777272632929023 0 0 0
356 0 2 0.5897 7.036468607666605 0.746014634188534 10.447679704689758 0 0 0
357 0 2 0.5897 7.443308036547713 1.4713917480258336 11.68473965019809 0 0 0
176 0 2 0.5897 8.4613474866911 2.4946700291486787 9.71598400491323 0 0 0
175 0 1 -1.1794 9.2470157343412 2.912745358188154 9.286266382291652 0 0 0
514 0 1 -1.1794 11.754898399256936 2.043825687434169 10.325340974520959 0 0 0
515 0 2 0.5897 11.529999934005689 2.1270540986811466 11.251514223163372 0 0 0
516 0 2 0.5897 10.97549839239689 2.318373850349402 9.867194874451643 0 0 0
329 0 2 0.5897 12.056161158883222 0.2573112521894456 9.454256632801208 0 1 0
757 0 1 -1.1794 11.374776029512114 1.9589047570378615 13.22610476056733 0 0 0
849 0 2 0.5897 13.259688487958554 2.7173968237474493 9.837604254382034 0 0 0
705 0 2 0.5897 9.604900990156828 4.426405483838646 10.625267822336806 0 0 0
652 0 1 -1.1794 16.384378041060437 1.5671052501606129 10.489075982403925 0 0 0
653 0 2 0.5897 16.564177400333918 1.5686373175707802 11.49367376548313 0 0 0
654 0 2 0.5897 17.142824128815704 1.996848599423904 10.017900795579655 0 0 0
847 0 1 -1.1794 14.112867688532555 3.139081545387921 9.53989877910772 0 0 0
848 0 2 0.5897 14.754551078985974 2.541606359685205 10.002857839011384 0 0 0
649 0 1 -1.1794 2.9791660667032236 6.970662449655 9.561957668804117 0 0 0
112 0 1 -1.1794 0.43409657439635674 6.199275798409309 10.199948373107866 0 0 0
113 0 2 0.5897 0.5486311977562701 6.082595491998432 11.177574268645333 0 0 0
114 0 2 0.5897 1.186955943220546 6.640851096275819 9.924118743962989 0 0 0
257 0 2 0.5897 3.498197530363319 8.526441819504965 10.217021325048444 0 0 0
651 0 2 0.5897 3.8397298483585476 6.523244152297427 9.679686111631254 0 0 0
365 0 2 0.5897 0.7020609749351138 5.006439381506435 13.156687794687132 0 0 0
364 0 1 -1.1794 0.8449953651709665 5.943074299981506 12.892438977058598 0 0 0
678 0 2 0.5897 5.39782678846898 4.890587540937852 10.059144525330778 0 0 0
761 0 2 0.5897 5.421212985792181 5.446657237605853 12.264999299708924 0 0 0
526 0 1 -1.1794 7.733227890808643 6.784122162123888 9.71932715525562 0 0 0
527 0 2 0.5897 7.888897879550013 7.688927777159004 10.014671417768412 0 0 0
528 0 2 0.5897 8.466590664567915 6.217507421903145 10.074527642816427 0 0 0
676 0 1 -1.1794 5.338850409307602 5.780465352514883 10.354478691173806 0 0 0
677 0 2 0.5897 6.230523864565122 6.2074395665921305 10.13921456166996 0 0 0
760 0 1 -1.1794 5.057049663971787 5.467188060714422 13.217919215218265 0 0 0
820 0 1 -1.1794 7.892997853441604 9.099821056362822 10.8839975921058 0 0 0
821 0 2 0.5897 7.5420758494088425 9.365992402977676 11.741533246973718 0 0 0
313 0 1 -1.1794 11.698362765653963 7.099310231010231 9.882446628293902 0 0 0
314 0 2 0.5897 11.079009051343176 6.807420959938824 10.52796317299474 0 0 0
703 0 1 -1.1794 9.630266970809867 5.340024181226106 10.963024114893095 0 0 0
704 0 2 0.5897 9.624488145890282 5.333990015798522 11.939316725935061 0 0 0
444 0 2 0.5897 11.807836860423535 8.88070609151587 9.674270454604233 0 0 0
315 0 2 0.5897 12.519022171174964 6.65442031253044 10.153359340074733 0 0 0
529 0 1 -1.1794 11.773473859670098 9.250844118526766 13.076700223349595 0 0 0
531 0 2 0.5897 11.871040699195632 9.375851502353031 12.090612964355516 0 0 0
545 0 2 0.5897 14.235378531799338 4.888688135566884 9.950229221379447 0 0 0
816 0 2 0.5897 14.029283439329634 5.527297132038609 12.162822264226163 0 0 0
622 0 1 -1.1794 16.23115767440202 7.307179741826469 9.35171851030104 0 0 0
623 0 2 0.5897 17.057454055037205 6.963601450584926 9.677437865243594 0 0 0
544 0 1 -1.1794 14.128341117954616 5.788983919215794 10.317927783269191 0 0 0
546 0 2 0.5897 14.929938669410802 6.300968598888788 10.138497693171557 0 0 0
624 0 2 0.5897 16.220333717084156 8.26507952123612 9.448271003010827 0 0 0
814 0 1 -1.1794 14.112962425733013 5.490292644535779 13.125222668267535 0 0 0
195 0 2 0.5897 16.705772733623657 9.421899654173545 11.738015892597687 0 0 0
194 0 2 0.5897 16.51727621775515 8.213632504655573 12.738661080344746 0 0 0
193 0 1 -1.1794 16.63409735678669 9.220970272594663 12.682196159725434 0 0 0
256 0 1 -1.1794 3.502702901381274 9.482863011047318 10.516567912225064 0 0 0
797 0 2 0.5897 3.0777911519238534 9.903832458261963 12.151328383625245 0 0 0
796 0 1 -1.1794 2.859853044301871 9.9398254445489 13.070302231446751 0 0 0
258 0 2 0.5897 4.165639771334404 9.99681329586929 10.023025126768388 0 0 0
13 0 1 -1.1794 1.111652720413666 10.515081365453423 9.853509538732844 0 0 0
14 0 2 0.5897 1.3761056337085527 11.362585346056708 10.11596213826043 0 0 0
15 0 2 0.5897 1.9427262724228977 10.062790272802149 10.139058143316754 0 0 0
767 0 2 0.5897 0.41742682941351694 13.147362275498288 11.147420530652449 0 0 0
766 0 1 -1.1794 0.27049607939716147 13.255704418179619 10.204131771278705 0 0 0
637 0 1 -1.1794 0.8766703605722134 13.697672786505521 13.093552423651381 0 0 0
798 0 2 0.5897 1.952804618477847 10.371519043884371 13.14048005213278 0 0 0
812 0 2 0.5897 3.37761888650131 13.90437141578472 9.777019179052616 0 0 0