LAMMPS data file via write_data, version 29 Sep 2021, timestep = 400000

972 atoms
2 atom types

-0.040928076086654386 20.031981076086296 xlo xhi
-0.03125458925810065 20.02230758925863 ylo yhi
0.034682341452841214 20.76608965854826 zlo zhi

Masses

1 1.008
2 15.999

Atoms # full

2 0 2 0 1.829915882418392 2.288651863508284 0.5055402752887005 0 0 0
31 0 1 0 0.6576551270189238 2.1647959254290137 1.7972957862242351 0 0 0
32 0 2 0 0.8982324545599006 1.2708388403679332 2.024575681650825 0 0 0
33 0 2 0 0.8350727604349183 2.809309906926175 2.49644506854792 0 0 0
5 0 2 0 3.608730323523343 1.1894232192438445 3.9017548591481663 0 0 0
18 0 2 0 3.806293527687599 3.3541000238071472 3.6518096313171604 0 0 0
4 0 1 0 4.227931604486811 1.6507038723354241 3.274788372082718 0 0 0
35 0 2 0 4.274914681647233 2.2182134763348733 0.5389039044229456 0 0 0
36 0 2 0 5.722169891929374 1.9418300969673645 1.066548167421925 0 0 0
67 0 1 0 7.692461964278502 2.047360886723325 1.8862769668765378 0 0 0
68 0 2 0 7.730594969581403 2.762339621451933 2.5438096299822877 0 0 0
34 0 1 0 5.23441865059113 2.3296128834557575 0.32946516991170033 0 0 0
272 0 2 0 7.506774719951248 0.1882182838589851 1.866913076497226 0 1 0
230 0 2 0 4.434855093826529 0.12159943734300899 2.2074189701263642 0 1 0
6 0 2 0 5.1477063812270405 1.520708341163271 3.616648458114376 0 0 0
69 0 2 0 8.237438238685872 2.3753797538831813 1.1985737173974282 0 0 0
41 0 2 0 10.08149024584906 0.8560256090713987 3.8868445860466148 0 0 0
40 0 1 0 10.856979068795175 1.068384147210138 3.3662213018722658 0 0 0
54 0 2 0 10.890456048383632 3.1758533972410836 3.4460259500560073 0 0 0
39 0 2 0 10.016108465916666 2.8402995273216356 0.12919202375835465 0 0 0
42 0 2 0 11.624916664980486 0.8493712740537636 3.9618202806751657 0 0 0
70 0 1 0 11.905501227612756 2.5517470726035976 0.12006650733354275 0 0 0
266 0 2 0 11.036565394255662 -0.023264811374829678 2.105426728134552 0 1 0
72 0 2 0 12.556807574032598 2.534947611810416 0.8658188000912981 0 0 0
103 0 1 0 14.045155844635707 2.245078532980798 2.014149059932763 0 0 0
105 0 2 0 14.189604077020933 1.2590807502335912 2.1352788254945945 0 0 0
84 0 2 0 14.502500230329188 3.6140776839662925 3.334739345720765 0 0 0
104 0 2 0 14.774989624788239 2.5799910883111514 1.4214462823041871 0 0 0
73 0 1 0 15.96938474881889 3.18269456648536 0.2970290064654735 0 0 0
108 0 2 0 19.331247696008514 2.294916878035372 0.8418724372791646 0 0 0
76 0 1 0 17.641222073964304 1.3626077316145568 3.4436874955599803 0 0 0
77 0 2 0 17.61920832090105 0.7365279177477254 2.651008079947613 0 0 0
89 0 2 0 17.46329129175664 2.9884885759032627 3.10513548976702 0 0 0
107 0 2 0 17.785162838701904 2.8500022454148244 0.4978142812721452 0 0 0
106 0 1 0 18.646472517099298 2.538877454055837 0.19032295169819474 0 0 0
78 0 2 0 18.468169176608708 1.2364357739056226 3.854906408215946 0 0 0
88 0 1 0 17.471890365480448 3.9479569462710065 3.2126944927875245 0 0 0
10 0 1 0 1.0657413331217809 4.305385576068193 3.4447926238105193 0 0 0
16 0 1 0 3.71127863917415 4.272923226751381 3.992852325006146 0 0 0
20 0 2 0 0.7393142434126054 5.560043740961167 2.2402584353114436 0 0 0
21 0 2 0 0.6517936352980734 7.018807396703535 1.6052612681868332 0 0 0
19 0 1 0 0.7028369419753834 6.070696449688528 1.4082736883637508 0 0 0
675 0 2 0 2.055268160637871 5.749394713875261 0.3714627817188379 0 0 1
12 0 2 0 1.9955897715028548 4.238183142006406 3.739749689214278 0 0 0
46 0 1 0 7.696751043430693 4.033756460000261 3.9321007743934877 0 0 0
17 0 2 0 3.988398957190652 4.788778556164088 3.249032318972718 0 0 0
114 0 2 0 4.408201162524358 7.596763763489949 2.8390807990813354 0 0 0
14 0 2 0 4.247130198675417 5.777467835767352 1.0039270166356609 0 0 0
13 0 1 0 4.880413854764261 5.914155159236347 1.7585224445185204 0 0 0
113 0 2 0 5.150304020295946 7.7285458316166045 4.140930924876167 0 0 0
15 0 2 0 5.8052668016133575 5.929453413265457 1.4631179845564546 0 0 0
55 0 1 0 7.667497988920386 5.6939730432765945 1.7389916923235555 0 0 0
56 0 2 0 7.659681660376668 5.071011566312711 2.483462281987146 0 0 0
177 0 2 0 7.496692511477274 7.750462266240425 2.687293680870305 0 0 0
52 0 1 0 10.693955514545815 4.100741308457386 3.748791621492848 0 0 0
57 0 2 0 8.296781156888315 5.475911959437184 1.0364371330865316 0 0 0
149 0 2 0 10.226186200773757 7.549730747789427 3.6865857582217365 0 0 0
51 0 2 0 11.149555724504438 5.062030106217074 2.1404291597290466 0 0 0
49 0 1 0 11.336358756453317 5.700038351349176 1.5067829883175923 0 0 0
50 0 2 0 10.758285345593025 5.525182618832703 0.7589184424310369 0 0 0
150 0 2 0 10.98701380829058 7.316238668016392 2.329879860182931 0 0 0
148 0 1 0 10.829651986958552 7.951563009777791 3.0909607470923905 0 0 0
82 0 1 0 14.722993651444494 4.395546287791184 3.8763590708518763 0 0 0
83 0 2 0 14.308280012441456 5.157195852006568 3.4425351222257983 0 0 0
91 0 1 0 13.949696068388315 6.269042482888094 1.952833592682195 0 0 0
92 0 2 0 14.000919613893743 7.21705602140106 2.237241882776005 0 0 0
93 0 2 0 13.03489006045879 6.049912351709028 1.7617915062234246 0 0 0
747 0 2 0 15.03339354079594 6.074544479699211 0.7019287593476901 0 0 1
204 0 2 0 15.920700402848777 7.4736452757982175 4.085577401571427 0 0 0
90 0 2 0 16.55023089871831 4.201594094804342 3.4080182218866835 0 0 0
86 0 2 0 17.853763454837313 5.074557154869484 1.932106350436612 0 0 0
85 0 1 0 17.998494756839726 5.81219811875725 1.2556673282396003 0 0 0
87 0 2 0 18.918994086867894 5.777448686832513 0.9453836335661661 0 0 0
185 0 2 0 17.881277197128917 7.2297913297799274 2.404224953466017 0 0 0
746 0 2 0 16.453387427425508 5.737871917149232 0.23986979115374024 0 0 1
184 0 1 0 18.013948015270564 7.924292245525955 3.116941463092197 0 0 0
139 0 1 0 0.6502236786588919 8.877091456015913 1.922010981674657 0 0 0
141 0 2 0 1.392636273088129 9.100287975594435 1.2879523117125828 0 0 0
119 0 2 0 1.2627858190839631 9.897868137997236 3.150167527757806 0 0 0
120 0 2 0 2.512805787109023 10.714066702028186 3.6669917238828758 0 0 0
118 0 1 0 1.52741675374236 10.711797739669338 3.5867248899207285 0 0 0
783 0 2 0 2.5382849854070075 11.122779492353006 0.06493314191761207 0 0 1
112 0 1 0 4.389263730821747 8.091930002690484 3.655712111296108 0 0 0
124 0 1 0 4.28310230598468 10.780904406322142 3.7327925174028644 0 0 0
126 0 2 0 4.490864812625147 9.829904435237088 3.6948461222660107 0 0 0
122 0 2 0 4.596000796175146 11.859044006442316 2.272397144165 0 0 0
175 0 1 0 7.250187422914528 8.63463277209829 2.5666628840880477 0 0 0
176 0 2 0 6.615430723287406 8.570708695178139 1.84398912278304 0 0 0
142 0 1 0 5.221376276685669 9.463343130260094 0.5550444398126849 0 0 0
155 0 2 0 7.493512009717309 10.26452530966302 3.2879769630937874 0 0 0
156 0 2 0 7.518650599627237 11.867129319859908 3.219462709222842 0 0 0
154 0 1 0 7.89166521494788 11.06558846845628 3.6650561996648747 0 0 0
143 0 2 0 5.43583075427599 10.361864793300082 0.34157791998061177 0 0 0
147 0 2 0 8.603928725978985 9.684309400158599 1.2819921340778815 0 0 0
161 0 2 0 9.721481856345006 10.728541679878136 3.350466016599563 0 0 0
145 0 1 0 9.067791941423046 9.760141106658311 0.4381459066899834 0 0 0
179 0 2 0 10.689405402420968 9.645457908869156 0.546996787583357 0 0 0
162 0 2 0 10.640936488918465 9.490269715710411 2.9753990242402284 0 0 0
160 0 1 0 10.61947205820207 10.457878113177292 3.2657092253803777 0 0 0
158 0 2 0 11.056601478826131 11.744620674539762 2.101664905726508 0 0 0
178 0 1 0 11.677613400351461 9.606556440989802 0.49169323645120766 0 0 0
211 0 1 0 14.121497274670306 8.856038157896407 2.074994741165505 0 0 0
212 0 2 0 14.185201699854206 9.627616393191753 2.701275012452033 0 0 0
213 0 2 0 13.240458565890028 8.947712978575776 1.673766574861184 0 0 0
191 0 2 0 14.7560192158698 11.677591770349764 2.9806311046712275 0 0 0
190 0 1 0 15.097400202896129 10.967960547337547 3.5176217558890386 0 0 0
183 0 2 0 15.2072852964895 9.611558471229468 0.7960516839459197 0 0 0
140 0 2 0 19.85405721802274 9.075391601989617 1.4799129867640508 -1 0 0
192 0 2 0 16.055159279604098 10.9382861659125 3.3527593309454704 0 0 0
186 0 2 0 17.660862358059056 8.74838239852835 2.7880518834982695 0 0 0
214 0 1 0 18.23111552409952 8.93953241212515 0.15708930585323488 0 0 0
196 0 1 0 17.768097135822984 10.564032740714051 2.867717686664044 0 0 0
197 0 2 0 17.846882969320305 11.299359860486833 2.221532581369351 0 0 0
198 0 2 0 18.547444765785706 10.75619718507592 3.3962338173321878 0 0 0
129 0 2 0 0.7702780326155183 12.279036026731685 2.613656472133911 0 0 0
782 0 2 0 1.9633408545758608 12.38261043505181 0.8077892692748488 0 0 1
127 0 1 0 0.6903452785907642 12.947360429092576 1.9245413274213214 0 0 0
249 0 2 0 0.47643877831229087 14.775832495474 2.4379233543805428 0 0 0
221 0 2 0 3.4071706937499586 14.106008232121066 4.082020212185245 0 0 0
247 0 1 0 0.5107753974756444 15.72299367514826 2.4037730392744225 0 0 0
218 0 2 0 1.6421240979747058 15.757011588504865 0.8684469113586287 0 0 0
781 0 1 0 2.5353717060632004 12.088483214301444 0.034938480997104976 0 0 1
123 0 2 0 4.090982464096019 12.623356489509725 1.0500367154047539 0 0 0
220 0 1 0 4.0921922476040615 14.56637350517884 3.5406158151357414 0 0 0
121 0 1 0 4.708223561478512 12.705043982725957 1.8143914777486863 0 0 0
222 0 2 0 4.3502001584979695 14.011514644060636 2.8108732172839663 0 0 0
251 0 2 0 4.28915824136615 15.807021268140442 0.8663785517543188 0 0 0
165 0 2 0 6.430978718334787 13.290695674821695 1.9323470885282872 0 0 0
163 0 1 0 7.394755192840156 13.287561753670614 2.0427099894564233 0 0 0
164 0 2 0 7.629914494375898 14.194532147865838 2.24722741332213 0 0 0
283 0 1 0 7.507443754251848 15.920616401991305 2.124335440139718 0 0 0
284 0 2 0 6.696596851814885 15.956536874431166 1.6591485240550612 0 0 0
250 0 1 0 5.211408329192573 15.902109347293434 0.5993150544318603 0 0 0
819 0 2 0 8.265965192534258 12.78059881248265 0.6394333595708084 0 0 1
818 0 2 0 9.77618729140752 12.567490033270262 0.46234251924533304 0 0 1
285 0 2 0 8.195674803314931 15.858664641131362 1.444839002924145 0 0 0
258 0 2 0 9.945462118587349 14.230218209615714 3.943995671663381 0 0 0
157 0 1 0 11.236772010462959 12.503258331576282 1.4665496995062957 0 0 0
159 0 2 0 10.929715519841487 13.297335471998112 1.9368643014713842 0 0 0
256 0 1 0 10.495481577636967 14.418912898915297 3.174311415296146 0 0 0
257 0 2 0 10.505734586819877 15.38417918946583 2.964093282850219 0 0 0
286 0 1 0 12.000583256427019 15.471085378261067 0.4638994620602792 0 0 0
281 0 2 0 11.867225529067607 14.025548683794538 4.063652673301186 0 0 0
855 0 2 0 15.046995407373586 12.411966520271402 0.3806135527617052 0 0 1
199 0 1 0 13.826522330507686 12.583552194395667 1.5946392797806654 0 0 0
200 0 2 0 12.835043971858335 12.482560495941875 1.4521392488229545 0 0 0
201 0 2 0 13.996918873533245 13.51543819652639 1.8016093980202808 0 0 0
319 0 1 0 14.286166587861732 15.124241797965807 1.9404510112303919 0 0 0
320 0 2 0 13.350627221406159 15.326892896604733 1.655954984472874 0 0 0
321 0 2 0 14.442282839939864 15.756722671420315 2.633495268628947 0 0 0
128 0 2 0 19.86926437473115 12.745073571123891 1.67398133895402 -1 0 0
195 0 2 0 17.191371367743262 12.83549654113144 0.6428189200010173 0 0 0
193 0 1 0 17.870750368022204 12.920595594057469 1.290432391192213 0 0 0
194 0 2 0 17.730902441504714 13.775676382714783 1.8253820359274153 0 0 0
294 0 2 0 16.584543053163607 14.862521133414846 3.8252229960817217 0 0 0
292 0 1 0 17.37791101311888 15.031668913144147 3.3269546904139373 0 0 0
322 0 1 0 18.770548183223802 15.856330501656632 0.3941390954854237 0 0 0
227 0 2 0 1.2125373333297553 16.98739856413485 3.399657231023025 0 0 0
235 0 1 0 0.5514705947750571 19.470228180685783 1.8870057691544557 0 0 0
236 0 2 0 0.8373894465957379 18.894170243404197 2.605573309910749 0 0 0
237 0 2 0 1.2197053214723252 19.261718658332754 1.1724083502077307 0 0 0
226 0 1 0 1.4775704920583554 17.803965462377704 3.8699229683684804 0 0 0
891 0 2 0 3.282555839133737 19.003097716902907 0.5575144241231578 0 0 1
228 0 2 0 2.4320247420606194 17.760178496109432 4.102329752976793 0 0 0
217 0 1 0 2.305675042348332 16.115074389015053 0.24987344243730772 0 0 0
890 0 2 0 2.372458729371701 17.788919427241407 0.09534200339722214 0 0 1
889 0 1 0 2.466691427122434 18.798924779227047 0.04703827694814322 0 0 1
234 0 2 0 4.188683892712853 17.799157022633455 2.8952498533122006 0 0 0
233 0 2 0 4.14153574912758 16.313948131940318 3.4463575997026514 0 0 0
232 0 1 0 4.164576745342577 17.276642464853605 3.7180347107605143 0 0 0
229 0 1 0 4.630141143542828 19.288294127524374 1.742469130671007 0 0 0
231 0 2 0 5.597389885020985 19.237567184874813 1.6730690993798933 0 0 0
271 0 1 0 7.3062775666808815 19.312360111853142 1.85957576706581 0 0 0
273 0 2 0 7.7045121776233385 18.972333522156557 2.716928159490046 0 0 0
263 0 2 0 7.940067128156132 17.025157823976606 3.406370554471678 0 0 0
262 0 1 0 8.20786848739405 17.876700230046943 3.8875384347010207 0 0 0
927 0 2 0 8.410148116351793 18.785555684194033 0.6105582303656626 0 0 1
264 0 2 0 9.154943319121564 17.805617029256528 3.816115288877745 0 0 0
265 0 1 0 11.414523542525433 19.412299947833947 1.4168719152913452 0 0 0
267 0 2 0 10.72937917814178 19.319593509691085 0.7493474429232388 0 0 0
268 0 1 0 10.794904214669964 17.35292010149262 3.335750649913837 0 0 0
269 0 2 0 11.03988398757726 17.938214917318607 2.575166322846914 0 0 0
270 0 2 0 11.532020068799847 17.55564524314232 3.9608908672130023 0 0 0
925 0 1 0 9.1737816070863 18.6237751999599 0.05363192126170446 0 0 1
287 0 2 0 11.965146019370962 16.39527019631723 0.06382593488606023 0 0 0
291 0 2 0 15.539399543755835 16.117017521134898 1.0131652673379925 0 0 0
307 0 1 0 14.116872078562283 19.53383849517548 2.23780295025506 0 0 0
308 0 2 0 13.184346871580019 19.343285694223088 1.9721990781239382 0 0 0
309 0 2 0 14.45745834334069 18.81464849710032 2.742089746457065 0 0 0
298 0 1 0 14.915613661205628 17.320458739134175 3.4930163942420807 0 0 0
963 0 2 0 15.062211532956011 19.277761717054226 0.7922521400915469 0 0 1
300 0 2 0 15.887583289441608 17.513816801789268 3.6294177121783235 0 0 0
961 0 1 0 15.60189559928573 19.213242440161174 0.03493965576324598 0 0 1
248 0 2 0 19.93590781229088 16.01626748678453 1.7659885935449608 -1 0 0
293 0 2 0 17.448215440982008 16.011943381931346 3.3034529520233264 0 0 0
290 0 2 0 16.999468249731695 16.311007164172548 0.6191213815631117 0 0 0
301 0 1 0 17.90519382219233 19.405999857732787 1.5869011680914258 0 0 0
302 0 2 0 17.383462273058154 19.223889171227125 0.779538932454306 0 0 0
303 0 2 0 18.85395668150851 19.40804619401825 1.3703242048557516 0 0 0
304 0 1 0 17.44132641849827 17.7926984180496 3.7083972664211258 0 0 0
306 0 2 0 17.65245428459329 18.36477482935074 2.9587979294255318 0 0 0
289 0 1 0 16.132013599109268 16.61117278773026 0.39711014227492725 0 0 0
22 0 1 0 2.281998065666741 0.6640399807000539 4.749214667693905 0 0 0
23 0 2 0 2.4030330774529753 1.0162491613919802 5.626665473808694 0 0 0
325 0 1 0 2.73833099632273 2.171588742399877 6.879384188979431 0 0 0
327 0 2 0 2.759452066170339 3.1374504838478483 6.674497894253092 0 0 0
101 0 2 0 0.5086790157456736 1.1371095973008736 4.984113119173255 1 0 0
326 0 2 0 3.687727453171336 1.975073703762643 7.084227008117425 0 0 0
356 0 2 0 1.4623373267211064 1.8983940280688818 8.186282008141639 0 0 0
28 0 1 0 6.207503182114281 1.1201474470033028 5.004071378591926 0 0 0
29 0 2 0 7.191527610793358 1.0752219075852298 4.753798650244161 0 0 0
358 0 1 0 5.358766863738106 2.0849125067538727 7.473365222771841 0 0 0
359 0 2 0 5.883000649694171 1.8462863685655315 6.67327080243915 0 0 0
360 0 2 0 5.949092317865471 1.87177264046241 8.193172237649478 0 0 0
30 0 2 0 5.990023048924998 0.21751472381362175 5.343273358969518 0 0 0
58 0 1 0 8.867808461854436 0.6902329747738135 5.1369084203732935 0 0 0
59 0 2 0 8.98770410571264 1.2989876598962848 5.903045100153692 0 0 0
361 0 1 0 9.435535722316935 2.31775328709806 7.414112660234744 0 0 0
363 0 2 0 9.299673139950587 3.2325990536973093 7.1443067692180255 0 0 0
362 0 2 0 10.369221846352882 2.2817564683251303 7.6545619830092075 0 0 0
394 0 1 0 12.107737574111392 2.620655430049735 7.331729443583972 0 0 0
396 0 2 0 12.359467587960673 3.3836476932130397 6.775839358585615 0 0 0
66 0 2 0 12.27123331307401 1.1274863882426147 6.157671296804222 0 0 0
64 0 1 0 12.624791639425519 0.4545878009678193 5.541036317241435 0 0 0
65 0 2 0 13.474495798374827 0.7933084968415675 5.280041860701746 0 0 0
395 0 2 0 12.847768269516077 2.422495880412837 7.967483782219248 0 0 0
94 0 1 0 15.389472223052534 0.7138064276815642 4.894323119787026 0 0 0
95 0 2 0 15.739353121459818 1.3235771066727795 5.565985597248914 0 0 0
399 0 2 0 15.943365605481107 3.460883004467519 6.473863417956367 0 0 0
429 0 2 0 15.188528123992937 2.202307610428427 8.06996160024224 0 0 0
96 0 2 0 16.09849097651339 0.8134359636702627 4.292033083989395 0 0 0
397 0 1 0 16.243194284875948 2.537149745121055 6.648193995082749 0 0 0
100 0 1 0 19.69483468812622 0.8828162412005942 5.12437674918514 0 0 0
398 0 2 0 17.20244600211018 2.7070675669080972 6.834545995230464 0 0 0
430 0 1 0 19.02470558165248 2.7476178986689144 7.020176073019599 0 0 0
431 0 2 0 19.280477666040593 2.0663122146791744 6.313329753719228 0 0 0
432 0 2 0 18.922346308435234 3.5417185630632773 6.457605981901412 0 0 0
357 0 2 0 20.02636367417257 1.792513683895909 8.325406731877457 -1 0 0
131 0 2 0 2.5281585201173566 7.689216353988966 4.591448268217156 0 0 0
11 0 2 0 0.4712397135631823 4.550034821621468 4.205230577801047 0 0 0
25 0 1 0 2.6284788768941545 5.027183553582645 6.985772212211245 0 0 0
26 0 2 0 2.3743173985812454 5.607185506730337 6.280328030624768 0 0 0
27 0 2 0 3.426563552611442 5.421436850566348 7.366445060797413 0 0 0
130 0 1 0 2.131588096490545 7.3786419035631 5.401706319305282 0 0 0
132 0 2 0 1.1762477262912416 7.2941847992547855 5.211915824140637 0 0 0
344 0 2 0 1.2972645681957806 5.14065320719702 7.905505371755056 0 0 0
8 0 2 0 5.637542194492586 4.132681451183773 6.558226922889336 0 0 0
9 0 2 0 5.074306096615756 4.548267947003198 5.040136031797097 0 0 0
48 0 2 0 7.049952093318055 4.119256629117846 4.65780857642656 0 0 0
7 0 1 0 5.8031843039356925 4.675144198010872 5.7454295927265 0 0 0
137 0 2 0 6.152146511965878 6.431748953887138 5.657800340000875 0 0 0
136 0 1 0 6.312049053320208 7.42082904160828 5.451347503843214 0 0 0
138 0 2 0 7.2279391047646255 7.469272929392536 5.210183660692641 0 0 0
47 0 2 0 8.599511144762642 4.230971192258608 4.321404772631544 0 0 0
61 0 1 0 8.867439965976446 5.088937796709974 6.552527685752062 0 0 0
63 0 2 0 8.137959833427079 5.193335817699558 7.2086079456544265 0 0 0
167 0 2 0 9.037768965499117 6.741556717726518 5.64869159280876 0 0 0
166 0 1 0 9.198502366061973 7.54368036261192 5.161014137379426 0 0 0
53 0 2 0 11.17994452174015 4.218854561098859 4.5515044826851945 0 0 0
62 0 2 0 9.6316779053152 5.285868515886818 7.107134100824019 0 0 0
373 0 1 0 11.00128611013083 5.951009855731503 8.093262457563183 0 0 0
173 0 2 0 12.45147064359691 7.725039916847635 4.431242532006236 0 0 0
45 0 2 0 12.14178874019862 5.677193716696351 5.924882389783979 0 0 0
44 0 2 0 13.161725911476866 4.782954505153476 5.117579905101368 0 0 0
43 0 1 0 12.381684184875065 4.737886084128495 5.683106550401937 0 0 0
172 0 1 0 12.820430015501085 7.4630956042034375 5.301225024546984 0 0 0
174 0 2 0 13.776275776156584 7.455797991724375 5.227323237942802 0 0 0
416 0 2 0 14.47586625194403 5.805445863632385 7.841270927323849 0 0 0
99 0 2 0 15.707558087055673 5.8738394938380445 6.164536087657595 0 0 0
97 0 1 0 15.916280930141735 5.171520236128577 6.797569625762867 0 0 0
202 0 1 0 15.501906873179559 7.348772178362083 4.95427092834705 0 0 0
81 0 2 0 18.471729472256982 4.72651634643672 4.530300432828834 0 0 0
79 0 1 0 19.072685937772736 4.816497107470105 5.276064856940404 0 0 0
80 0 2 0 19.155007475955088 5.753745900079655 5.519770478627589 0 0 0
98 0 2 0 16.712517093661642 5.398725508210164 7.29930062589266 0 0 0
208 0 1 0 19.36697980342316 7.490899140054437 5.405816267200499 0 0 0
209 0 2 0 18.79579785885771 7.680367381907161 4.667496147459543 0 0 0
409 0 1 0 17.98303656211236 5.813069861079524 8.30977931277413 0 0 0
433 0 1 0 2.870016765528664 9.002075899364486 7.582345849484551 0 0 0
435 0 2 0 2.5493552695862483 8.535068791071584 6.889471366905356 0 0 0
434 0 2 0 3.871118384075004 8.959240887565254 7.511730206930001 0 0 0
135 0 2 0 2.2439815373817953 10.681855636616804 6.903823779166103 0 0 0
189 0 2 0 0.0023726351262803036 10.845477518218667 4.961978099708797 1 0 0
133 0 1 0 2.2397941960230625 11.66515704255213 7.015180138967969 0 0 0
134 0 2 0 3.2036430335987958 11.783691618757304 7.2215524837134 0 0 0
125 0 2 0 4.809035606104122 11.096714604788724 4.470241020825053 0 0 0
466 0 1 0 5.716621230109394 8.922144661602141 7.5801141901795885 0 0 0
468 0 2 0 5.807422402106043 8.458849168031334 6.748829462241857 0 0 0
467 0 2 0 5.853797917859849 9.818330933647685 7.413220531045172 0 0 0
115 0 1 0 6.035919513440975 11.329815604077043 5.873158549344876 0 0 0
116 0 2 0 6.9511308318356395 11.432134576873953 5.70560640323085 0 0 0
168 0 2 0 9.308989006255445 8.181273807649207 5.916688735607834 0 0 0
469 0 1 0 9.648401377595532 9.398974887985148 7.370909987860865 0 0 0
471 0 2 0 10.636839647253678 9.36565969768989 7.376840612945593 0 0 0
470 0 2 0 9.371322696699883 10.271877800946902 7.040894730260534 0 0 0
152 0 2 0 11.774288143861003 10.887348564147471 4.477597483594154 0 0 0
502 0 1 0 12.379356739899023 9.54844793332026 7.227921643641582 0 0 0
503 0 2 0 12.531346299490433 8.83163428712099 6.637075204922179 0 0 0
504 0 2 0 12.428266485802586 10.28207562570677 6.619878446412377 0 0 0
151 0 1 0 12.393755471029655 11.104426956910467 5.172028363981409 0 0 0
153 0 2 0 13.25096266354394 11.011625757833597 4.654593530450878 0 0 0
203 0 2 0 15.730696854673887 8.153888745761174 5.426889420341664 0 0 0
507 0 2 0 15.630941966631031 9.340963783117537 7.4230963762767335 0 0 0
207 0 2 0 15.893997433805575 11.181463549047887 6.216043807396881 0 0 0
210 0 2 0 19.250904430173634 8.232852613459439 6.0171853067842065 0 0 0
505 0 1 0 16.20113780393491 9.417338832121686 6.6139296744551155 0 0 0
506 0 2 0 17.107587947467657 9.236623038304593 6.930166520753698 0 0 0
538 0 1 0 18.985934380813873 9.283041950913644 7.3321910166433195 0 0 0
540 0 2 0 19.2624467033976 10.14418273242616 6.962551445565509 0 0 0
539 0 2 0 19.67287698294076 8.977670805619987 7.9581692416608 0 0 0
187 0 1 0 19.18727855279242 11.082246374678316 5.25385511883485 0 0 0
238 0 1 0 2.0944621832694343 13.74547922968834 5.242669677002292 0 0 0
239 0 2 0 1.1773534892945632 13.785059832966446 4.9150284521046155 0 0 0
240 0 2 0 2.1163539506882927 12.894235801370082 5.802499999649544 0 0 0
453 0 2 0 0.8284753634057103 12.306926266195523 8.147203085578848 0 0 0
542 0 2 0 2.5138276758009237 15.258807695770319 6.352621243214551 0 0 0
541 0 1 0 2.552143380430275 15.866817769179036 7.112459908278713 0 0 0
543 0 2 0 3.507875796401409 15.705150186999273 7.377868009282356 0 0 0
117 0 2 0 5.751577485215268 12.215378870933543 6.244271318740277 0 0 0
246 0 2 0 5.330852997471064 14.430087635795486 4.7518684685052275 0 0 0
244 0 1 0 6.07223243650347 14.480874980354736 5.405418566870341 0 0 0
245 0 2 0 5.818769212901578 15.119453662989505 6.08215053273594 0 0 0
276 0 2 0 7.9050806505149644 14.266973171106725 4.8513993571347305 0 0 0
169 0 1 0 9.230130905415416 12.1572076416305 6.905118005078656 0 0 0
489 0 2 0 8.060420929424875 12.525406627222441 8.020968429382435 0 0 0
170 0 2 0 8.967660482154889 12.786481463331405 6.200864954610078 0 0 0
274 0 1 0 8.824931256291563 14.283815097583275 5.070236848536194 0 0 0
275 0 2 0 8.978913339310353 15.036632649935834 5.641011994119078 0 0 0
578 0 2 0 9.027658206124084 15.693048204980212 7.732702025456955 0 0 0
577 0 1 0 9.653147133176086 15.960149981874277 6.99926314554154 0 0 0
171 0 2 0 10.057709960300588 12.430724315750245 7.313854680293831 0 0 0
611 0 2 0 11.44400468189147 15.821664091531233 7.414423087353277 0 0 0
280 0 1 0 12.409609927718524 13.913239551198492 4.867761054019797 0 0 0
282 0 2 0 12.493607962380935 12.962572698586575 4.969017302290301 0 0 0
311 0 2 0 14.042130601537762 14.38905470446571 4.59825622808252 0 0 0
612 0 2 0 12.355567269635308 15.029958588997058 6.548371466795603 0 0 0
205 0 1 0 15.676056857137857 12.109296776795908 6.428780666779872 0 0 0
206 0 2 0 15.162358508232579 12.030149376040795 7.288098523401789 0 0 0
310 0 1 0 15.014688203207848 14.322173023352907 4.852736549602589 0 0 0
312 0 2 0 15.13475830500843 13.491179708182152 5.333624904250206 0 0 0
614 0 2 0 15.65164428494296 15.50082703429916 6.43501631218606 0 0 0
610 0 1 0 12.34396885483818 15.795195049082636 7.137805712629134 0 0 0
613 0 1 0 16.000168129659738 15.915384370608352 7.205533159571039 0 0 0
318 0 2 0 18.90918133889502 14.291479013470962 4.368556825240167 0 0 0
188 0 2 0 19.132569007852723 12.092653680823307 5.230420493012016 0 0 0
518 0 2 0 17.249001960633922 12.715739961429293 7.669056293721194 0 0 0
316 0 1 0 19.413027610859526 13.833107239984036 5.064996362964584 0 0 0
317 0 2 0 19.12949792089727 14.20247630635516 5.913432516541927 0 0 0
646 0 1 0 18.942673566151687 15.728197311641111 7.185955204904696 0 0 0
648 0 2 0 19.47954739299355 15.602077935250195 7.990521587782186 0 0 0
647 0 2 0 18.05809912868308 15.396829720163618 7.254885066599025 0 0 0
519 0 2 0 18.758604523777194 12.831770489463283 8.2171940244938 0 0 0
24 0 2 0 2.3265960970603916 19.76325176428323 4.8329929136995995 0 -1 0
241 0 1 0 2.5999941365212185 18.627690602789077 6.5583894445625806 0 0 0
242 0 2 0 2.6281376479031513 17.633870965741792 6.4452634062238445 0 0 0
243 0 2 0 3.2371284655405494 18.86413494856589 7.277586960452328 0 0 0
560 0 2 0 1.4092804649343296 18.815622159488072 7.847540422355778 0 0 0
297 0 2 0 0.21186377971917159 17.85926777077056 5.145100890119535 1 0 0
575 0 2 0 6.10910666436131 16.074383798487798 7.98166755670206 0 0 0
574 0 1 0 5.438018678270508 16.434041478621864 7.376691426587893 0 0 0
224 0 2 0 5.212431054792062 18.090710321261078 5.154555710675466 0 0 0
223 0 1 0 5.966980685108578 18.505041139839655 5.652476207991787 0 0 0
225 0 2 0 6.821137674978816 18.286720230703583 5.157522648405594 0 0 0
576 0 2 0 5.893786877506653 17.149649950365795 6.886548154931304 0 0 0
60 0 2 0 9.073636072572617 19.923936360934817 5.515086580001432 0 -1 0
278 0 2 0 8.323554927848894 18.557751289213776 7.648217732084486 0 0 0
277 0 1 0 9.115118437295516 18.56053540805125 7.079493435339758 0 0 0
579 0 2 0 9.480651291813253 16.956420949039202 6.864666985472692 0 0 0
279 0 2 0 9.804421753057847 18.94779459307352 7.676548347047173 0 0 0
260 0 2 0 12.55829923609453 18.75336272224992 5.533090201855711 0 0 0
261 0 2 0 12.465370699104362 17.168116063957232 5.940348737012954 0 0 0
259 0 1 0 12.581275664357156 17.832977865684434 5.194245613662506 0 0 0
299 0 2 0 14.53071326512618 17.437657488355065 4.39152237252421 0 0 0
315 0 2 0 15.271026051799852 18.770650532954644 7.28279566938607 0 0 0
314 0 2 0 15.841910789513994 19.07622803751686 5.846340551245959 0 0 0
615 0 2 0 15.978193835793189 16.902932206915033 7.007312376037405 0 0 0
313 0 1 0 16.033654012567613 18.597666727570008 6.681807381482914 0 0 0
102 0 2 0 19.74165670393208 19.962481466185192 5.307092118139093 0 -1 0
305 0 2 0 18.16296350505206 17.857328904270005 4.4026475833163525 0 0 0
295 0 1 0 19.378286268352404 17.96713337377546 5.510832138972227 0 0 0
296 0 2 0 19.22450843706808 17.318823018486086 6.182315732002517 0 0 0
627 0 2 0 17.650213411732206 18.995702653178736 7.536025389581299 0 0 0
626 0 2 0 19.138811809511243 18.88007082817274 7.921076068827677 0 0 0
625 0 1 0 18.250013903977965 19.123552288313274 8.26496023584499 0 0 0
355 0 1 0 0.7434467752892198 1.473195338433717 8.720100972658095 0 0 0
335 0 2 0 1.1359412108443774 2.845228192520276 9.9714146847883 0 0 0
346 0 1 0 2.1349497569394216 0.8828793094876336 11.999315835345529 0 0 0
347 0 2 0 2.704196603324264 1.009930155859417 11.2020590697064 0 0 0
348 0 2 0 1.1751206079224374 1.0208579825203734 11.797583621610563 0 0 0
334 0 1 0 1.2054243534631695 3.6351638302640947 10.544628708852809 0 0 0
336 0 2 0 2.108325797866068 3.8761541359123797 10.417248176640522 0 0 0
328 0 1 0 4.147992651083295 1.1886655825302839 10.22487716321933 0 0 0
329 0 2 0 4.280091302978793 2.155945554228512 10.080728197644392 0 0 0
330 0 2 0 4.8754060258882355 0.9302611217817187 10.867449467391705 0 0 0
554 0 2 0 4.2066483597539355 -0.002115616887752688 9.042366034549085 0 1 0
353 0 2 0 7.0151519840163115 0.417564692711283 11.714331459087349 0 0 0
391 0 1 0 7.662901621464272 1.3819969071301856 9.109040923134442 0 0 0
393 0 2 0 7.507185094054495 0.4202570514503524 9.221105510342694 0 0 0
352 0 1 0 6.103356589340085 0.17771776506876982 11.998420494456589 0 0 0
340 0 1 0 4.142077819225873 3.88076107183762 10.28059004273174 0 0 0
392 0 2 0 8.253003497331576 1.4198164264843485 8.350664136658029 0 0 0
372 0 2 0 8.123669015229495 2.7427269133426173 10.17026023437994 0 0 0
382 0 1 0 8.909364001862517 0.788732465378627 12.078728266638324 0 0 0
366 0 2 0 10.544791082733424 1.317237688308962 11.112823722798458 0 0 0
364 0 1 0 11.135435990934587 1.514602149274203 10.407286795114517 0 0 0
378 0 2 0 11.338197613553973 3.383460401136513 10.135459798634068 0 0 0
365 0 2 0 11.989271018588251 1.321532510469113 10.828351280651592 0 0 0
370 0 1 0 8.258601671855706 3.690709770642934 10.416520386998407 0 0 0
371 0 2 0 9.23160817472913 3.840101578525183 10.63429607330718 0 0 0
591 0 2 0 11.24077197917241 0.1254770775484123 9.316884473956653 0 1 0
427 0 1 0 14.562647915049425 1.9881932624868228 8.763509002801598 0 0 0
428 0 2 0 14.756358151898992 2.655015558874966 9.445854930542048 0 0 0
389 0 2 0 13.708712935066234 0.9078731712499194 11.823561084679987 0 0 0
388 0 1 0 12.84749181021916 0.8068217813687232 12.260526807951358 0 0 0
632 0 2 0 14.39119066306232 0.3598499693874554 8.98097715744431 0 1 0
418 0 1 0 15.48437981873851 0.8482540424097085 11.59823412628207 0 0 0
419 0 2 0 15.725534272768147 0.1871596808819905 12.23774240554175 0 0 0