LAMMPS (29 Sep 2021 - Update 2)
  using 1 OpenMP thread(s) per MPI task
echo both

include		in.partitions
variable        pid world 0
include		in.temp
variable        temperature equal 255
variable	tempDamp equal 0.1
include		in.pressure
variable        pressure equal 3039.75
variable        pressureDamp equal 1.0 # This is 1 ps
include		in.seed
variable        seed world 745823

units           metal
atom_style	full
include		in.box
read_data       iceIII.data
Reading data file ...
  orthogonal box = (0.0000000 0.0000000 0.0000000) to (19.991053 19.991053 20.800772)
  1 by 1 by 1 MPI processor grid
  reading atoms ...
  972 atoms
Finding 1-2 1-3 1-4 neighbors ...
  special bond factors lj:    0        0        0       
  special bond factors coul:  0        0        0       
     0 = max # of 1-2 neighbors
     0 = max # of 1-3 neighbors
     0 = max # of 1-4 neighbors
     1 = max # of special neighbors
  special bonds CPU = 0.003 seconds
  read_data CPU = 0.029 seconds
include 	in.setup
variable	out_freq equal 500
variable	out_freq2 equal 500

timestep        0.0005

neigh_modify    delay 7 every 1

include         in.deepmd
# This is deepMD model

# create groups ###
#group ox type 2
#group hy type 1

mass 2 15.999
mass 1 1.008

pair_style      deepmd ../graph.pb
pair_coeff      * *

bond_style      none
angle_style     none
dihedral_style  none
improper_style  none
neigh_modify exclude none


neighbor        2.0 bin
neigh_modify    every 10 delay 0 check no

thermo          ${out_freq}
thermo          500
thermo_style 	custom step temp pe etotal epair emol press lx ly lz xy xz yz vol pxx pyy pzz pxy pxz pyz cella cellb cellc cellalpha cellbeta cellgamma

restart 	${out_freq} restart.lmp.${pid} restart2.lmp.${pid}
restart 	500 restart.lmp.${pid} restart2.lmp.${pid}
restart 	500 restart.lmp.0 restart2.lmp.${pid}
restart 	500 restart.lmp.0 restart2.lmp.0


include         in.dump
dump            myDump all atom ${out_freq2} dump.water.${pid}
dump            myDump all atom 500 dump.water.${pid}
dump            myDump all atom 500 dump.water.0
dump            myDump2 all dcd ${out_freq2} dump.dcd
dump            myDump2 all dcd 500 dump.dcd
dump_modify     myDump append yes
dump_modify     myDump2 append yes


timer           timeout 04:55:00 every 1000
New timer settings: style=normal  mode=nosync  timeout=04:55:00

fix             2 all nph aniso ${pressure} ${pressure} ${pressureDamp}
fix             2 all nph aniso 3039.75 ${pressure} ${pressureDamp}
fix             2 all nph aniso 3039.75 3039.75 ${pressureDamp}
fix             2 all nph aniso 3039.75 3039.75 1
fix             3 all temp/csvr ${temperature} ${temperature} ${tempDamp} ${seed}
fix             3 all temp/csvr 255 ${temperature} ${tempDamp} ${seed}
fix             3 all temp/csvr 255 255 ${tempDamp} ${seed}
fix             3 all temp/csvr 255 255 0.1 ${seed}
fix             3 all temp/csvr 255 255 0.1 745823
velocity 	all create ${temperature} ${seed} dist gaussian
velocity 	all create 255 ${seed} dist gaussian
velocity 	all create 255 745823 dist gaussian

run             400000

CITE-CITE-CITE-CITE-CITE-CITE-CITE-CITE-CITE-CITE-CITE-CITE-CITE

Your simulation uses code contributions which should be cited:

- USER-DEEPMD package:

@article{Wang_ComputPhysCommun_2018_v228_p178,
  author = {Wang, Han and Zhang, Linfeng and Han, Jiequn and E, Weinan},
  doi = {10.1016/j.cpc.2018.03.016},
  url = {https://doi.org/10.1016/j.cpc.2018.03.016},
  year = 2018,
  month = {jul},
  publisher = {Elsevier {BV}},
  volume = 228,
  journal = {Comput. Phys. Commun.},
  title = {{DeePMD-kit: A deep learning package for many-body potential energy representation and molecular dynamics}},
  pages = {178--184}
}

CITE-CITE-CITE-CITE-CITE-CITE-CITE-CITE-CITE-CITE-CITE-CITE-CITE

Neighbor list info ...
  update every 10 steps, delay 0 steps, check no
  max neighbors/atom: 2000, page size: 100000
  master list distance cutoff = 8
  ghost atom cutoff = 8
  binsize = 4, bins = 5 5 6
  1 neighbor lists, perpetual/occasional/extra = 1 0 0
  (1) pair deepmd, perpetual
      attributes: full, newton on
      pair build: full/bin
      stencil: full/bin/3d
      bin: standard
Per MPI rank memory allocation (min/avg/max) = 7.648 | 7.648 | 7.648 Mbytes
Step Temp PotEng TotEng E_pair E_mol Press Lx Ly Lz Xy Xz Yz Volume Pxx Pyy Pzz Pxy Pxz Pyz Cella Cellb Cellc CellAlpha CellBeta CellGamma 
       0          255   -175.65013   -143.64467   -175.65013            0    37630.855    19.991053    19.991053    20.800772            0            0            0    8312.8663    41406.567    41870.306     29615.69   -62.790736   -1049.5753   -448.09673    19.991053    19.991053    20.800772           90           90           90 
     500    250.08276   -162.55868   -131.17039   -162.55868            0   -613.26688    20.088912     19.99525    20.562084            0            0            0    8259.4358   -337.33647    340.82525   -1843.2894   -481.38919    -798.4962   -920.44261    20.088912     19.99525    20.562084           90           90           90 
    1000    263.53851   -161.63242   -128.55528   -161.63242            0   -310.71728    20.207776    20.086492    20.317764            0            0            0    8247.0484   -90.705978    300.28634   -1141.7322   -1693.0173   -155.26761    44.963292    20.207776    20.086492    20.317764           90           90           90 
    1500    252.50658   -161.86399   -130.17149   -161.86399            0    11030.884    20.274095    20.167696    20.300727            0            0            0    8300.5976    9108.4253     12462.11    11522.115     1672.219    -1971.153     993.6745    20.274095    20.167696    20.300727           90           90           90 
    2000    249.69116   -159.30706   -127.96792   -159.30706            0    -2269.184    20.198262    20.129997    20.360612            0            0            0    8278.4404   -4514.8519    2415.1324   -4707.8324    217.47144    275.32287    502.29385    20.198262    20.129997    20.360612           90           90           90 
    2500    260.02087    -159.5569   -126.92126    -159.5569            0     5116.883    20.003544    20.192447    20.499228            0            0            0    8280.0582    6338.2073    4270.8263    4741.6153    2456.0388    563.63479    527.68553    20.003544    20.192447    20.499228           90           90           90 
    3000    256.95777   -159.37624   -127.12506   -159.37624            0    4212.2467    19.979128    20.240996    20.677911            0            0            0    8362.0942    4918.6216    5502.2885    2215.8298   -428.79847   -1543.0671    707.56907    19.979128    20.240996    20.677911           90           90           90 
    3500    252.19579   -159.57718   -127.92368   -159.57718            0    2321.5281    20.142048    20.007677    20.568382            0            0            0    8288.9672    4248.9602      516.567    2199.0572   -582.13797    718.86415   -1545.5699    20.142048    20.007677    20.568382           90           90           90 
    4000    250.64892   -160.00481   -128.54546   -160.00481            0    3059.0132    20.356202    19.925193    20.485307            0            0            0    8308.8659     3053.068    1533.7328    4590.2388    255.19251    2689.7623   -2091.3998    20.356202    19.925193    20.485307           90           90           90 
    4500    252.84125    -160.3335   -128.59899    -160.3335            0    2792.2644    20.208692    20.054419     20.41829            0            0            0    8274.9934     5756.912    609.20317    2010.6781    711.04483   -23.200565   -18.797095    20.208692    20.054419     20.41829           90           90           90 
    5000    251.16972   -159.71658   -128.19187   -159.71658            0   -583.11998     20.05707    20.208632    20.465864            0            0            0    8295.3456   -87.406505   -3018.6327    1356.6793   -1960.6745    2827.4062   -607.59265     20.05707    20.208632    20.465864           90           90           90 
    5500    247.32262   -160.81849   -129.77663   -160.81849            0    6583.3663    20.014163     20.22345    20.509852            0            0            0    8301.4743    8839.6869    3161.8259    7748.5862    1083.3122    637.71109    2252.0047    20.014163     20.22345    20.509852           90           90           90 
    6000    255.29821   -160.28523   -128.24234   -160.28523            0    2865.9101    20.133244    20.117398     20.56968            0            0            0    8331.3063    3833.5098    2145.2356     2618.985   -2110.4075   -1060.3087   -1164.4252    20.133244    20.117398     20.56968           90           90           90 
    6500    263.45255    -162.0909   -129.02455    -162.0909            0    5346.6991    20.212934    19.963343    20.486604            0            0            0    8266.7081     4540.637    7035.0896    4464.3706   -641.31695    3622.0388    1082.3103    20.212934    19.963343    20.486604           90           90           90 
    7000    256.81877   -159.18304    -126.9493   -159.18304            0    4843.9509    20.246719    20.152294    20.447073            0            0            0    8342.7706    2026.5918    6668.7506    5836.5104   -318.40041    -1487.433    417.86394    20.246719    20.152294    20.447073           90           90           90 
    7500    255.77696   -158.87804   -126.77506   -158.87804            0    5549.7904    20.167068    20.331211    20.350163            0            0            0    8343.9926    7492.0287    4241.6574    4915.6851    1364.3089     1530.542   -1596.0512    20.167068    20.331211    20.350163           90           90           90 
    8000    251.48873   -160.09991   -128.53516   -160.09991            0     4377.186    20.112776    20.141749    20.368903            0            0            0     8251.575    3686.5211    3888.5635    5556.4732   -2436.5873    840.64113    -1631.282    20.112776    20.141749    20.368903           90           90           90 
    8500    243.90839   -160.04434   -129.43101   -160.04434            0    2022.6609    20.213086    20.006709    20.720136            0            0            0    8379.1675    1385.5372    4227.3182    455.12745   -1527.4705     244.2548    969.10833    20.213086    20.006709    20.720136           90           90           90 
    9000    265.13635   -160.05546   -126.77777   -160.05546            0    2209.9347    20.051485    20.038729    20.789486            0            0            0    8353.3461    820.05045    2660.8421    3148.9115    1124.9273    872.05256    1181.9999    20.051485    20.038729    20.789486           90           90           90 
    9500     261.2917   -159.90875   -127.11361   -159.90875            0    3094.0237    19.988447    20.213496    20.694109            0            0            0    8361.1733    3511.1627    3916.6247    1854.2838    209.62237    1829.7424    1138.1313    19.988447    20.213496    20.694109           90           90           90 
   10000    260.14153   -158.76293   -126.11215   -158.76293            0    2841.5335    20.109029    20.169234    20.342701            0            0            0    8250.6683   -168.71488    6577.4359    2115.8795   -318.49205    1340.3409     1424.732    20.109029    20.169234    20.342701           90           90           90 
   10500    269.54633   -158.78432   -124.95313   -158.78432            0    2045.7295    20.446003    20.183858      20.2539            0            0            0    8358.3637    1919.4917   -694.52313    4912.2201   -1599.1241    123.37856   -156.04263    20.446003    20.183858      20.2539           90           90           90 
   11000    263.51036   -159.76957   -126.69596   -159.76957            0    5798.6686    20.352629    20.113724    20.330159            0            0            0    8322.4992    7106.4987    5724.4255    4565.0814    180.68782   -839.41147    45.830893    20.352629    20.113724    20.330159           90           90           90 
   11500     252.9619   -160.14615   -128.39649   -160.14615            0    4238.3771    19.970925    20.083567    20.443608            0            0            0    8199.6738    9549.0209    754.66483    2411.4455    1120.0305   -1676.3302   -1551.6371    19.970925    20.083567    20.443608           90           90           90 
   12000    248.84795   -158.04999   -126.81668   -158.04999            0    3992.3188    20.103483    20.255095    20.692362            0            0            0    8425.8876    5467.0989    1681.6647    4828.1929   -851.04238    2301.5708    408.13861    20.103483    20.255095    20.692362           90           90           90 
   12500    259.66446   -159.18668   -126.59577   -159.18668            0    2071.2976    20.213699    20.062399    20.630248            0            0            0    8366.2936    3961.9071     451.8943    1800.0915   -1015.7054     155.4479   -2847.6765    20.213699    20.062399    20.630248           90           90           90 
   13000    262.19629    -158.8862   -125.97753    -158.8862            0    2681.6535    20.209448    19.953357    20.401381            0            0            0     8226.782    1683.4161     2358.461    4003.0833   -405.36427    3397.7407    1381.4357    20.209448    19.953357    20.401381           90           90           90 
   13500      256.956   -160.55341   -128.30245   -160.55341            0    2927.7552    20.249111    20.197713    20.388289            0            0            0    8338.5194    1662.3321    1831.4114    5289.5221    603.09413   -2451.9724   -3732.2577    20.249111    20.197713    20.388289           90           90           90 
   14000    247.37114   -159.94327   -128.89532   -159.94327            0    2064.2429    20.152937    20.310682    20.402493            0            0            0    8351.1463    1697.8257    2753.4607    1741.4422   -1395.7121   -738.09412   -1073.0415    20.152937    20.310682    20.402493           90           90           90 
   14500    245.69859   -160.52001   -129.68198   -160.52001            0    1073.7944    20.093069    20.107702    20.458425            0            0            0    8265.7243    119.94941   -1010.1237    4111.5574    1424.3642    959.56895   -2218.1715    20.093069    20.107702    20.458425           90           90           90 
   15000     258.6615   -159.69714   -127.23212   -159.69714            0     48.34516    20.188949    19.945737    20.616818            0            0            0     8302.052   -2518.3128   -5.3965625    2668.7449   -1061.3838   -116.07059   -2851.0662    20.188949    19.945737    20.616818           90           90           90 
   15500    244.98749   -158.26427    -127.5155   -158.26427            0    4014.0211      20.2405    20.020996    20.651509            0            0            0    8368.7134    1361.9535    8335.9055    2344.2042   -664.61617    1282.8239    770.63311      20.2405    20.020996    20.651509           90           90           90 
   16000    262.71647   -160.05981   -127.08585   -160.05981            0    2469.3119    20.071257    20.155182    20.377089            0            0            0    8243.3441    2212.7241     3301.182    1894.0295    438.15164   -218.53947    196.70597    20.071257    20.155182    20.377089           90           90           90 
   16500    264.10361    -160.3367   -127.18863    -160.3367            0    2366.1246    20.247757    20.351157    20.289772            0            0            0    8360.7107    4781.6033   -338.41885    2655.1892   -425.25552    -533.1195   -1354.2254    20.247757    20.351157    20.289772           90           90           90 
   17000    257.39403   -159.56029   -127.25435   -159.56029            0    1661.1492    20.269741    20.159058    20.240874            0            0            0     8270.803    2470.1585    3162.7623   -649.47337    50.088076    2009.4127    434.65368    20.269741    20.159058    20.240874           90           90           90 
   17500     246.6762   -158.34914   -127.38841   -158.34914            0    1693.5373    20.171728     20.06212    20.393829            0            0            0    8253.1305    3217.5809   -1201.8924    3064.9234    453.79671   -1348.1615   -351.16099    20.171728     20.06212    20.393829           90           90           90 
   18000      253.355    -161.2744   -129.47541    -161.2744            0    1914.2607    20.049971    20.206691    20.592331            0            0            0    8342.8505    599.90149      4284.96    857.92076    334.29507    1201.1568   -223.73955    20.049971    20.206691    20.592331           90           90           90 
   18500    250.11546   -160.45138   -129.05898   -160.45138            0    4421.2942    20.000549    20.180101    20.586438            0            0            0     8308.956     5123.569    5397.9596    2742.3539    445.23667   -720.05718    706.94096    20.000549    20.180101    20.586438           90           90           90 
   19000    251.17464   -160.36155   -128.83622   -160.36155            0    3611.6398     20.19231    20.090689    20.447013            0            0            0    8294.8915    3770.4481    5021.9349    2042.5366    797.68437    2853.1295   -209.13748     20.19231    20.090689    20.447013           90           90           90 
   19500     263.0766   -160.63883   -127.61966   -160.63883            0    6353.2391     20.40153    19.975973    20.283597            0            0            0    8266.3855    7797.2075     6827.031    4435.4788    589.90254    43.831141   -3508.8271     20.40153    19.975973    20.283597           90           90           90 
   20000     244.7762   -160.24582   -129.52357   -160.24582            0    2650.7852    20.337837    20.091829    20.358142            0            0            0    8318.8322    2560.4958    2916.2189     2475.641   -517.93707    1010.7637    291.63911    20.337837    20.091829    20.358142           90           90           90 
   20500    256.14702   -161.42246   -129.27304   -161.42246            0    2628.6801    19.991664    20.144345    20.619377            0            0            0    8303.8145    5676.3551    255.47216     1954.213     19.88248    2203.5768    27.471579    19.991664    20.144345    20.619377           90           90           90 
   21000    252.40467   -160.24209   -128.56238   -160.24209            0    841.85629    19.850411     20.04201    20.781568            0            0            0    8267.7836    1652.0372    1478.0187   -604.48704   -871.38739   -878.20348   -940.50897    19.850411     20.04201    20.781568           90           90           90 
   21500    242.18688   -160.78066    -130.3834   -160.78066            0    3007.5476     20.09114    20.109149    20.713153            0            0            0    8368.4397    2361.3305    3917.7943     2743.518    857.81475     1745.081   -92.084279     20.09114    20.109149    20.713153           90           90           90 
   22000    257.23158   -160.00847   -127.72292   -160.00847            0    1012.8679    20.291067    20.176152    20.405384            0            0            0    8353.8755    -948.9399    2259.6728    1727.8707   -874.58356     532.9392     1288.373    20.291067    20.176152    20.405384           90           90           90 
   22500    250.99501   -159.38991   -127.88713   -159.38991            0    1588.1589    20.249319     20.08825    20.155817            0            0            0      8198.85    1094.4539    2731.5752    938.44761    1108.7316    6524.2207    3181.3749    20.249319     20.08825    20.155817           90           90           90 
   23000    247.40386   -160.84609   -129.79403   -160.84609            0    3796.2563    20.262995     20.08276    20.392038            0            0            0     8298.272    2485.2399    5044.2056    3859.3234    1086.6515   -2976.3484   -1453.1319    20.262995     20.08276    20.392038           90           90           90 
   23500    250.38649    -159.3074   -127.88099    -159.3074            0    1751.0289    20.200806    20.053497    20.675839            0            0            0    8375.7164    2374.9443    1339.3964    1538.7459    1538.4195    208.11727   -3067.8329    20.200806    20.053497    20.675839           90           90           90 
   24000    254.66755   -158.04221   -126.07848   -158.04221            0    2655.9342    19.983105    20.112401    20.624207            0            0            0    8289.0383   -248.76721    2233.9018    5982.6681     255.2356   -684.03597    2046.3399    19.983105    20.112401    20.624207           90           90           90 
   24500    261.90691   -159.69398   -126.82163   -159.69398            0    2600.8001    19.967945    20.277561    20.465323            0            0            0    8286.4341    2829.2629    2404.3915    2568.7458   -918.08248    1096.1303    523.31647    19.967945    20.277561    20.465323           90           90           90 
   25000    256.77669   -159.29056   -127.06211   -159.29056            0    2926.8255     20.15354    20.249163    20.340481            0            0            0    8300.7939    480.77797    2453.0926     5846.606   -104.75579    42.493993   -2284.9775     20.15354    20.249163    20.340481           90           90           90 
   25500    255.25785   -158.80367   -126.76585   -158.80367            0     3578.498    20.382484    20.112047    20.410926            0            0            0     8367.122    1241.0051    3248.0291    6246.4599    1062.7152   -300.64021   -1684.0521    20.382484    20.112047    20.410926           90           90           90 
   26000    256.83965   -158.09507   -125.85871   -158.09507            0    5558.7281    20.280903    19.990403    20.572832            0            0            0    8340.7077    3330.8403    10254.686    3090.6579   -3215.2779   -319.66692   -1915.0603    20.280903    19.990403    20.572832           90           90           90 
   26500    244.98207   -159.51846   -128.77037   -159.51846            0    1699.7054    20.112156    20.025077    20.658746            0            0            0    8320.2579    806.36496    4078.4593    214.29192   -7.3757838    2899.8448    1518.1676    20.112156    20.025077    20.658746           90           90           90 
   27000    262.54291   -159.29247   -126.34029   -159.29247            0    3768.4149    20.064019    20.121468    20.604141            0            0            0    8318.2522    3264.3238    4648.4327    3392.4883   -1651.0409   -233.15593   -1412.2573    20.064019    20.121468    20.604141           90           90           90 
   27500    255.70558   -159.58791   -127.49389   -159.58791            0    1426.5896    20.187528    20.201612    20.483111            0            0            0    8353.4347    1497.0327    2025.4576    757.27845    186.86879    4638.4553    201.44504    20.187528    20.201612    20.483111           90           90           90 
   28000    253.31675   -160.34988   -128.55569   -160.34988            0    7301.0803    20.223845    20.219091    20.347019            0            0            0     8320.054    7162.2615    7561.5824    7179.3969    620.99296    1188.9513     3551.444    20.223845    20.219091    20.347019           90           90           90 
   28500    256.62538   -159.14828   -126.93882   -159.14828            0    4993.7053    20.102209    20.180638    20.403167            0            0            0    8277.0629    6352.1909    4094.6493    4534.2758    1865.5261    1357.7644   -1163.8407    20.102209    20.180638    20.403167           90           90           90 
   29000    251.40742   -158.51182   -126.95727   -158.51182            0    2641.8164    20.106218    20.213833    20.633207            0            0            0    8385.8254    3018.5246    3267.5423    1639.3825   -1354.9743    245.10904    1007.0502    20.106218    20.213833    20.633207           90           90           90 
   29500    264.83156   -159.63546   -126.39603   -159.63546            0    3980.9642    20.116686    20.035637    20.657769            0            0            0    8326.1263    1440.7323    4827.5202    5674.6401    617.63086   -2833.6369    848.08262    20.116686    20.035637    20.657769           90           90           90 
   30000     270.2134   -158.33923   -124.42431   -158.33923            0    3018.3135    20.297687    19.950794    20.594933            0            0            0    8340.0203    3347.7949    2148.3243    3558.8214    87.118645   -1946.9251   -1290.9413    20.297687    19.950794    20.594933           90           90           90 
   30500    255.11967   -158.11137   -126.09089   -158.11137            0    3898.5267    20.396202    20.162167    20.552822            0            0            0    8451.9704    4311.5228    3740.8833    3643.1739     1801.555   -3120.0276    1001.4888    20.396202    20.162167    20.552822           90           90           90 
   31000    259.69621   -157.97023   -125.37535   -157.97023            0    3439.9396    20.036362    20.262672    20.410136            0            0            0    8286.3156    5168.5325    1831.4589    3319.8272    812.86053   -830.50098   -1124.8503    20.036362    20.262672    20.410136           90           90           90 
   31500    252.07452   -158.32902   -126.69074   -158.32902            0    2325.4592    20.045712    20.202436    20.585701            0            0            0    8336.6369    1024.9537    5682.0482    269.37562    2653.2641   -758.68522    1807.3895    20.045712    20.202436    20.585701           90           90           90 
   32000    247.20245   -158.89794   -127.87116   -158.89794            0      2734.95    20.300712    20.002422     20.69341            0            0            0     8402.837    1216.4568     4226.861    2761.5322    337.95746   -874.09815    2088.8819    20.300712    20.002422     20.69341           90           90           90 
   32500    255.43267   -159.17082   -127.11105   -159.17082            0    2223.2873    20.354032    19.985905    20.648636            0            0            0    8399.7362   -123.61154    8050.7405   -1257.2669    1059.7171    -905.0008   -730.09587    20.354032    19.985905    20.648636           90           90           90 
   33000    261.48945   -159.63528   -126.81532   -159.63528            0     5264.618    20.031218     20.12547    20.344345            0            0            0     8201.572    4089.9143    3338.3358    8365.6041   -15.739138   -2072.0813    277.73278    20.031218     20.12547    20.344345           90           90           90 
   33500    256.51589   -160.12637   -127.93065   -160.12637            0    3010.5317    20.078504    20.420905    20.319244            0            0            0    8331.3214    5796.8143   -377.51723    3612.2979    283.17224    126.01641   -2324.5797    20.078504    20.420905    20.319244           90           90           90 
   34000    242.57696   -160.15512    -129.7089   -160.15512            0    3140.5985    20.289467     20.23937    20.411604            0            0            0     8381.944      4414.46    2050.8767    2956.4587    28.444338   -2870.5736    307.62586    20.289467     20.23937    20.411604           90           90           90 
   34500    243.27683   -161.27562   -130.74155   -161.27562            0     3232.822    20.291244    19.913714    20.498552            0            0            0    8282.9325    2168.2803    5683.5757    1846.6101   -238.09997   -1298.2428   -583.71277    20.291244    19.913714    20.498552           90           90           90 
   35000    246.00412   -162.28378   -131.40741   -162.28378            0    1098.3253    20.113456    20.047115     20.56903            0            0            0    8293.7778    3438.5957   -1011.2773    867.65734    85.043803     372.2901     -19.2824    20.113456    20.047115     20.56903           90           90           90 
   35500    252.26212   -161.31386   -129.65204   -161.31386            0    1681.1171    20.029725    20.254917    20.545039            0            0            0    8335.1311    4686.0549   -1110.5848    1467.8813    303.86707    95.448446    1566.5069    20.029725    20.254917    20.545039           90           90           90 
   36000    258.96387   -160.76623   -128.26326   -160.76623            0   -1249.2107    20.167727    20.195071    20.527023            0            0            0    8360.4242    -180.4074   -2033.4369   -1533.7877   -101.09825   -50.776774    1488.2173    20.167727    20.195071    20.527023           90           90           90 
   36500    252.30698   -159.38466   -127.71721   -159.38466            0    5276.3549    20.224868    19.959663    20.327244            0            0            0    8205.7332    4621.8192    3735.5369    7471.7086   -2008.6294    1586.0165    -118.3515    20.224868    19.959663    20.327244           90           90           90 
   37000    261.18198   -160.92861   -128.14724   -160.92861            0    2099.6684    20.323803    20.153422    20.458938            0            0            0    8379.8617    3478.5984    3250.1374   -429.73056   -438.45694   -3613.5131   -1536.7609    20.323803    20.153422    20.458938           90           90           90 
   37500    257.38207   -160.58552   -128.28108   -160.58552            0    5801.3427    20.154091    20.200924    20.493157            0            0            0    8343.4048    8690.6419    3101.7013    5611.6848   -2054.5216    193.15501    1285.4962    20.154091    20.200924    20.493157           90           90           90 
   38000    260.91045   -159.35979    -126.6125   -159.35979            0    3808.3229    20.074873    20.131221    20.560652            0            0            0    8309.2113    4860.5197    2356.7373    4207.7119   -246.23513   -1498.3244    308.36637    20.074873    20.131221    20.560652           90           90           90 
   38500    258.60754   -159.49529   -127.03704   -159.49529            0    2733.9579    20.195814    20.078443    20.628399            0            0            0    8364.8266    3851.5694    2267.8761    2082.4282   -1081.5326   -707.72356    665.68169    20.195814    20.078443    20.628399           90           90           90 
   39000      244.214   -158.81366   -128.16197   -158.81366            0    1492.7346    20.184624    20.060099    20.540651            0            0            0    8317.0235    3273.5587    671.27044    533.37461   -2221.6626   -2771.1984   -291.48961    20.184624    20.060099    20.540651           90           90           90 
   39500    259.46604   -159.97899   -127.41299   -159.97899            0    4530.5645    20.186826    20.166513     20.37114            0            0            0    8293.0477    4882.6272    4096.5793    4612.4871    89.192668    2371.2631   -2325.8187    20.186826    20.166513     20.37114           90           90           90 
   40000    250.22601    -159.6048   -128.19854    -159.6048            0   -2664.2236     20.22947    20.340258    20.376802            0            0            0     8384.496   -795.89401   -5221.4737   -1975.3031   -620.39535   -2949.0382   -1417.5188     20.22947    20.340258    20.376802           90           90           90 
   40500    247.65171   -159.61251   -128.52935   -159.61251            0   -146.33181    20.137363     20.15293    20.476318            0            0            0      8309.84    712.62277    727.14923   -1878.7674    665.12436   -1916.1757    1114.3781    20.137363     20.15293    20.476318           90           90           90 
   41000    247.64865   -159.94434   -128.86156   -159.94434            0    1734.7126    20.192822    19.919825     20.72458            0            0            0    8336.2024    1098.8071    2660.8359    1444.4948    241.30732    1763.5214    989.99806    20.192822    19.919825     20.72458           90           90           90 
   41500    253.67643   -159.08332   -127.24399   -159.08332            0    2178.6257    20.130196    19.921216    20.693525            0            0            0    8298.4753    2416.7538     5133.473   -1014.3498    1728.0304   -822.47926   -1362.8214    20.130196    19.921216    20.693525           90           90           90 
   42000     248.4109   -158.93048   -127.75203   -158.93048            0    1500.7438    20.159322    20.244851    20.531668            0            0            0    8379.4348    1735.1423    1175.4242     1591.665   -764.69588    958.22821   -169.65588    20.159322    20.244851    20.531668           90           90           90 
   42500    253.71203    -158.5453    -126.7015    -158.5453            0     4356.804    20.153609    20.321727    20.249945            0            0            0    8293.4892    2775.0697    5300.4082    4994.9341    -5.316272   -55.986782   -3246.1246    20.153609    20.321727    20.249945           90           90           90 
   43000    258.80024   -159.12694    -126.6445   -159.12694            0    4035.2101     20.23628    20.246949    20.257044            0            0            0    8299.7752    1768.8022    6371.0923    3965.7357     700.8124    1357.5703   -833.26677     20.23628    20.246949    20.257044           90           90           90 
   43500    264.12851   -161.11177   -127.96058   -161.11177            0    1220.7401    20.258851    20.103406    20.552536            0            0            0    8370.4706    1575.1617    105.53581     1981.523   -1449.7837      1898.39   -143.94695    20.258851    20.103406    20.552536           90           90           90 
   44000    254.19186   -159.68466   -127.78063   -159.68466            0    1945.3985    20.116306    20.027531    20.776449            0            0            0    8370.4145    4030.3393    796.58734    1009.2689    900.98286   -2738.8163    844.71555    20.116306    20.027531    20.776449           90           90           90 
   44500    252.60644   -159.18931   -127.48427   -159.18931            0    3338.4019    19.971515    20.069097    20.653103            0            0            0     8277.976    3712.1729    4223.9698     2079.063   -2007.9489    2446.5657    683.04563    19.971515    20.069097    20.653103           90           90           90 
   45000    246.49994   -161.13031   -130.19171   -161.13031            0    3567.2335    20.119154    20.230481    20.493067            0            0            0    8341.0913    6638.9142    390.64144    3672.1447    990.83413     80.80673   -1269.0304    20.119154    20.230481    20.493067           90           90           90 
   45500    248.57686   -160.10693   -128.90765   -160.10693            0     1352.217    20.297578    20.178513    20.229261            0            0            0    8285.3985    1603.1014    1321.8086    1131.7409    668.45923    817.46216   -3935.4955    20.297578    20.178513    20.229261           90           90           90 
   46000    261.86251   -161.45073   -128.58395   -161.45073            0    3022.0181     20.22773    20.118807    20.248167            0            0            0    8240.1493    3176.0624    2103.7327    3786.2593   -438.93485   -1353.1823   -791.20035     20.22773    20.118807    20.248167           90           90           90 
   46500    253.03251   -160.12252     -128.364   -160.12252            0    1494.6321    20.094792    20.262858    20.641227            0            0            0    8404.6523    1007.5758    2711.2918    765.02848    180.15988    -1586.585   -567.55308    20.094792    20.262858    20.641227           90           90           90 
   47000    248.77231   -158.51971    -127.2959   -158.51971            0    3974.8581    19.974996    20.140049    20.628723            0            0            0    8298.8819     5891.829    629.30957    5403.4356    793.42469    2087.8413    429.98787    19.974996    20.140049    20.628723           90           90           90 
   47500    258.78747     -158.791   -126.31017     -158.791            0    3565.2264    20.167629    20.068601    20.656898            0            0            0    8360.5924    3270.4129    3178.3626    4246.9037    74.596788    766.83013    519.16896    20.167629    20.068601    20.656898           90           90           90 
   48000    259.40135   -159.69488     -127.137   -159.69488            0    726.01265    20.325231     19.99078    20.580615            0            0            0    8362.2582    1901.4601     444.3301   -167.75224    390.27375    2300.9296   -1657.4236    20.325231     19.99078    20.580615           90           90           90 
   48500     255.2929   -159.50401   -127.46179   -159.50401            0    557.18661    20.308641    20.049005    20.448183            0            0            0    8325.8469    -2806.667     3076.234    1401.9929   -131.95439   -1030.7853   -63.604764    20.308641    20.049005    20.448183           90           90           90 
   49000    265.69819   -158.99807   -125.64987   -158.99807            0    3670.6858    20.157172    20.230639    20.326514            0            0            0    8288.9995    4099.0978    2243.9199    4669.0397   -233.68876     2354.323    1719.6297    20.157172    20.230639    20.326514           90           90           90 
   49500    269.01204   -157.20246   -123.43832   -157.20246            0    3270.5562    20.095771    20.347486    20.446205            0            0            0    8360.4209    3320.9332    2337.9568    4152.7785    3465.6002    1996.5649   -397.64376    20.095771    20.347486    20.446205           90           90           90 
   50000    268.84699    -159.3094   -125.56599    -159.3094            0    2969.1534    20.127434    20.181924     20.62644            0            0            0    8378.6736    5649.3615    2068.6266    1189.4721   -206.83441    -1869.521    4610.7736    20.127434    20.181924     20.62644           90           90           90 
   50500    251.35707   -158.97656   -127.42833   -158.97656            0    3554.7292    20.255819    19.952364     20.62505            0            0            0    8335.6445    1364.3087    4167.6393    5132.2397   -1784.8917    1638.8414   -1826.2393    20.255819    19.952364     20.62505           90           90           90 
   51000     257.7479   -159.09999   -126.74964   -159.09999            0    7259.8782    20.220552    19.952597    20.476767            0            0            0    8261.4037    7075.9628    8009.4958     6694.176    688.99381   -695.33646    3333.9528    20.220552    19.952597    20.476767           90           90           90 
   51500    260.76039   -160.41141   -127.68296   -160.41141            0    1951.6843    20.223486    20.296583    20.343155            0            0            0    8350.2074    4982.8736   -1930.5313    2802.7107    104.97015   -1656.9633   -2147.8566    20.223486    20.296583    20.343155           90           90           90 
   52000    241.44453   -159.71628   -129.41219   -159.71628            0    4199.3143    20.151203    20.363137    20.236688            0            0            0     8303.957    3408.1128    3224.3194    5965.5108   -313.40665    306.44751    189.97232    20.151203    20.363137    20.236688           90           90           90 
   52500    259.84096   -159.42088   -126.80783   -159.42088            0    2461.8625    20.105537    20.184777    20.418628            0            0            0    8286.4056    288.87268    1102.1919    5994.5229   -333.15983   -2227.8948   -1434.2781    20.105537    20.184777    20.418628           90           90           90 
   53000    247.38011   -159.27432   -128.22524   -159.27432            0    1486.9839    20.155189    20.019458    20.680601            0            0            0    8344.5391    1839.0281    2243.4521    378.47165     1013.402   -66.216808    273.93915    20.155189    20.019458    20.680601           90           90           90 
   53500    247.84636   -158.73062   -127.62303   -158.73062            0    2399.6059    20.224003    19.928625    20.657662            0            0            0    8325.7934    371.82312    3881.0913    2945.9033   -1863.5887    1504.2002   -518.22073    20.224003    19.928625    20.657662           90           90           90 
   54000    252.89848   -158.57283   -126.83114   -158.57283            0     3948.622    20.192902    20.082454    20.486078            0            0            0    8307.5763    5018.3689      5388.66     1438.837    1316.7144    1399.9432   -192.97925    20.192902    20.082454    20.486078           90           90           90 
   54500       245.24   -160.47909   -129.69863   -160.47909            0    2236.1237    20.108839    20.223718    20.365886            0            0            0    8282.3065    2976.1132    209.23168    3523.0262    107.72382    2735.2838    -1250.673    20.108839    20.223718    20.365886           90           90           90 
   55000    258.66599   -161.00568    -128.5401   -161.00568            0    5064.2409    20.114306    20.243014    20.469028            0            0            0    8334.4595    4697.6534    7460.8526    3034.2167    -54.18247    2067.3037   -558.96589    20.114306    20.243014    20.469028           90           90           90 
   55500    254.23633   -161.43137   -129.52176   -161.43137            0    1842.3641    20.188749    20.096809    20.610674            0            0            0    8362.3572   -147.15242    4784.8181    889.42667    636.90027    1254.8641   -651.86224    20.188749    20.096809    20.610674           90           90           90 
   56000    259.57463   -158.67889   -126.09927   -158.67889            0    5517.9844    20.175544    19.957219    20.512768            0            0            0    8259.4194    5064.7036    9416.8368    2072.4128   -1403.6638    1454.4445    533.97431    20.175544    19.957219    20.512768           90           90           90 
   56500    258.60633   -159.51569    -127.0576   -159.51569            0    4738.1051    20.233777    20.255065    20.483165            0            0            0     8394.748     4107.126     3991.456    6115.7334   -1649.9259     2196.752    700.92033    20.233777    20.255065    20.483165           90           90           90 
   57000    265.60389   -160.61611   -127.27974   -160.61611            0    7281.8337    20.143542    20.225669    20.269599            0            0            0    8258.1712    4320.3112    9934.0946    7591.0955    717.91982   -1412.3625    192.18147    20.143542    20.225669    20.269599           90           90           90 
   57500    247.91731   -159.64267   -128.52617   -159.64267            0    2523.1041    20.209275    20.104352    20.422033            0            0            0    8297.3571     4792.576    3033.7376   -257.00123   -19.216598    1367.3844   -991.50314    20.209275    20.104352    20.422033           90           90           90 
   58000    252.65252   -159.91774   -128.20692   -159.91774            0    1899.6609    20.195243    20.049933     20.71691            0            0            0     8388.552    724.48984     3382.464    1592.0288   -264.72021    463.77795   -2844.5863    20.195243    20.049933     20.71691           90           90           90 
   58500     251.3648   -159.20403   -127.65483   -159.20403            0    2919.2693    19.939212    20.034778    20.707927            0            0            0    8272.3549     1714.973    4090.8979    2951.9369    -1352.761    8.4000826    -984.3767    19.939212    20.034778    20.707927           90           90           90 
   59000    264.92038   -159.67485   -126.42427   -159.67485            0    5142.9465    20.032482    20.223255    20.676262            0            0            0    8376.4084     8118.414    4993.7997    2316.6258    570.73672    288.82634    2670.2597    20.032482    20.223255    20.676262           90           90           90 
   59500    259.71723     -159.228   -126.63047     -159.228            0    1606.4481    20.234949    20.291374    20.455164            0            0            0     8398.786      7288.99   -3125.7286     656.0829   -453.08357    3113.6088     523.6798    20.234949    20.291374    20.455164           90           90           90 
   60000    249.17686   -159.53811   -128.26353   -159.53811            0    1994.4207    20.322102    20.099393     20.20122            0            0            0    8251.4291    1145.2703    2451.7044    2386.2874    108.24414   -135.93443    1458.9614    20.322102    20.099393     20.20122           90           90           90 
   60500    247.85211   -160.44316   -129.33484   -160.44316            0    4523.1752    20.304559    20.098853    20.374551            0            0            0    8314.8204     6602.519     2925.248    4041.7586   -795.94349   -98.089141    113.39666    20.304559    20.098853    20.374551           90           90           90 
   61000     251.6663   -158.94342   -127.35638   -158.94342            0    2754.2675    20.170036     20.20719    20.770264            0            0            0    8465.5389    1396.2606    3534.9375    3331.6045   -758.42966     1370.268   -282.52566    20.170036     20.20719    20.770264           90           90           90 
   61500       264.92   -160.31462   -127.06409   -160.31462            0    6599.8866    19.908235    20.067354    20.742848            0            0            0    8286.8839    4413.3475     10183.78    5202.5325   -656.99594    1312.9857   -249.72824    19.908235    20.067354    20.742848           90           90           90 
   62000    254.57584   -158.81318   -126.86096   -158.81318            0    5202.2093    20.055956    20.105467    20.602106            0            0            0    8307.4773    7149.7312    3051.9788     5404.918   -985.43597    -778.6325    373.46662    20.055956    20.105467    20.602106           90           90           90 
   62500    249.41796    -159.1135   -127.80865    -159.1135            0    5563.7377    20.296715    20.129879    20.463995            0            0            0     8360.983    6132.3687    6033.4778    4525.3665   -925.99062    493.09403   -1569.6635    20.296715    20.129879    20.463995           90           90           90 
   63000    260.96116   -157.97832   -125.22467   -157.97832            0    3578.6542    20.303321    20.152168    20.352814            0            0            0    8327.4747    3668.4641    1959.2735     5108.225    995.70915   -63.213272    411.30772    20.303321    20.152168    20.352814           90           90           90 
   63500    248.77295   -159.39917   -128.17528   -159.39917            0    1331.6538     20.11012    20.220141    20.480715            0            0            0    8328.0621    1574.8753    1724.1848    695.90123   -1024.2749   -1852.7024    1893.4092     20.11012    20.220141    20.480715           90           90           90 
   64000    259.91576   -159.26511   -126.64267   -159.26511            0    3803.9454    20.010679    20.107298    20.602754            0            0            0    8289.7381     718.3082    7077.7115    3615.8166   -507.40049   -130.68037    1354.6091    20.010679    20.107298    20.602754           90           90           90 
   64500    262.60013   -160.37122   -127.41186   -160.37122            0    2294.9139    20.156057    20.076334    20.579606            0            0            0    8327.7376    6958.8293     934.5285   -1008.6163    2260.3098    536.10717    105.40106    20.156057    20.076334    20.579606           90           90           90 
   65000    252.31887   -161.72976   -130.06081   -161.72976            0    1792.3432    20.387707    20.030445    20.424517            0            0            0    8340.8591    433.50268    2088.6714    2854.8556   -907.36667     1630.647   -997.96134    20.387707    20.030445    20.424517           90           90           90 
   65500    259.79603   -161.23421    -128.6268   -161.23421            0    4686.6431    20.275547    20.117949    20.231261            0            0            0    8252.3802    2931.5597    4081.3942    7046.9754    227.50983     1295.104    1414.4294    20.275547    20.117949    20.231261           90           90           90 
   66000    265.05494   -159.40634   -126.13887   -159.40634            0    6160.9098     19.97274    20.379821    20.314613            0            0            0    8268.8778    9805.4989    2686.8115     5990.419   -827.79461    166.63256    187.82335     19.97274    20.379821    20.314613           90           90           90 
   66500    255.66249   -158.34013   -126.25152   -158.34013            0    1401.2582    20.001531    20.458507    20.682332            0            0            0    8463.2404    2436.8847    895.53168    871.35816   -705.19455   -111.40769   -232.89195    20.001531    20.458507    20.682332           90           90           90 
   67000    246.97083   -159.12107   -128.12337   -159.12107            0    9037.9115    20.096731    19.968824    20.627848            0            0            0    8278.1222    10077.889    7622.7852    9413.0605     1135.229   -1154.0628   -2505.9846    20.096731    19.968824    20.627848           90           90           90 
   67500    254.44597   -160.31239   -128.37647   -160.31239            0    2157.3182    20.274369    19.909007     20.56804            0            0            0     8302.136    4010.6685    3367.3011   -906.01512    1253.5224   -1585.7812    946.03251    20.274369    19.909007     20.56804           90           90           90 
   68000    248.63683   -160.27137   -129.06457   -160.27137            0    1812.2045    20.263243    20.089945     20.41406            0            0            0    8310.3074   -287.74857    2724.1352    3000.2268   -139.27238   -356.48983   -706.63406    20.263243    20.089945     20.41406           90           90           90 
   68500    265.24466   -160.07608    -126.7848   -160.07608            0    5518.2003    20.125275    20.177677     20.32058            0            0            0    8251.8073    5914.7051    6578.2745    4061.6213   -582.31534   -1133.8783    -1588.472    20.125275    20.177677     20.32058           90           90           90 
   69000    244.55779   -159.82211   -129.12727   -159.82211            0    251.13997    20.191207    20.240528    20.460882            0            0            0    8361.9677   -721.15991    1830.6008   -356.02098    1020.0791    1149.9277     1579.644    20.191207    20.240528    20.460882           90           90           90 
   69500    252.47124   -161.10434   -129.41627   -161.10434            0    5261.5827    20.177408    20.106717    20.471755            0            0            0    8305.4205    3398.1679    5708.3405    6678.2398   -429.46343    353.46074   -2079.6164    20.177408    20.106717    20.471755           90           90           90 
   70000    257.07458   -160.65957   -128.39373   -160.65957            0     3440.807    20.068867    20.123485    20.523819            0            0            0    8288.6582    2388.0463    3607.5217    4326.8531     -649.365     644.8102    601.46976    20.068867    20.123485    20.523819           90           90           90 
   70500    247.68236   -160.16287   -129.07586   -160.16287            0     2886.049    20.077705    20.189241    20.572696            0            0            0    8339.2166    3664.1502    1887.5601    3106.4367    2299.7813   -3539.3331    98.713195    20.077705    20.189241    20.572696           90           90           90 
   71000    248.96079   -159.60755   -128.36008   -159.60755            0    4627.8077    20.233892    20.039906    20.442488            0            0            0     8289.128    3935.7772    5310.0105    4637.6353    1445.9184    1424.6497    2092.2185    20.233892    20.039906    20.442488           90           90           90 
   71500     256.8136   -160.75017   -128.51709   -160.75017            0    2555.7236    20.339523    20.022882    20.306922            0            0            0    8270.1131    897.82168    3737.5448    3031.8043    117.30255   -1205.8066    1233.4967    20.339523    20.022882    20.306922           90           90           90 
   72000    262.25501   -158.61225    -125.6962   -158.61225            0    1724.5989    20.250492    20.245125    20.388867            0            0            0    8358.9002    -169.4411    3718.2571    1624.9807   -1557.3494    141.15996    390.25509    20.250492    20.245125    20.388867           90           90           90 
   72500    251.73947   -158.60266   -127.00644   -158.60266            0    5171.4572    19.998758    20.364871    20.542426            0            0            0    8366.3574    4893.0444      5603.08    5018.2471   -58.905481    -1010.285   -887.99659    19.998758    20.364871    20.542426           90           90           90 
   73000     246.8757   -159.57497   -128.58921   -159.57497            0    1279.1287    19.907351    20.136957     20.62353            0            0            0    8267.4262   -80.909997    3721.5137    196.78233    -1363.324    1962.2795   -1195.9028    19.907351    20.136957     20.62353           90           90           90 
   73500     260.3629    -160.5487   -127.87014    -160.5487            0   -226.54549     20.27581    19.942593    20.620002            0            0            0    8337.7434   -1009.0819   -1096.4191    1425.8646   -929.81305   -816.53153   -1086.8805     20.27581    19.942593    20.620002           90           90           90 
   74000    255.35431   -160.45027   -128.40035   -160.45027            0    3154.6095    20.435967    20.029189     20.44473            0            0            0    8368.3521    2429.4531    5305.4908    1728.8847    576.58262   -2260.3275   -817.63899    20.435967    20.029189     20.44473           90           90           90 
   74500    248.51638   -159.15393   -127.96224   -159.15393            0    2528.8559    20.178392    20.252898    20.320481            0            0            0    8304.3897    1871.7072    765.64343    4949.2171    806.33413   -751.54775   -1902.5392    20.178392    20.252898    20.320481           90           90           90 
   75000    263.12817   -159.85329   -126.82765   -159.85329            0    3351.6693    20.025348    20.253643    20.414976            0            0            0    8280.0334    6329.1036    -1171.236    4897.1402    995.14042    1714.9867   -3919.9005    20.025348    20.253643    20.414976           90           90           90 
   75500    257.93998   -161.24917   -128.87471   -161.24917            0    3776.5459    20.208388    20.084098    20.612495            0            0            0    8365.9366    2970.2128    3916.2199    4443.2049    1011.5835   -294.69591    990.39862    20.208388    20.084098    20.612495           90           90           90 
   76000    251.18952   -158.86792   -127.34073   -158.86792            0    457.88451    20.260476    20.009787    20.591787            0            0            0    8348.0714   -1792.5434   -843.89849    4010.0954    907.37333    1927.5657     4047.183    20.260476    20.009787    20.591787           90           90           90 
   76500    244.49755   -162.06512   -131.37784   -162.06512            0    5385.5472    20.111129    20.168131    20.516861            0            0            0    8321.7188    6536.6286    5391.5851     4228.428   -669.90302   -1834.4227    670.62041    20.111129    20.168131    20.516861           90           90           90 
   77000    233.50787   -159.94444    -130.6365   -159.94444            0    812.48646    20.076695    20.226584    20.440938            0            0            0    8300.7164   -468.10782    1497.4124    1408.1548    640.31979   -2491.3015   -1710.4554    20.076695    20.226584    20.440938           90           90           90 
   77500     251.2284   -159.42788   -127.89581   -159.42788            0    4785.3285    20.169066    20.045088    20.430876            0            0            0    8260.0127    5208.6569    5859.4139    3287.9147   -612.96065   -699.37248   -1071.0877    20.169066    20.045088    20.430876           90           90           90 
   78000    261.26004   -158.25859   -125.46742   -158.25859            0    3595.9226    20.384355    20.009896    20.638417            0            0            0    8418.1792    1613.7717     6108.798    3065.1982   -1002.7292    1956.8898     454.6807    20.384355    20.009896    20.638417           90           90           90 
   78500    253.53764   -161.07034   -129.24842   -161.07034            0    3076.1095    20.180972     20.04842    20.700037            0            0            0    8375.1652    2610.0208    5186.1859    1432.1218    201.18847   -1987.3929    3916.2654    20.180972     20.04842    20.700037           90           90           90 
   79000      250.435   -160.72935   -129.29685   -160.72935            0     2327.887    19.885933    20.196643    20.679417            0            0            0    8305.4557    3264.6024     1297.344    2421.7146   -978.99155    1250.1508   -97.241568    19.885933    20.196643    20.679417           90           90           90 
   79500    259.88426   -160.10525   -127.48676   -160.10525            0    5403.2512    20.103047    20.217914     20.54185            0            0            0     8349.064     9487.768    3291.1505    3430.8352   -904.58414   -2332.7531    1146.1976    20.103047    20.217914     20.54185           90           90           90 
   80000    256.73524   -158.77505    -126.5518   -158.77505            0    2660.8387     20.38785    20.067616      20.2815            0            0            0    8297.8826   -1110.5981    3792.9639    5300.1504    505.73823    372.65945    1464.6647     20.38785    20.067616      20.2815           90           90           90 
   80500    256.84447   -160.04214   -127.80518   -160.04214            0    3345.5797    20.361634    20.105533    20.323585            0            0            0    8320.1001     4358.196    1903.5831    3774.9601   -354.62242    1163.1924    -942.3103    20.361634    20.105533    20.323585           90           90           90 
   81000     252.4833   -159.55993   -127.87035   -159.55993            0    3613.6101    20.114496    20.186261    20.499732            0            0            0    8323.6389    2438.6584    6053.2359    2348.9359   -648.52025    986.57743     2977.477    20.114496    20.186261    20.499732           90           90           90 
   81500    261.98994   -161.47791   -128.59514   -161.47791            0    930.83158    19.984721    20.207713    20.648516            0            0            0    8338.8102    1483.2749   -713.82835    2023.0482    438.82223    1989.2944   -708.65525    19.984721    20.207713    20.648516           90           90           90 
   82000    256.39013   -161.07992   -128.89998   -161.07992            0    4116.4381    20.088425    20.120846    20.646864            0            0            0    8345.3821    2398.7304    6880.0056    3070.5784    715.18096    1817.1594   -643.76339    20.088425    20.120846    20.646864           90           90           90 
   82500    252.95728   -157.35887   -125.60979   -157.35887            0    4702.1004    20.244656    20.037154    20.535123            0            0            0    8329.9758    3775.9965    4790.9435    5539.3611    1048.9721    1522.3056    2966.8834    20.244656    20.037154    20.535123           90           90           90 
   83000    255.84066   -159.25063   -127.13966   -159.25063            0    1137.7315    20.272412    20.156742    20.457492            0            0            0    8359.4588     2331.658    1422.2626   -340.72598   -918.71786   -1104.7309     1248.448    20.272412    20.156742    20.457492           90           90           90 
   83500    261.24683   -160.22133   -127.43182   -160.22133            0    4486.5624    20.169406    20.208775    20.315428            0            0            0    8280.5477    3209.8951    7546.9098    2702.8824    398.29475     1462.046    449.97192    20.169406    20.208775    20.315428           90           90           90 
   84000    261.24761    -158.2932    -125.5036    -158.2932            0    1847.1382    20.162556    20.287182    20.421475            0            0            0    8353.2297    3724.2944    907.67998    909.44012   -1001.7572   -111.26445   -227.97712    20.162556    20.287182    20.421475           90           90           90 
   84500    253.10098   -159.39229   -127.62518   -159.39229            0    152.69317    20.134929    20.124175    20.599677            0            0            0    8346.9649    1725.0783   -1032.7136   -234.28523    1599.3724   -225.81316   -161.33599    20.134929    20.124175    20.599677           90           90           90 
   85000    262.51789   -161.07313   -128.12409   -161.07313            0    5731.3993    20.124177    19.910028    20.583791            0            0            0    8247.3676    3078.0127    8150.0425    5966.1427   -598.80652   -542.06076    1455.9051    20.124177    19.910028    20.583791           90           90           90 
   85500    264.39529   -159.45476   -126.27009   -159.45476            0    1237.8994    20.270202    20.178284    20.593367            0            0            0    8423.0554     2929.529    149.76798    634.40128    261.63352    2024.9639   -1238.8073    20.270202    20.178284    20.593367           90           90           90 
   86000    261.98034   -160.32168   -127.44011   -160.32168            0    3149.2297    20.161902    20.309014    20.383884            0            0            0    8346.5555     1146.903    4410.3968    3890.3893   -95.483642     2863.552    1441.2939    20.161902    20.309014    20.383884           90           90           90 
   86500    247.31106   -160.05682   -129.01641   -160.05682            0    1877.6801    20.141907    20.193957    20.406399            0            0            0     8300.197    483.00831    3106.4585    2043.5735    425.38329    205.18963     1245.119    20.141907    20.193957    20.406399           90           90           90 
   87000     252.0826   -161.46357   -129.82428   -161.46357            0    2968.4119    20.184927     20.04866    20.621543            0            0            0    8345.1409     3893.917    2798.6877     2212.631    701.29883   -1758.0775   -144.46598    20.184927     20.04866    20.621543           90           90           90 
   87500    248.72107   -159.37813   -128.16075   -159.37813            0    1631.3499     20.11376    20.015485    20.573699            0            0            0    8282.6969    3555.1411     2918.566   -1579.6574    200.50605   -1015.6123   -442.57247     20.11376    20.015485    20.573699           90           90           90 
   88000     265.4795   -160.55593   -127.23517   -160.55593            0      3448.47    20.125719    20.245677    20.514801            0            0            0    8358.9365   -1357.8451    8281.9642     3421.291    1416.4298    450.29776    1613.0378    20.125719    20.245677    20.514801           90           90           90 
   88500    257.20272   -160.49593   -128.21401   -160.49593            0    -1723.134    20.173774    20.325031    20.448728            0            0            0    8384.6445   -1264.8676   -3984.6035    80.069078   -284.43368   -597.84228    243.02645    20.173774    20.325031    20.448728           90           90           90 
   89000    249.28917   -161.58606   -130.29738   -161.58606            0    5792.2826    20.188974    20.125496    20.352755            0            0            0    8269.5913    4563.5991    7140.6816    5672.5669   -852.99316   -576.26807    2144.4551    20.188974    20.125496    20.352755           90           90           90 
   89500    241.48353   -160.91042   -130.60143   -160.91042            0    339.91832    20.201572    20.025892    20.477366            0            0            0    8284.2105    1470.9253   -778.81244    327.64214    618.30397     1948.393    129.39859    20.201572    20.025892    20.477366           90           90           90 
   90000    249.25122   -161.55681   -130.27289   -161.55681            0    2980.2489     20.18769    20.165076    20.646922            0            0            0    8405.0792    4034.9923    2484.7929    2420.9613   -1240.9566   -419.33282   -2287.3916     20.18769    20.165076    20.646922           90           90           90 
   90500    259.76231   -160.49605   -127.89287   -160.49605            0    1115.6881    20.113971     20.21144    20.656426            0            0            0    8397.5043    721.71513    1293.4548    1331.8945   -91.757857     912.4065   -42.101085    20.113971     20.21144    20.656426           90           90           90 
   91000    257.60155   -160.55856   -128.22657   -160.55856            0     4118.118    20.037301    20.065639    20.390553            0            0            0    8198.2515    4196.9835    3495.7005    4661.6701   -1091.9873    1147.5161   -25.441585    20.037301    20.065639    20.390553           90           90           90 
   91500     237.6614   -161.44684   -131.61757   -161.44684            0    1061.4939    20.251916     20.26316    20.360528            0            0            0    8355.3056     -4564.65    5685.9242    2063.2076     1728.238    921.77452    14.856802    20.251916     20.26316    20.360528           90           90           90 
   92000    250.72041   -160.46291   -128.99459   -160.46291            0   -1397.4701    20.254521    20.278006    20.327817            0            0            0    8349.0673   -4922.6331   -2757.3748    3487.5976     931.1092    482.49255   -368.27481    20.254521    20.278006    20.327817           90           90           90 
   92500    251.31833   -160.43105   -128.88769   -160.43105            0    3940.9341    20.083417    20.121097    20.374511            0            0            0    8233.3479    5720.2361    1408.0264    4694.5399    1306.6436     1945.806    1715.1188    20.083417    20.121097    20.374511           90           90           90 
   93000    253.26955   -160.03021   -128.24194   -160.03021            0     2215.434    20.145521    20.093166    20.706909            0            0            0    8381.8938    2498.0222    1734.8304    2413.4494   -1022.6325     2003.251   -1327.7891    20.145521    20.093166    20.706909           90           90           90 
   93500    252.22467   -160.37803    -128.7209   -160.37803            0    2016.0733    20.184795    19.986947    20.768879            0            0            0    8378.8395    -2431.722    6598.3955    1881.5463   -306.40127    976.27182   -706.78621    20.184795    19.986947    20.768879           90           90           90 
   94000    244.62784   -159.76847   -129.06484   -159.76847            0    7393.9632    20.136478    20.066595    20.545426            0            0            0    8301.8016    6350.0383    9733.1963    6098.6549   -1468.0907   -1058.5388   -2144.3188    20.136478    20.066595    20.545426           90           90           90 
   94500    242.12166   -159.26374   -128.87466   -159.26374            0    1998.4749    20.155578    20.319427    20.445455            0            0            0    8373.4322    8036.1944   -2220.7478    179.97807    1325.5625    829.27578   -519.61404    20.155578    20.319427    20.445455           90           90           90 
   95000    243.12592   -161.18541   -130.67028   -161.18541            0    3569.8911    20.199763    20.222666    20.380585            0            0            0     8325.328    5045.7891    2355.1018    3308.7824   -1904.8111    1113.7752   -505.06133    20.199763    20.222666    20.380585           90           90           90 
   95500    255.68024    -160.2807   -128.18986    -160.2807            0      1107.44     20.22334    20.009883    20.545053            0            0            0    8313.8983    2113.8248     1033.147    175.34827    656.03512   -1262.9112   -794.89811     20.22334    20.009883    20.545053           90           90           90 
   96000    258.32419   -159.34106   -126.91838   -159.34106            0    1331.5265    20.121965    20.009652    20.710285            0            0            0    8338.6548      163.534    2346.7504    1484.2951   -1335.2393    1001.1757    227.97751    20.121965    20.009652    20.710285           90           90           90 
   96500    256.07285   -159.46013   -127.32002   -159.46013            0    4562.9013    19.971342    20.270712    20.719288            0            0            0    8387.8582    3570.6253    3776.3234    6341.7551     595.6801   -457.88111   -2061.8814    19.971342    20.270712    20.719288           90           90           90 
   97000    252.31749   -159.46614   -127.79736   -159.46614            0     5041.773    19.939006    20.401519    20.413149            0            0            0     8303.783    4611.3387    5899.2585    4614.7218   -796.51132   -365.38338    -3019.479    19.939006    20.401519    20.413149           90           90           90 
   97500    255.90076   -159.79994   -127.68143   -159.79994            0    3536.7395    20.256195    20.172618    20.226613            0            0            0    8265.0086    2966.9937    4379.9843    3263.2404    359.59864     3502.964   -2019.8854    20.256195    20.172618    20.226613           90           90           90 
   98000    239.25988   -159.38574   -129.35585   -159.38574            0    3095.4381    20.489988     19.99999    20.347522            0            0            0    8338.4056    3836.2929    1685.9024    3764.1191   -780.66099   -1337.8681   -157.84081    20.489988     19.99999    20.347522           90           90           90 
   98500    257.78962    -160.7968   -128.44122    -160.7968            0    5861.6365    20.192157     19.99754    20.464112            0            0            0    8263.2743    5756.9247    7995.8945    3832.0902   -739.74642    675.00295   -539.51908    20.192157     19.99754    20.464112           90           90           90 
   99000    265.97651   -161.91196   -128.52882   -161.91196            0    3964.4554     20.00456    20.209722    20.668251            0            0            0    8355.8965    4319.3606    4807.5992    2766.4063   -355.28216     1077.548    308.02343     20.00456    20.209722    20.668251           90           90           90 
   99500    255.20797   -158.36808   -126.33652   -158.36808            0    4856.5342    20.148299     20.19892     20.71916            0            0            0    8432.1567    4260.0888    5968.2043    4341.3094    1237.8091   -807.05776    785.81859    20.148299     20.19892     20.71916           90           90           90 
  100000    255.74342   -159.87093   -127.77216   -159.87093            0    3408.5521    20.271519    20.097322    20.560937            0            0            0    8376.5927    3038.9826    3642.7335    3543.9402   -78.464071    1768.1685   -667.57048    20.271519    20.097322    20.560937           90           90           90 
  100500    255.58677     -159.372   -127.29289     -159.372            0     6311.297    20.222682    20.117444    20.376902            0            0            0    8289.9079    6784.9775    5896.1512    6252.7623   -32.883088   -1692.9575   -1375.1612    20.222682    20.117444    20.376902           90           90           90 
  101000    251.34398   -160.07608   -128.52949   -160.07608            0     3375.828    20.211068    20.278891    20.380159            0            0            0     8352.972    1735.2151    5206.7336    3185.5353    165.29211   -23.028773   -808.63103    20.211068    20.278891    20.380159           90           90           90 
  101500    248.52422   -159.61512   -128.42245   -159.61512            0    2772.9467    20.179703    20.217679    20.520816            0            0            0    8372.2213    3396.2843    529.11897     4393.437    -1351.205   -1507.6146   -1122.1896    20.179703    20.217679    20.520816           90           90           90 
  102000    254.35374   -160.43283   -128.50848   -160.43283            0    6529.2967    20.072163    20.021085    20.671766            0            0            0      8307.29    5287.6739    10888.952    3411.2637    643.65285    507.20012    -1128.849    20.072163    20.021085    20.671766           90           90           90 
  102500    248.83521   -159.76654   -128.53483   -159.76654            0    5748.1697     20.11646    20.070184    20.641554            0            0            0     8333.843    6764.8711    4725.8328    5753.8053   -972.70494    2823.1499   -721.74926     20.11646    20.070184    20.641554           90           90           90 
  103000     251.3478   -159.17586   -127.62879   -159.17586            0    1496.3716    20.293068    20.219035    20.410062            0            0            0    8374.3762    1665.4199    897.90086     1925.794   -2397.8665    2277.9799   -1031.0435    20.293068    20.219035    20.410062           90           90           90 
  103500    254.88551   -161.04288   -129.05179   -161.04288            0    4110.4743    20.318791    20.176046    20.147297            0            0            0    8259.4418    4679.8875    961.41488    6690.1205    728.17709   -350.98124    953.59803    20.318791    20.176046    20.147297           90           90           90 
  104000    259.79464   -160.21793   -127.61068   -160.21793            0    314.02862    20.299361    20.116543    20.336172            0            0            0     8304.336   -2917.7877    1823.9521    2035.9215    732.96875   -804.59286    437.26193    20.299361    20.116543    20.336172           90           90           90 
  104500    239.61286   -159.13706   -129.06287   -159.13706            0    3497.1284    20.156821    20.141786    20.791199            0            0            0    8441.1097    4834.4429     3914.809    1742.1332   -628.12916    1577.0242    1452.2535    20.156821    20.141786    20.791199           90           90           90 
  105000    259.65828   -158.78535   -126.19522   -158.78535            0    3142.1934    19.909135    20.099144    20.882505            0            0            0    8356.2712    7313.2645    469.11083    1644.2049   -928.59312   -292.92053    1417.1317    19.909135    20.099144    20.882505           90           90           90 
  105500    255.85222   -158.42682    -126.3144   -158.42682            0    1929.4012    20.017454    20.116256    20.682126            0            0            0    8328.2005    3222.8598    2022.9692    542.37469   -961.17101    2106.6157    -2476.888    20.017454    20.116256    20.682126           90           90           90 
  106000     259.7832   -160.20672   -127.60091   -160.20672            0    3737.0365    20.244488    20.146157    20.462909            0            0            0    8345.7693     1149.447    4412.7462    5648.9162    627.17595    -905.7466   -1260.8409    20.244488    20.146157    20.462909           90           90           90 
  106500    260.16552   -160.64107   -127.98728   -160.64107            0     2495.306    20.347331    20.157462    20.353075            0            0            0    8347.8253    867.73135    1994.3156    4623.8709   -238.26285    309.45616    -2234.613    20.347331    20.157462    20.353075           90           90           90 
  107000    251.27886   -159.71408   -128.17567   -159.71408            0    2028.4181    20.229107    20.077809    20.398675            0            0            0    8285.0473    3472.2112    1326.1351     1286.908    422.49651    318.81652     599.9542    20.229107    20.077809    20.398675           90           90           90 
  107500    264.88672   -160.87797   -127.63161   -160.87797            0    4451.6336    20.112039     20.04257    20.658134            0            0            0    8327.2306    7257.9528    2099.4623    3997.4859   -1382.8597    163.67806   -744.64721    20.112039     20.04257    20.658134           90           90           90 
  108000    259.34465   -159.27094   -126.72018   -159.27094            0    1139.8783     20.18149    20.157622    20.842186            0            0            0    8478.8274   -420.96099    1936.8347    1903.7613   -1359.8402    3719.6926    399.40896     20.18149    20.157622    20.842186           90           90           90 
  108500    269.25752   -159.99988   -126.20493   -159.99988            0    6410.1443    20.092914    20.080437     20.56336            0            0            0    8296.7914    6937.8933    6427.7229    5864.8166    258.46133   -1845.5269     405.7344    20.092914    20.080437     20.56336           90           90           90 
  109000    253.96227    -160.1389   -128.26369    -160.1389            0    4622.6171    20.149156    20.245633    20.472968            0            0            0     8351.587    3531.5323    3630.9065    6705.4125    1603.9786    2759.3965    2002.0936    20.149156    20.245633    20.472968           90           90           90 
  109500     266.1802   -161.19802   -127.78932   -161.19802            0    3918.7896    20.281165    20.263916    20.399116            0            0            0    8383.5439     5015.492    2242.6967      4498.18   -488.95172    2912.1672    964.13129    20.281165    20.263916    20.399116           90           90           90 
  110000    251.98336   -159.32053   -127.69369   -159.32053            0    2849.8694    20.233976    20.017438    20.310704            0            0            0    8226.4924    5706.9275   -1540.1945    4382.8752     880.7466   -442.92295    1503.0243    20.233976    20.017438    20.310704           90           90           90 
  110500    244.22152   -160.22028   -129.56765   -160.22028            0   -446.30784     20.27378    19.983883    20.647231            0            0            0    8365.2016   -15.947749   -1258.8492    -64.12653     144.5569    219.97832    1828.8429     20.27378    19.983883    20.647231           90           90           90 
  111000    259.00935   -160.31608    -127.8074   -160.31608            0    2201.9582    20.161792    20.038535    20.731816            0            0            0     8375.918    2272.6278    3164.9581    1168.2885    1027.9373   -564.02602   -2238.2544    20.161792    20.038535    20.731816           90           90           90 
  111500    257.41269    -159.9924   -127.68412    -159.9924            0    3812.4605    20.050096    20.204057    20.563987            0            0            0    8330.3331     5201.753    5122.6131    1113.0154   -497.92262   -594.06237   -475.31593    20.050096    20.204057    20.563987           90           90           90 
  112000    262.64085   -161.00791   -128.04343   -161.00791            0    4411.0144    20.140736    20.221266    20.354871            0            0            0    8289.9521    1240.3993    6312.4658    5680.1781   -470.06976   -1136.1047    2445.4667    20.140736    20.221266    20.354871           90           90           90 
[...]
  373000    243.62512   -161.47656   -130.89879   -161.47656            0    6340.7257    20.245524    20.091314    20.143649            0            0            0    8193.6139    5463.6172    8192.6891    5365.8708    18.827611   -929.73494   -534.67524    20.245524    20.091314    20.143649           90           90           90 
  373500    246.41584   -160.36806   -129.44001   -160.36806            0     2538.141    20.306695    20.095426    20.157859            0            0            0    8225.8515   -176.83304    5772.4697    2018.7864   -534.90933    548.24499   -1928.8893    20.306695    20.095426    20.157859           90           90           90 
  374000    251.46262   -158.43131   -126.86983   -158.43131            0    2161.2089    20.297992    20.177164    20.596066            0            0            0    8435.2405    4170.6214    439.32475    1873.6806   -1058.7404    3679.6853   -721.49436    20.297992    20.177164    20.596066           90           90           90 
  374500    255.66909   -157.10937   -125.01993   -157.10937            0     1365.997    20.116496    20.039067    20.869338            0            0            0    8412.7601    2917.7961    4123.1165   -2942.9215    1228.2508   -854.76201    5224.9771    20.116496    20.039067    20.869338           90           90           90 
  375000    268.84841   -158.83165   -125.08806   -158.83165            0    5282.7306    20.032036    19.915761    20.658298            0            0            0    8241.6951    5438.5883    5575.7802    4833.8233    601.53028   -89.576366    -1239.349    20.032036    19.915761    20.658298           90           90           90 
  375500    257.16671   -160.40976   -128.13236   -160.40976            0     3403.175    20.217327    20.205587    20.527981            0            0            0    8385.7411    2285.0851    3622.5282    4301.9118     -523.495    973.15606    1754.8109    20.217327    20.205587    20.527981           90           90           90 
  376000    259.20076   -159.17786   -126.64516   -159.17786            0    3499.6906    20.259602     20.31407     20.40261            0            0            0    8396.7954    3994.8202    4608.7472    1895.5045    691.33491   -729.11168   -1958.1564    20.259602     20.31407     20.40261           90           90           90 
  376500    259.27306   -158.37921   -125.83743   -158.37921            0    3509.8343    20.149639     20.14605    20.249704            0            0            0    8220.0767    3506.6813     2491.146    4531.6755   -1961.7955    879.12545   -883.63976    20.149639     20.14605    20.249704           90           90           90 
  377000    248.59255   -160.73272   -129.53147   -160.73272            0     2914.652    20.151562    20.115303    20.459163            0            0            0    8293.2194   -2443.9482    7526.3561    3661.5481    918.90648    844.37193    253.89612    20.151562    20.115303    20.459163           90           90           90 
  377500    245.34553   -160.04245   -129.24874   -160.04245            0    350.45098    20.186943    20.198365    20.699397            0            0            0    8440.0395    4431.6842    -1022.456   -2357.8753   -452.73756    -531.5915    961.15914    20.186943    20.198365    20.699397           90           90           90 
  378000    252.96711   -159.68613   -127.93583   -159.68613            0    1302.5076    20.063583    20.123891    20.620761            0            0            0    8325.7838    2533.1278    -1509.744    2884.1391    419.88358   -58.749555   -2284.6313    20.063583    20.123891    20.620761           90           90           90 
  378500    249.32952   -160.53866   -129.24491   -160.53866            0    2659.3118    20.129075     20.14578    20.488907            0            0            0    8308.5783     2581.403     2809.937    2586.5955    88.506267   -562.43802    3904.7992    20.129075     20.14578    20.488907           90           90           90 
  379000     259.9873   -160.58077   -127.94935   -160.58077            0    2300.3684    20.324263    20.246541    20.462014            0            0            0    8420.0373   -415.44882    3193.6697    4122.8844   -1932.3335     390.9107    1236.1842    20.324263    20.246541    20.462014           90           90           90 
  379500    249.71884   -159.79039   -128.44778   -159.79039            0     3901.855    20.216641    20.132568    20.347294            0            0            0    8281.6113    5247.2793    2580.8869    3877.3989   -1318.7712    1535.2912   -759.48564    20.216641    20.132568    20.347294           90           90           90 
  380000    246.91375   -160.37449   -129.38395   -160.37449            0    2491.5882    20.149194    20.083676    20.369893            0            0            0    8243.0822   -808.99531    3988.9446    4294.8153   -404.68154   -18.325333    1518.6051    20.149194    20.083676    20.369893           90           90           90 
  380500    252.55481   -161.25963   -129.56108   -161.25963            0    2459.9042    20.228474    20.134647    20.508578            0            0            0    8353.0041    2497.4375    1984.7111     2897.564   -254.84821   -1446.1502   -1637.6072    20.228474    20.134647    20.508578           90           90           90 
  381000    258.12661   -161.12904   -128.73116   -161.12904            0    2995.3697    20.201747    20.030729     20.45922            0            0            0    8278.9407    895.73878    5520.3547    2570.0156   -51.772054    -1481.494    1297.9224    20.201747    20.030729     20.45922           90           90           90 
  381500    269.81417   -159.15666   -125.29185   -159.15666            0    2844.6745    20.167351    20.174278    20.505887            0            0            0    8343.0611    5848.6047    984.86601    1700.5528   -2776.2292    943.50856   -53.364807    20.167351    20.174278    20.505887           90           90           90 
  382000    252.06058   -159.20124   -127.56472   -159.20124            0    1215.2727      20.0916    20.346872    20.590638            0            0            0    8417.4777    4068.0385   -493.22636    71.005958   -144.28654   -1543.7882   -1120.8315      20.0916    20.346872    20.590638           90           90           90 
  382500    268.22781    -159.1862   -125.52049    -159.1862            0    618.16988    20.032382    20.183175    20.526003            0            0            0    8299.0134   -2120.5954    2624.2141     1350.891   -452.57891   -280.23441   -536.26123    20.032382    20.183175    20.526003           90           90           90 
  383000    253.10085   -158.37231   -126.60522   -158.37231            0     2380.228    20.233112    20.016959    20.547314            0            0            0    8321.7725   -1944.9351     5520.618    3565.0011   -1646.0765    686.71907    1447.2806    20.233112    20.016959    20.547314           90           90           90 
  383500    269.80047   -158.42636   -124.56327   -158.42636            0    2514.2831    20.366568    20.038627    20.474927            0            0            0    8356.1874     471.3275    2823.5392    4247.9826   -1297.9344   -421.68793   -833.17003    20.366568    20.038627    20.474927           90           90           90 
  384000    252.38258   -159.88333   -128.20639   -159.88333            0   -138.80196    20.289612    20.142133    20.470231            0            0            0    8365.6934   -3686.7549    1131.5607    2138.7884   -466.13443   -2615.5734    137.26659    20.289612    20.142133    20.470231           90           90           90 
  384500    258.39705   -160.93667   -128.50484   -160.93667            0    3558.8258    20.043677    20.132091    20.554274            0            0            0    8294.0838     2837.223    5268.9757    2570.2786   -1069.8284    465.97083   -305.78675    20.043677    20.132091    20.554274           90           90           90 
  385000    248.41627   -160.60398   -129.42486   -160.60398            0    3693.3219    19.925785    20.175495    20.661672            0            0            0    8306.2524    4593.2622    3057.0899    3429.6136    1363.0122   -2429.7943   -658.34955    19.925785    20.175495    20.661672           90           90           90 
  385500     247.4236   -160.59025   -129.53572   -160.59025            0    2945.5178    20.002338    20.269194    20.673684            0            0            0    8381.7583    4701.0894    3086.4336    1049.0304   -156.12445   -2589.3188    -1221.363    20.002338    20.269194    20.673684           90           90           90 
  386000    257.39877   -160.34884   -128.04231   -160.34884            0    1274.3819    20.181478    20.195743    20.477289            0            0            0    8346.1328    5105.4306   -2295.9039     1013.619   -558.97347   -271.24667   -686.78249    20.181478    20.195743    20.477289           90           90           90 
  386500    249.40669   -158.11348   -126.81005   -158.11348            0    3903.2926    20.287824    20.097209     20.28904            0            0            0    8272.4224    3080.3669    1322.5766    7306.9342    1543.1021    1302.8568   -1164.6379    20.287824    20.097209     20.28904           90           90           90 
  387000    257.50337   -160.50906    -128.1894   -160.50906            0    1554.2704    20.293192    20.140584    20.484962            0            0            0     8372.547     3192.372    2014.8683   -544.42901    2005.7589    2565.0951    1875.2401    20.293192    20.140584    20.484962           90           90           90 
  387500    256.42667   -159.36095   -127.17642   -159.36095            0    1976.0083    20.146267    20.040276    20.713262            0            0            0    8362.7055    1588.9515    2804.0759    1534.9976    1179.0981    1041.2623   -901.97802    20.146267    20.040276    20.713262           90           90           90 
  388000    248.87682   -161.18928   -129.95235   -161.18928            0    4074.3941    20.012328    19.921331     20.64875            0            0            0    8232.0827    2895.0832    4960.3547    4367.7443   -65.798746   -1377.6547     3314.204    20.012328    19.921331     20.64875           90           90           90 
  388500    243.04482   -160.90007   -130.39513   -160.90007            0    5551.2047    20.210967    20.155024    20.488133            0            0            0    8345.8928    2240.8425    9041.5637    5371.2081    1205.3439    1997.9528   -1350.3093    20.210967    20.155024    20.488133           90           90           90 
  389000    260.03231   -162.19724   -129.56017   -162.19724            0    3947.4036    20.203793    20.291677    20.225364            0            0            0     8291.769    5270.8192    4465.1383    2106.2532   -993.65637   -273.31682    299.33339    20.203793    20.291677    20.225364           90           90           90 
  389500    249.52624   -160.75713   -129.43869   -160.75713            0    4449.8807    20.105432    20.218583    20.206867            0            0            0    8214.1588    6570.3651    2364.0148    4415.2623    1122.1818    130.73319    2838.7316    20.105432    20.218583    20.206867           90           90           90 
  390000    245.11785   -161.61889   -130.85375   -161.61889            0    2773.1666    20.286906    20.133943    20.530707            0            0            0    8385.8785    1208.4471    6734.1338    376.91883     585.5096    1044.2509   -104.89975    20.286906    20.133943    20.530707           90           90           90 
  390500    253.59299   -159.34049   -127.51163   -159.34049            0   -522.00807     20.26301    19.951309    20.715831            0            0            0    8374.8633   -3317.1361     1010.618    740.49386   -526.03149   -1525.4821    128.67434     20.26301    19.951309    20.715831           90           90           90 
  391000    272.14125   -160.34872   -126.19183   -160.34872            0    3460.1029    20.035691    19.984048    20.616108            0            0            0      8254.57    5081.1298    4766.9916    532.18731    149.13045   -1454.8689   -1685.3476    20.035691    19.984048    20.616108           90           90           90 
  391500    261.87053   -157.56872   -124.70093   -157.56872            0    1539.9659    20.088932    20.317382    20.510813            0            0            0    8371.5809    2493.7095   -562.12133    2688.3095    448.22706    2945.6596    1867.1562    20.088932    20.317382    20.510813           90           90           90 
  392000    242.08789   -160.57305   -130.18821   -160.57305            0    5718.9168    20.181133    20.258301    20.408564            0            0            0    8343.7452    5036.7335    5886.9763    6233.0407    103.49496    260.87142   -3108.4889    20.181133    20.258301    20.408564           90           90           90 
  392500    246.18641   -160.56752   -129.66827   -160.56752            0   -759.22122    20.190772    20.149947    20.455627            0            0            0    8322.2285   -1362.2927   -1227.5705    312.19953    513.90552   -305.36763    2627.6769    20.190772    20.149947    20.455627           90           90           90 
  393000    260.80851   -159.73018   -126.99568   -159.73018            0    4097.2284    20.194054    20.071371    20.489492            0            0            0    8304.8489    3563.9992    3339.5795    5388.1064    65.973716    1839.1394    1905.8971    20.194054    20.071371    20.489492           90           90           90 
  393500    255.29053   -157.08464   -125.04271   -157.08464            0    3087.7979    20.288224    20.139246     20.64427            0            0            0    8435.0326    1082.6851    6202.6342    1978.0743    1035.9171   -1081.3668   -860.32716    20.288224    20.139246     20.64427           90           90           90 
  394000    254.82381   -160.16145    -128.1781   -160.16145            0    288.50504     20.11402    20.043297    20.565402            0            0            0     8290.968     547.5196   -1165.8142    1483.8097   -526.02968    2997.8731   -339.35285     20.11402    20.043297    20.565402           90           90           90 
  394500    248.65649   -160.07581   -128.86654   -160.07581            0     3982.129    20.059125    20.083536    20.506972            0            0            0    8261.4008    2309.4065    6063.9679    3573.0126    889.75865    2238.9224   -124.55209    20.059125    20.083536    20.506972           90           90           90 
  395000    246.01731   -158.13376   -127.25573   -158.13376            0    2784.6356    20.317389    20.253833    20.492423            0            0            0    8432.7348      6239.91   -133.10975    2247.1065   -904.53831   -1374.2181    2344.6621    20.317389    20.253833    20.492423           90           90           90 
  395500    257.20294   -161.69672   -129.41477   -161.69672            0     4061.787     20.23375    20.115756    20.321369            0            0            0    8271.1462    4547.2932   -493.43121    8131.4988    623.32594    444.50269    953.20031     20.23375    20.115756    20.321369           90           90           90 
  396000    251.05113   -161.04924   -129.53941   -161.04924            0    854.84907     20.13718    20.149723    20.492125            0            0            0    8314.8559    1621.0512    -90.43731    1033.9333    1.9092047   -592.96423    3473.3019     20.13718    20.149723    20.492125           90           90           90 
  396500    241.37541   -160.70936   -130.41394   -160.70936            0    1218.0214    20.057357    20.203223    20.682859            0            0            0    8381.1755    4200.1623    -1238.105    692.00711    157.71533     1780.346   -1107.0129    20.057357    20.203223    20.682859           90           90           90 
  397000    252.40618   -159.97274   -128.29283   -159.97274            0    1611.1552    20.060387    20.098121    20.633703            0            0            0    8319.0155    4547.4787    2705.6115   -2419.6246   -1301.0053    2111.1522    543.62536    20.060387    20.098121    20.633703           90           90           90 
  397500    255.55077   -160.13844   -128.06386   -160.13844            0    3190.3858    20.267726    20.057041    20.493385            0            0            0    8330.7783    950.36997    3244.3202    5376.4674   -580.34038    1444.9624    2842.4784    20.267726    20.057041    20.493385           90           90           90 
  398000    260.67068   -160.64887   -127.93168   -160.64887            0    5887.2818    20.336359    20.025646    20.276662            0            0            0    8257.6449    4664.9986     7851.788    5145.0589    845.93865    1152.6937    1206.9874    20.336359    20.025646    20.276662           90           90           90 
  398500    250.96831   -158.84245   -127.34301   -158.84245            0    1409.9733     20.28642    20.311433    20.319008            0            0            0    8372.3712    773.70282    507.53823    2948.6789   -1418.5599   -3150.9297   -352.66466     20.28642    20.311433    20.319008           90           90           90 
  399000    249.30766     -162.602     -131.311     -162.602            0     3346.497    19.985928    20.421508    20.564211            0            0            0    8393.1345    4182.6829    1102.2287    4754.5794   -1255.9344    260.03143   -1478.0802    19.985928    20.421508    20.564211           90           90           90 
  399500     255.9929   -160.65599   -128.52591   -160.65599            0    2396.7656    19.738195    20.159938    20.665733            0            0            0    8223.3248    235.51544    4409.2186    2545.5627    411.61164    477.28386   -437.42959    19.738195    20.159938    20.665733           90           90           90 
  400000    245.56297   -160.54383   -129.72283   -160.54383            0    111.42773    20.072909    20.053562    20.731407            0            0            0    8345.0825    1844.7655   -343.10222   -1167.3801    677.07994    578.13382    612.20481    20.072909    20.053562    20.731407           90           90           90 
Loop time of 2416.47 on 1 procs for 400000 steps with 972 atoms

Performance: 7.151 ns/day, 3.356 hours/ns, 165.531 timesteps/s
69.5% CPU use with 1 MPI tasks x 1 OpenMP threads

MPI task timing breakdown:
Section |  min time  |  avg time  |  max time  |%varavg| %total
---------------------------------------------------------------
Pair    | 2143.5     | 2143.5     | 2143.5     |   0.0 | 88.70
Bond    | 0.040825   | 0.040825   | 0.040825   |   0.0 |  0.00
Neigh   | 244.33     | 244.33     | 244.33     |   0.0 | 10.11
Comm    | 9.5957     | 9.5957     | 9.5957     |   0.0 |  0.40
Output  | 2.1132     | 2.1132     | 2.1132     |   0.0 |  0.09
Modify  | 15.5       | 15.5       | 15.5       |   0.0 |  0.64
Other   |            | 1.382      |            |       |  0.06

Nlocal:        972.000 ave         972 max         972 min
Histogram: 1 0 0 0 0 0 0 0 0 0
Nghost:        4603.00 ave        4603 max        4603 min
Histogram: 1 0 0 0 0 0 0 0 0 0
Neighs:         0.00000 ave           0 max           0 min
Histogram: 1 0 0 0 0 0 0 0 0 0
FullNghs:      243214.0 ave      243214 max      243214 min
Histogram: 1 0 0 0 0 0 0 0 0 0

Total # of neighbors = 243214
Ave neighs/atom = 250.22016
Ave special neighs/atom = 0.0000000
Neighbor list builds = 40000
Dangerous builds not checked

unfix		3
unfix		2

write_data	data.final.${pid}
write_data	data.final.0
System init for write_data ...

write_restart   restart.lmp.${pid}
write_restart   restart.lmp.0
System init for write_restart ...
Total wall time: 0:40:21
