LAMMPS data file via write_data, version 29 Sep 2021, timestep = 2000000

864 atoms
2 atom types

0.10512353277899855 18.102449467221664 xlo xhi
0.12382163033129068 21.322293369671073 ylo yhi
0.12825046138110707 22.084945538617504 zlo zhi

Masses

1 1.008
2 15.999

Atoms # full

486 0 2 0.5897 2.97299015063325 2.66295093252186 3.1058827881382545 1 1 0
484 0 1 -1.1794 3.339105574128453 2.609944102423169 4.027478990657444 1 1 0
485 0 2 0.5897 3.650269757557833 1.716090068289161 4.173302368806186 1 1 0
379 0 1 -1.1794 2.846108727918534 2.097128329667103 1.4320217355608764 1 1 0
470 0 2 0.5897 0.867027416887823 1.7774437452474152 3.436661913946171 1 0 0
380 0 2 0.5897 2.3446925244585426 2.8519925929023806 1.1205241406125503 1 1 0
284 0 2 0.5897 2.318227295482925 0.39784247232670544 0.8288460359794212 -1 1 1
381 0 2 0.5897 3.7201037493466282 2.198977931845946 1.029409775647236 1 1 0
469 0 1 -1.1794 0.3951836321377104 1.6153803233974262 2.5877445910399652 1 0 0
347 0 2 0.5897 4.959557581475101 3.4966056246474704 4.255084422332976 -1 1 0
346 0 1 -1.1794 5.734120368013963 4.074412109350444 4.193445312459561 -1 1 0
252 0 2 0.5897 8.157221250792102 4.166107356880198 1.7887791698296645 0 0 2
71 0 2 0.5897 5.903927235207652 2.9941518160166853 0.6375041647585956 1 0 1
240 0 2 0.5897 8.465067224532776 3.346370830504419 3.8104710300771654 1 -1 1
298 0 1 -1.1794 6.847039360426167 0.23058569661423772 0.7134375330964995 1 0 1
300 0 2 0.5897 7.75294461364122 0.47217034106625433 0.7966154015269268 1 1 1
251 0 2 0.5897 8.914061280658208 2.8233674961204076 1.7018569443054976 0 0 2
250 0 1 -1.1794 8.942614581104635 3.6978129325306175 2.1547669602966666 0 0 2
419 0 2 0.5897 6.174785049294137 4.336807113298903 2.4327293077550913 0 -1 1
33 0 2 0.5897 4.956575118802067 0.40915339831241854 3.9577865784751243 0 1 0
31 0 1 -1.1794 5.227458882949431 0.23130625660814075 3.06206975240233 0 1 1
299 0 2 0.5897 6.463902489056727 0.18839904420789616 1.5981417790254966 1 0 1
61 0 1 -1.1794 11.944855118553493 2.9715386722549684 0.7964386338120688 0 0 0
236 0 2 0.5897 12.2977782543479 1.7410543105981748 1.7896126745425387 -1 1 1
737 0 2 0.5897 13.565884324892783 4.087621855001359 2.4030643758937376 1 1 0
235 0 1 -1.1794 12.742765601254876 1.2448641690090823 2.4598597889213374 -1 1 1
237 0 2 0.5897 12.144389782917692 1.171408719723662 3.205456833894263 -1 1 1
520 0 1 -1.1794 9.53034527958792 1.3160836736812098 0.8444138549332684 -1 -1 0
62 0 2 0.5897 11.02412599443247 3.1213186743230876 0.8721560167647396 0 0 0
521 0 2 0.5897 10.071654675966055 0.5641635562173117 1.1214527774814627 -1 -1 0
278 0 2 0.5897 14.569943154230653 1.1495468736537644 2.4609686958803314 0 0 1
471 0 2 0.5897 17.863333552191705 0.8356960470295781 2.737916024811772 0 0 0
277 0 1 -1.1794 15.51572621047511 1.0226488663799147 2.317125614620817 0 0 1
662 0 2 0.5897 16.31914921933285 1.9241449868147436 0.785876692241243 0 1 0
687 0 2 0.5897 17.596429505569674 2.9604125059775046 2.250321211576159 0 1 0
738 0 2 0.5897 14.597458248104747 4.115184764853201 3.5690739009192076 1 1 0
279 0 2 0.5897 15.560496605489682 0.15035154633357828 1.9002254353001413 0 0 1
686 0 2 0.5897 16.514499651410084 4.149965052728515 1.721170428732905 0 1 0
685 0 1 -1.1794 17.285180144866246 3.921424886942494 2.332651940789775 0 1 0
141 0 2 0.5897 16.12731970409304 1.3925070021748993 4.06279257942534 1 0 0
694 0 1 -1.1794 2.7324641600749833 6.880997145645403 2.3113994899340713 1 1 1
695 0 2 0.5897 2.686138671928986 7.624187064148839 1.700753629127457 1 1 1
696 0 2 0.5897 2.557857419651622 6.094639910209806 1.8128996045392536 1 1 1
684 0 2 0.5897 2.0006723237439497 7.2332510548112365 4.474985176242752 0 1 1
566 0 2 0.5897 4.339885606753939 6.5279761528792175 3.257318271778394 0 1 1
811 0 1 -1.1794 1.656638354729156 4.575536024571588 0.9825930446968775 1 0 1
813 0 2 0.5897 0.7330652652395172 4.380259641771294 1.2541173948820796 1 0 1
418 0 1 -1.1794 6.509918523612965 4.613359132713067 1.5681906897081515 0 -1 1
565 0 1 -1.1794 5.162328435402655 6.608723170698555 3.7555268126584522 0 1 1
567 0 2 0.5897 5.381386021983436 5.632889630670218 3.9345810650328565 0 1 1
420 0 2 0.5897 6.275696575439795 5.523515780026486 1.3807381032680492 0 -1 1
86 0 2 0.5897 7.882072869452765 8.141832743365333 3.3800473903428183 0 0 1
85 0 1 -1.1794 6.98737116324091 8.504823098868986 3.3570387337712377 0 0 1
87 0 2 0.5897 6.442945690864093 7.687163737361193 3.5865160523214503 0 0 1
446 0 2 0.5897 6.155376186901557 7.803716780565781 0.8325122171335689 0 0 1
445 0 1 -1.1794 5.971613831594557 6.947742641937633 0.4166410686880514 0 0 1
307 0 1 -1.1794 9.815383649293818 7.611663171134176 3.06272039615006 0 1 0
309 0 2 0.5897 10.441928701356112 6.808942497244127 3.0278952590291603 0 1 0
659 0 2 0.5897 10.21348155853297 4.705968208366226 2.7099705185316987 -1 0 0
658 0 1 -1.1794 11.031519072519409 5.203997962267343 2.917113753161576 -1 0 0
660 0 2 0.5897 11.685814917955227 5.278620263164782 2.2067239868042385 -1 0 0
460 0 1 -1.1794 12.38225701671572 6.384778216135396 0.6889164035866671 -1 0 0
461 0 2 0.5897 11.584543066584718 6.860762166025412 0.4933389527303451 -1 0 0
609 0 2 0.5897 12.981313970136037 7.883060460890182 1.9126263840394984 1 0 1
308 0 2 0.5897 10.321575144510643 8.3539161979064 3.428268870805688 0 1 0
758 0 2 0.5897 9.654460068207902 7.745320916500314 1.2963792136251944 0 -1 1
757 0 1 -1.1794 9.960068666948812 7.647746465581144 0.40128183596521405 0 -1 1
736 0 1 -1.1794 13.800320514543873 4.582441833406229 3.206876439056788 1 1 0
633 0 2 0.5897 17.885916948282706 7.834352438537771 4.2820069826314135 -1 0 0
57 0 2 0.5897 14.730604357106852 5.6876000315366095 1.439521251465718 -2 0 0
427 0 1 -1.1794 17.00087221452891 8.015946795718747 0.8276367440243374 0 -1 0
429 0 2 0.5897 16.547892390168258 7.1485840511459235 0.8469486071637871 0 -1 0
55 0 1 -1.1794 15.583688747244395 5.647880463656316 1.00906100878957 -2 0 0
632 0 2 0.5897 16.395446084745963 8.314652496529352 4.182666232097623 -1 0 0
428 0 2 0.5897 17.297989704755224 8.158295558704758 1.7456092732242359 0 -1 0
753 0 2 0.5897 16.76329841906471 4.5244928005970095 3.8346018851079515 -1 1 1
631 0 1 -1.1794 17.2977259866271 8.379788513417386 3.7476489810291076 -1 0 0
561 0 2 0.5897 14.187154541622851 8.52234270472664 3.867578843873888 1 0 0
852 0 2 0.5897 2.048629783139809 10.249577367179773 0.9777204520225826 -1 -1 1
850 0 1 -1.1794 2.804622107661327 9.711351506392228 0.9187876858602125 -1 -1 1
83 0 2 0.5897 4.006076626660425 10.067927930166023 2.3187524888684647 0 -1 1
844 0 1 -1.1794 0.9853688466046502 12.239093870491349 0.540478017788711 0 0 2
846 0 2 0.5897 0.7690313011776849 11.836549340126318 1.4553993703674346 0 0 2
699 0 2 0.5897 0.5430614998188908 11.950716240391124 3.7657749480636484 0 1 0
851 0 2 0.5897 3.305267970619503 10.227573746101934 0.3099075127824382 -1 -1 1
861 0 2 0.5897 4.545658979810564 12.313317959606565 3.8375878598111046 1 0 1
82 0 1 -1.1794 4.577873324095796 10.409406930634947 2.993517896169325 0 -1 1
84 0 2 0.5897 5.14933991737871 9.68420605286502 3.212445243916871 1 -1 1
726 0 2 0.5897 7.790869443465357 11.014572278113254 4.196031397185781 1 0 1
724 0 1 -1.1794 8.480816360723278 11.652519062131846 4.014232237093276 1 0 1
366 0 2 0.5897 7.215714359362086 9.54582504215793 1.7824216595985343 -1 0 -1
725 0 2 0.5897 8.112510821260441 12.24011664328925 3.3927954236846243 1 0 1
364 0 1 -1.1794 7.153491430467913 9.603050224187132 0.7900622225792304 -1 0 -1
365 0 2 0.5897 6.4682998106862994 10.229635236841931 0.5555719793797216 -1 0 -1
636 0 2 0.5897 8.71887946520907 10.426474271002895 0.16781176743611464 0 -1 1
442 0 1 -1.1794 10.794347448323535 9.91470891494721 4.040164368975521 -1 1 1
732 0 2 0.5897 12.211347489952914 10.306418492894087 1.5306851981847704 0 -1 1
730 0 1 -1.1794 11.790031304294086 11.12996255640853 1.1348725451567534 0 -1 1
320 0 2 0.5897 12.792022322709755 11.760561903536386 4.091630043906372 -1 0 1
319 0 1 -1.1794 13.541869479374835 12.33825749394591 3.9708038133257575 -1 0 1
607 0 1 -1.1794 13.462082214336391 8.733015991696908 2.087245695379312 1 0 1
731 0 2 0.5897 12.463520608973981 11.621468846066891 0.6035969304101563 0 -1 1
404 0 2 0.5897 10.879918216597098 12.83495681624914 1.9659725834003503 0 0 1
635 0 2 0.5897 10.22480687764298 10.742550862603041 0.34552519399545245 0 -1 1
443 0 2 0.5897 10.15311795708094 10.59944392840278 3.923121656813863 -1 1 1
698 0 2 0.5897 17.666404759346847 10.691234464224946 3.5672478103542855 -1 1 0
697 0 1 -1.1794 17.938881859531875 11.49418131510248 3.1093576334301147 -1 1 0
608 0 2 0.5897 14.083141393701244 8.81498567106009 1.3487595147208675 1 0 1
321 0 2 0.5897 14.31793583486709 11.90892925908795 3.573414517799932 -1 0 1
784 0 1 -1.1794 15.50948963824551 11.964138261541741 1.8783943381060078 -2 0 1
785 0 2 0.5897 16.3608342650216 12.302273927507528 2.12609700845727 -2 0 1
128 0 2 0.5897 15.314519178047112 10.711477121467386 0.7655142559757497 -2 0 1
129 0 2 0.5897 15.998717543988576 9.473506449970897 0.181980607325538 -2 0 1
786 0 2 0.5897 15.002382962932627 12.708801690797843 1.509319198691144 -2 0 1
845 0 2 0.5897 1.68192182312997 12.939920893615696 0.6008006179564336 0 0 2
336 0 2 0.5897 2.6209112151776703 15.801973220777105 1.3433396019698864 0 1 0
557 0 2 0.5897 1.2506629927543416 16.28061676024828 3.095104409653354 0 -1 0
334 0 1 -1.1794 2.349610354690194 16.62523292285276 1.7702878118292182 0 1 0
558 0 2 0.5897 0.8961790026027849 15.008401536782623 3.981732637033257 0 -1 0
556 0 1 -1.1794 0.8270898845808903 15.958285700995676 3.9149571970903123 0 -1 0
859 0 1 -1.1794 4.266255001293679 13.000463065724093 4.500046830197028 1 0 1
335 0 2 0.5897 1.5898395991402698 16.868755586271625 1.1692834517569772 0 1 0
781 0 1 -1.1794 2.954028080919925 14.151911584199782 0.41189192788151613 0 0 1
782 0 2 0.5897 3.922129636174383 13.98993043657749 0.4265878302966297 0 0 1
689 0 2 0.5897 7.333102483176552 13.693847481364942 1.309131840946458 0 0 1
74 0 2 0.5897 5.763011753554046 14.483635383453295 0.9552948374567434 -1 0 0
690 0 2 0.5897 7.443056609596911 14.307980335521336 2.6401168759078253 0 0 1
688 0 1 -1.1794 7.753655206028197 13.545596987082101 2.166914951876625 0 0 1
293 0 2 0.5897 5.796465227160303 16.018383611383765 3.3435925628351892 0 0 0
292 0 1 -1.1794 5.83888049267839 15.040734885559834 3.2347946743168112 0 0 0
294 0 2 0.5897 5.189059358733279 14.666866042608069 3.7905455535633648 0 0 0
73 0 1 -1.1794 5.559146647321776 13.78316763032654 0.3186682040701384 -1 0 0
76 0 1 -1.1794 7.160845056344563 16.227371754498314 0.5775153991892403 0 0 2
78 0 2 0.5897 6.366720752226687 16.569493750521012 0.18600090452782844 0 0 2
403 0 1 -1.1794 10.583884405505314 13.650469872718254 2.2923623091179692 0 0 1
405 0 2 0.5897 9.664954307988879 13.647908981594044 2.1052336082664853 0 0 1
35 0 2 0.5897 11.431469046782778 14.872125087252464 0.9203774644639605 0 0 1
741 0 2 0.5897 11.583129626649509 16.76793232598643 3.276466806512305 0 0 0
36 0 2 0.5897 12.148158668505426 16.09587232453236 0.19294454687738583 0 0 1
224 0 2 0.5897 9.31791046116296 13.836470840665825 4.368184633639752 0 0 -1
653 0 2 0.5897 12.124650876439423 14.329919046702013 3.620984414847803 -1 0 -1
652 0 1 -1.1794 12.202756382924338 15.259332050562419 3.851761645742066 -1 0 -1
514 0 1 -1.1794 14.90195760705356 15.118312015491641 2.5081313839596064 -1 0 0
422 0 2 0.5897 15.898718878540663 15.738337637829813 0.969635497047287 1 -1 0
421 0 1 -1.1794 15.979817750547411 16.402069422679823 0.20507490872093487 1 -1 0
515 0 2 0.5897 14.040565015924887 15.326965602705473 2.8298311107531364 -1 0 0
516 0 2 0.5897 15.431590715267953 15.167027397670903 3.2818154616811803 -1 0 0
283 0 1 -1.1794 2.082680271340422 20.69194032488968 0.6432219397536079 -1 0 1
266 0 2 0.5897 3.337923884812694 18.1231791762388 1.6072618486042234 0 -1 0
265 0 1 -1.1794 4.060308159308635 18.807107205386806 1.6506772757024477 0 -1 0
285 0 2 0.5897 2.82467607833148 20.166028466966033 1.0617198432168777 -1 0 1
267 0 2 0.5897 4.569897583786633 18.692179258150503 0.8287418988279713 0 -1 0
32 0 2 0.5897 4.573168531827955 20.90210371567207 2.572826442104992 0 0 1
638 0 2 0.5897 2.1700838723406157 20.50483873657437 4.175232447666585 1 1 2
43 0 1 -1.1794 0.30342106104155353 17.5848044577233 0.3043885901859984 0 -1 1
242 0 2 0.5897 5.423441475109205 18.40622348599306 2.675015673227353 0 -1 1
241 0 1 -1.1794 6.0176523840261655 18.046093516874144 3.3733844107786033 0 -1 1
243 0 2 0.5897 6.9304831974302274 18.306148533185414 3.2810753275969127 0 -1 1
345 0 2 0.5897 8.428486794693749 17.59368734101448 1.0542981799197584 -1 0 1
343 0 1 -1.1794 9.034843963255772 18.274771056261244 1.4545928635775829 0 0 1
435 0 2 0.5897 9.4177364845924 17.347162476144014 4.248725262493699 0 0 1
739 0 1 -1.1794 11.018032289935086 17.579316286392917 3.2558356846553975 0 0 0
312 0 2 0.5897 9.773625952079632 19.84327007567407 2.7627414033331648 0 0 0
344 0 2 0.5897 9.740301800997972 17.75876572179982 1.9086815812534945 0 0 1
740 0 2 0.5897 11.647814787058415 18.26799348899226 3.0290322228906277 0 0 0
624 0 2 0.5897 13.10118877939841 18.180734540444902 0.28864218124863716 -1 1 0
67 0 1 -1.1794 12.779274449653387 19.338124704798766 1.7548588860094387 -1 -1 0
69 0 2 0.5897 12.679181210074143 20.184920637381538 1.3639354264427375 0 -1 0
310 0 1 -1.1794 9.811441107986916 20.72648477969659 3.260049400152861 0 0 0
311 0 2 0.5897 10.396188524523582 20.586938081487617 4.0162069628882575 0 0 0
849 0 2 0.5897 9.686134610579476 19.31050061738378 0.1616223811085294 0 0 1
671 0 2 0.5897 15.114999974877819 17.366662774893634 2.6331074900686335 -2 0 1
710 0 2 0.5897 18.09678507186549 20.370272644212804 1.0034040658588426 -1 0 1
709 0 1 -1.1794 17.146000566715635 20.278608315507796 1.1567535929870778 -1 0 1
711 0 2 0.5897 17.13084021718403 19.3181445085484 1.3126236903623294 -1 0 1
68 0 2 0.5897 13.681200722869427 19.303334225218357 2.142872160800236 -1 -1 0
672 0 2 0.5897 15.71260070209137 18.518566982472557 3.474413808811528 -2 0 1
670 0 1 -1.1794 14.904198296840493 18.27458384373748 3.0117743726621433 -2 0 1
304 0 1 -1.1794 17.533793147073773 19.479720900979984 4.36579601686158 -1 -1 1
44 0 2 0.5897 17.345166243909816 17.319311659648697 0.14949292942581138 -1 -1 1
548 0 2 0.5897 1.9807408501494783 3.5500391702292498 4.879203510972123 1 1 1
459 0 2 0.5897 2.8376060839747104 1.2668537468207977 7.680142952498787 1 1 0
549 0 2 0.5897 1.0359172544276678 3.505119475578217 6.072287097830596 1 1 1
657 0 2 0.5897 0.33851049352979135 1.969148072985222 7.430840146436679 2 0 0
547 0 1 -1.1794 1.0783730409086252 3.8260023628295694 5.153451790175947 1 1 1
457 0 1 -1.1794 1.969689677939106 1.0519495533036927 7.359389833820239 1 1 0
458 0 2 0.5897 2.0728357816545353 0.5887586664364455 6.5506947448874495 1 1 0
541 0 1 -1.1794 5.7440494160648 1.3844657425754343 5.339817547968422 0 2 0
348 0 2 0.5897 6.462708273432153 3.821738141468706 4.763035305162608 -1 1 0
195 0 2 0.5897 5.13356272751773 1.9831599710461112 8.696890877982746 0 1 1
193 0 1 -1.1794 4.894292682313918 1.2475962415320523 8.072092211220372 0 1 1
542 0 2 0.5897 6.341701259895461 0.6341638530369011 5.452110567420233 0 2 0
543 0 2 0.5897 5.228895465556495 1.3610479384189074 6.172497741432731 0 2 0
238 0 1 -1.1794 8.31168528450911 3.511192245350294 4.739001501408287 1 -1 1
51 0 2 0.5897 8.758608290858001 0.8587264111947116 6.204672668438395 0 0 1
412 0 1 -1.1794 8.890140228979012 3.783311171041939 8.11351265490321 -1 -1 1
414 0 2 0.5897 9.023869371445839 2.9115544904556137 7.847707086301354 -1 -1 1
239 0 2 0.5897 8.725771815058833 2.855257642655947 5.286103010217688 1 -1 1
194 0 2 0.5897 5.47685990786001 0.4817535145867863 8.300289427509268 0 1 1
555 0 2 0.5897 7.029582975807194 3.8658225808436857 8.696323463517297 0 1 0
413 0 2 0.5897 9.561847930915272 3.9663862420316582 8.770897486953322 -1 -1 1
49 0 1 -1.1794 9.25535747253919 1.4002272857610312 6.821536791816702 0 0 1
50 0 2 0.5897 10.184927899989189 1.3617723724693194 6.463454139864385 0 0 1
392 0 2 0.5897 12.040537924618345 2.6492717565549153 5.818432634671724 1 0 0
391 0 1 -1.1794 11.89901699989984 1.6761286135696158 5.624454577893579 1 0 0
393 0 2 0.5897 12.701344360430443 1.1932668202791288 5.905202205763012 1 0 0
619 0 1 -1.1794 12.090090259735854 4.347596765298935 5.547563421220162 0 1 -1
751 0 1 -1.1794 16.504071475884572 4.346185559926231 4.776528510732623 -1 1 1
655 0 1 -1.1794 17.64332769248501 2.624756821731533 7.2149027356937525 1 0 0
656 0 2 0.5897 17.27405743266204 2.9628040940302345 8.02052286916996 1 0 0
139 0 1 -1.1794 16.385236535238462 1.0100898366645557 4.923348326695091 1 0 0
140 0 2 0.5897 16.603314254326797 1.6575582374353943 5.61129891034796 1 0 0
752 0 2 0.5897 17.23869089626539 3.9208852405372236 5.282265210848575 -2 1 1
329 0 2 0.5897 14.900951740459549 0.38637502347334934 5.529775377918952 -1 0 -1
780 0 2 0.5897 13.873266043496672 0.1442578147564365 7.641380644141788 1 1 -1
682 0 1 -1.1794 1.4109132079021203 7.233428511185445 5.227288974165915 0 1 1
683 0 2 0.5897 1.2629593234266374 6.297578665022554 5.34278420588321 0 1 1
664 0 1 -1.1794 4.086630682486476 5.251050080995509 8.110953963645873 1 1 0
665 0 2 0.5897 4.2650507261765584 5.956110162028647 7.48741784438102 1 1 0
6 0 2 0.5897 4.351518039287752 7.974260310128836 6.655961822880369 1 1 0
666 0 2 0.5897 3.150195085446506 5.312120037630675 8.246509030515114 1 1 0
4 0 1 -1.1794 5.047553675354307 7.256370018589394 6.597558159249378 1 1 0
5 0 2 0.5897 4.975222596942601 6.998332754767336 5.720598346861174 1 1 0
554 0 2 0.5897 5.64960262076744 4.567766810063291 8.792301184935026 0 1 1
807 0 2 0.5897 6.209024038518171 7.348826775546855 8.374083535428506 1 1 0
806 0 2 0.5897 7.7150761197225615 7.484606959579105 8.756015212441696 1 1 0
620 0 2 0.5897 12.180495264109371 4.496753806090738 4.605262067764693 0 1 -1
840 0 2 0.5897 9.227124637480077 4.775888274774334 6.815051202016152 1 0 1
839 0 2 0.5897 9.312123836275799 5.448684133773449 5.425831033672238 1 0 1
838 0 1 -1.1794 9.576404058369645 5.630378640108754 6.383654515061014 1 0 1
400 0 1 -1.1794 9.22620899881257 8.238939074584506 8.184474731740682 0 0 0
401 0 2 0.5897 9.26260760112309 7.446986356860425 7.631021030986003 0 0 0
621 0 2 0.5897 11.277796914712514 4.8812284663076015 5.830212015469031 0 1 -1
819 0 2 0.5897 12.572474175935826 6.703721983702702 8.660360048680078 0 0 0
192 0 2 0.5897 13.694825154360712 4.717873602562189 6.341560781842921 0 1 0
764 0 2 0.5897 14.389079267665222 4.538989254929838 8.742075814620332 0 1 0
190 0 1 -1.1794 14.57293382981932 4.945308301798139 6.553367998174914 0 0 0
191 0 2 0.5897 15.166173125732241 4.737764501075854 5.838898706864059 0 1 0
371 0 2 0.5897 14.137881878992507 6.654835465688657 7.122897945332932 -1 0 1
370 0 1 -1.1794 13.668339506226912 7.521518459664923 7.0927574454288225 -1 0 1
372 0 2 0.5897 14.161422215773408 8.202145673511183 7.605227693874835 -1 0 1
342 0 2 0.5897 16.352201700749617 5.554601851644548 7.42487112992867 0 1 0
341 0 2 0.5897 17.19494161965472 6.431212520018207 8.41233719732572 0 1 1
340 0 1 -1.1794 16.73654328220185 5.553784316845992 8.299890791403929 0 1 0
560 0 2 0.5897 13.923969184788161 8.091817104070541 5.3718426748537205 1 0 0
628 0 1 -1.1794 17.20647258836069 8.266019267388648 8.767944119245838 -1 0 0
630 0 2 0.5897 17.77119429808515 8.575800737706375 8.061830873810617 -1 0 0
47 0 2 0.5897 1.5343426469351593 9.954390462366453 7.128411097459591 0 0 0
48 0 2 0.5897 1.2246089140041359 9.171818383800339 5.816860400146772 0 0 0
406 0 1 -1.1794 2.7781626136095716 10.452705179792696 8.194385484601046 1 -1 0
101 0 2 0.5897 3.8909008489596664 9.8273191061229 4.83674085368352 1 -1 -1
100 0 1 -1.1794 3.8415212433027506 9.594453202944415 5.761792560874368 1 -1 -1
407 0 2 0.5897 2.3442857035310096 11.243554523902548 8.633784769065304 1 -1 0
102 0 2 0.5897 3.2974830756265354 10.232547318128674 6.244382086799448 1 -1 -1
46 0 1 -1.1794 0.8186437096462329 9.684610079415238 6.524598715406035 0 0 0
491 0 2 0.5897 4.838385749207738 11.140973370653898 8.178523557596053 0 1 -1
804 0 2 0.5897 7.581894227982334 9.13703820987134 5.479168113302884 1 0 1
802 0 1 -1.1794 7.894553647186931 9.844878401039859 6.041108553381696 1 0 1
803 0 2 0.5897 7.090649877532448 10.044033049536658 6.588805758407601 1 0 1
490 0 1 -1.1794 5.797244137562507 11.259634804943628 7.912279741402293 0 1 -1
492 0 2 0.5897 6.383424454155419 11.249072555183508 8.674614113657093 0 1 -1
466 0 1 -1.1794 9.0426964941675 12.051688481228418 7.306142923458359 -1 1 0
25 0 1 -1.1794 6.436906136739195 12.832302614518788 5.814346995116839 0 0 0
27 0 2 0.5897 6.506793264948394 12.271856783804147 6.524093290788526 0 0 0
26 0 2 0.5897 7.232845752609585 12.742105236805518 5.249329604053933 0 0 0
402 0 2 0.5897 9.24287038267839 8.950458614629326 7.5784859895744034 0 0 0
230 0 2 0.5897 12.027876632143462 9.133994154012868 6.859819123150343 1 0 0
467 0 2 0.5897 9.13580610563491 11.563684490920743 6.447224072337853 -1 1 0
444 0 2 0.5897 10.903448327966561 9.890616922179523 4.978261193919089 -1 1 1
229 0 1 -1.1794 11.483333563330238 9.922673557179996 6.894273852348141 1 0 0
231 0 2 0.5897 12.157081174769491 10.592964703485157 7.091275605039665 1 0 0
8 0 2 0.5897 10.18580506850691 11.697070011153114 8.600027683509797 0 0 1
212 0 2 0.5897 13.560234829511396 12.673370982544682 7.502230460983479 1 1 0
213 0 2 0.5897 13.6850405530496 12.301239213475125 5.952125860153488 1 1 0
211 0 1 -1.1794 13.924319496848332 12.04873227305639 6.882856547064809 1 1 0
559 0 1 -1.1794 14.344471425528578 8.74846291471407 4.8024394211977945 1 0 0
135 0 2 0.5897 15.721284705153387 10.063365003563357 5.9502305004239435 0 1 0
133 0 1 -1.1794 16.391545902957837 10.64079466419717 6.3863576617231805 0 1 0
134 0 2 0.5897 17.241299993824626 10.231936107947842 6.1233357699109785 0 1 0
248 0 2 0.5897 16.364247197034487 12.578646401763937 6.476209282202812 0 2 1
773 0 2 0.5897 14.815681858156463 10.414338021462669 8.155252496045453 0 1 -1
772 0 1 -1.1794 14.77562988498761 9.583527480959939 8.588260934791196 0 1 -1
629 0 2 0.5897 16.30972277825782 8.646529125751767 8.653087480641755 -1 0 0
598 0 1 -1.1794 1.4107298536500708 13.273948554890206 4.676331381900276 0 0 0
600 0 2 0.5897 2.3733419983381596 13.15026413323897 4.81540894130402 0 0 0
599 0 2 0.5897 0.9966107712379376 12.965849061319997 5.49189308377299 0 0 0
162 0 2 0.5897 2.8437669701680557 13.693062852793757 8.177768526648604 -1 -1 0
160 0 1 -1.1794 3.0380742323012044 14.007554972950464 7.256611481868488 -1 -1 0
762 0 2 0.5897 2.386782732062273 15.672269017491486 6.895905926687286 0 1 1
761 0 2 0.5897 1.643847837249246 16.060536581133707 5.586909419799529 0 1 1
760 0 1 -1.1794 2.0129389424910555 16.4310781497744 6.422034972543913 0 1 1
161 0 2 0.5897 3.9570149485700092 13.728731367584345 7.115361260210458 -1 -1 0
468 0 2 0.5897 9.01874863758521 12.934678536324197 7.0511125974554325 -1 1 0
860 0 2 0.5897 5.078889554257446 12.920073618377831 5.047925957449669 1 0 1
41 0 2 0.5897 6.903679331733009 15.104556014248084 5.902701747700418 1 1 0
42 0 2 0.5897 6.40979455157135 15.849117945495184 7.208554200116193 0 1 0
40 0 1 -1.1794 6.869753748178706 15.904636573578962 6.363801373986327 1 1 0
223 0 1 -1.1794 8.986050891423199 14.635463714158286 4.807526006069726 0 0 -1
434 0 2 0.5897 8.365510235854481 16.716278973679444 5.17966494763271 0 0 1
201 0 2 0.5897 4.951914752683091 16.843934418036184 8.701413964324283 1 -1 0
199 0 1 -1.1794 5.822472016416314 16.558818117033596 8.874481686101843 1 -1 0
225 0 2 0.5897 9.757124493694336 15.081564826783547 5.140028415255347 0 0 -1
175 0 1 -1.1794 11.418987493004986 14.855267212129862 6.406010970117287 0 0 1
176 0 2 0.5897 11.96159843281088 14.437103939363237 7.070638135672253 -1 0 1
177 0 2 0.5897 11.313118573989714 15.714185348231132 6.815748112146322 0 0 1
654 0 2 0.5897 12.38928512831783 15.301738802930625 4.819558614568642 -1 0 -1
256 0 1 -1.1794 12.350472216967232 13.692059952365218 8.818946819369552 0 0 0
448 0 1 -1.1794 12.928514243845479 16.751451640281516 8.663300921994376 0 0 -1
247 0 1 -1.1794 17.05123772489503 13.200381633539404 6.390900686482986 0 2 1
483 0 2 0.5897 14.44523968308448 16.298344888504488 7.987263360108701 0 -1 0
793 0 1 -1.1794 16.23324236831524 15.644921651299319 4.701931226256038 1 -1 0
249 0 2 0.5897 16.772215851957014 13.900802982758416 5.796299970871221 0 2 1
794 0 2 0.5897 15.634925050645517 16.061126549465044 5.339588709782099 1 -1 0
795 0 2 0.5897 16.99900978613602 16.267189713201702 4.630683628012695 1 -1 0
14 0 2 0.5897 17.25055536485862 13.814429215741963 7.941411598401654 -2 0 0
481 0 1 -1.1794 14.983308015028669 16.59610754118519 7.201092969138615 0 -1 0
482 0 2 0.5897 15.892168915329437 16.899255113315363 7.334089747214266 0 -1 0
13 0 1 -1.1794 17.495927947013747 14.011371077577623 8.835170251463472 -1 0 0
637 0 1 -1.1794 2.6341955638568635 20.744598105412763 4.978704319049802 1 1 2
639 0 2 0.5897 3.19106011626451 19.980511018370187 5.227028166499643 1 1 2
150 0 2 0.5897 2.688571562969038 17.69801150564853 8.362339775622294 0 -1 0
425 0 2 0.5897 3.741150869187529 17.826690016295302 5.804889603631378 0 -1 1
497 0 2 0.5897 1.911891090446581 20.75477554810739 8.58254354985309 -1 0 0
180 0 2 0.5897 0.46328753784220705 17.228026576201408 7.0361135812971165 0 0 0
424 0 1 -1.1794 4.2638569315782044 18.59443360894023 5.725070025478005 0 -1 1
426 0 2 0.5897 4.935886109837503 18.396852004748276 5.0738578772958824 0 -1 1
64 0 1 -1.1794 7.787504974734175 20.738254868363917 5.347347687941353 0 -1 0
65 0 2 0.5897 8.368170316606259 20.447359302794247 4.670140942528119 0 -1 0
88 0 1 -1.1794 6.765028322426229 18.77899014357117 6.847055012702742 1 0 0
90 0 2 0.5897 5.813267364950663 18.918516393313745 6.72411953689951 1 0 0
66 0 2 0.5897 7.602327728767236 19.89690200289209 5.942039979790131 0 -1 0
584 0 2 0.5897 6.934530476746219 19.939738139090935 8.389211771949983 1 0 -1
89 0 2 0.5897 6.860468495042841 17.803926602772684 6.700020325518441 1 0 0
433 0 1 -1.1794 8.82454298438739 17.5419770551282 4.930105253420965 0 0 1
200 0 2 0.5897 6.515725420893944 17.26249508034131 8.879037888167757 1 -1 0
513 0 2 0.5897 10.350893134773886 18.65121973418534 5.4298288300425135 -1 -1 1
325 0 1 -1.1794 9.548185894508315 19.733508397978326 8.314764576662832 0 0 0
326 0 2 0.5897 9.441597779178283 20.686351411511914 8.59760533064414 0 0 0
511 0 1 -1.1794 10.822912699134678 19.467450079399867 5.761709273682518 -1 -1 1
512 0 2 0.5897 11.740541717401562 19.081079901565133 5.882582936266714 -1 -1 1
327 0 2 0.5897 9.790507546691854 19.664305723836712 7.3830609763768065 0 0 0
450 0 2 0.5897 12.831625210073721 17.703923352970087 8.836868564148931 0 -1 -1
165 0 2 0.5897 11.32375317287812 19.452940497053092 8.733660849557735 -1 -1 1
178 0 1 -1.1794 17.650706057278363 17.75299221377449 7.084084423306772 -1 0 0
328 0 1 -1.1794 14.091796211498751 21.30720418685118 5.9562464507778925 -1 -1 -1
179 0 2 0.5897 17.771884086648292 18.100923576653805 7.943259247225528 -1 0 0
330 0 2 0.5897 13.989285784225608 20.36619185199074 5.674854989523853 -1 -1 -1
808 0 1 -1.1794 13.766268351689922 18.582801792085284 5.6861292902312695 0 1 0
306 0 2 0.5897 17.188132261211557 20.266549594747815 4.680345779938264 -1 -1 1
305 0 2 0.5897 17.606106415971972 19.037848269783517 5.22853860520464 -1 -1 1
809 0 2 0.5897 14.172730440895096 18.281885945878663 4.85240469549507 0 1 0
810 0 2 0.5897 14.130923276853903 18.0085302841879 6.378458126934151 0 1 0
778 0 1 -1.1794 13.953392430989624 21.21282926557454 8.58564661442473 1 0 -1
523 0 1 -1.1794 2.987306902517729 2.782984605314032 10.20348387181655 1 1 0
525 0 2 0.5897 2.555419978740052 3.4219827577708197 9.644625554848425 1 1 0
524 0 2 0.5897 3.0858348555319126 3.2118524679713794 11.117220410477799 1 1 0
339 0 2 0.5897 4.09627189027726 1.096614507216891 10.346999825814363 1 0 1
605 0 2 0.5897 3.9153029776255 3.476193679707601 13.279663309788308 -1 1 0
318 0 2 0.5897 1.027390785878369 2.2532887230682834 10.249357816860652 0 2 -1
337 0 1 -1.1794 4.083203810521157 0.2907792446913501 10.952177651844684 1 0 1
604 0 1 -1.1794 3.3865351905010472 4.130019140836528 12.799843573345848 -1 1 0
606 0 2 0.5897 2.381759195117463 4.089329360523507 13.015489822278663 -1 1 0
172 0 1 -1.1794 2.3507516567091793 1.074968880117315 12.998624648928589 1 0 1
173 0 2 0.5897 2.99110689746054 0.8540570728396338 12.328080619495212 1 0 1
174 0 2 0.5897 1.3511457895504388 1.098005972944211 12.769469248237785 1 0 1
317 0 2 0.5897 0.2176432102828273 1.0880912053121372 10.077772295457594 0 2 -1
316 0 1 -1.1794 0.13552277260544798 2.0091450217197755 9.98508497631836 0 2 -1
553 0 1 -1.1794 6.136567090903024 3.7245743036920236 9.050676695586493 0 1 0
517 0 1 -1.1794 6.7460681836831 2.3243542789163323 11.495171399099291 -1 0 0
518 0 2 0.5897 6.113228719567683 2.2270926145398073 12.226410097459617 -1 0 0
519 0 2 0.5897 6.29206875019026 2.8229283938515555 10.823481242927318 -1 0 0
479 0 2 0.5897 8.205903246145544 1.3743465792921696 10.48977348902636 0 1 0
480 0 2 0.5897 8.977955261127905 1.490789845730177 9.117913749050908 0 1 0
478 0 1 -1.1794 8.712039784576941 0.9062754658538471 9.796099062813687 0 1 0
842 0 2 0.5897 7.568503400162623 0.4715048812442718 12.841785434339208 1 0 0
779 0 2 0.5897 13.48398558654564 0.7512096036961347 9.033121202342253 1 1 -1
614 0 2 0.5897 10.303846556740089 2.9434027445307422 13.095850700689278 2 1 0
669 0 2 0.5897 11.748223517558818 3.573908807266025 9.95191208942136 0 1 0
667 0 1 -1.1794 11.117456193065241 4.301365172527796 9.88303448274572 0 1 0
146 0 2 0.5897 12.682703919416905 1.794130013531491 11.129669939368952 0 0 0
145 0 1 -1.1794 12.820496921499107 1.9664399952988925 10.154486816324592 0 0 0
601 0 1 -1.1794 12.415086852973463 1.015941876401701 12.675390239270111 0 0 0
615 0 2 0.5897 10.850992247817112 1.4993998247264129 12.863502429388102 2 1 0
603 0 2 0.5897 13.009981218832694 1.6472709315139649 13.161131583298586 0 0 0
147 0 2 0.5897 13.467025004063395 2.7332827912120545 10.084012692156719 0 0 0