LAMMPS (29 Sep 2021 - Update 2)
  using 1 OpenMP thread(s) per MPI task
plugin load libdeepmd_lmp.so
Loading plugin: deepmd pair style v2.0 by Han Wang
Loading plugin: compute deeptensor/atom v2.0 by Han Wang
Loading plugin: fix dplr v2.0 by Han Wang
echo both

include		in.partitions
variable        pid world 0
include		in.temp
variable        temperature equal 280
variable        tempDamp equal 0.100
include		in.pressure
variable        pressure equal 0.986923
variable        pressureDamp equal 1.0 # This is 1 ps
include		in.seed
variable        seed world 745823

units           metal
atom_style	full
include		in.box
read_data       water.data
Reading data file ...
  orthogonal box = (0.0000000 0.0000000 0.0000000) to (18.207573 21.446115 22.213196)
  1 by 1 by 1 MPI processor grid
  reading atoms ...
  864 atoms
  reading velocities ...
  864 velocities
Finding 1-2 1-3 1-4 neighbors ...
  special bond factors lj:    0        0        0       
  special bond factors coul:  0        0        0       
     0 = max # of 1-2 neighbors
     0 = max # of 1-3 neighbors
     0 = max # of 1-4 neighbors
     1 = max # of special neighbors
  special bonds CPU = 0.000 seconds
  read_data CPU = 0.039 seconds
include 	in.setup
variable	out_freq equal 500
variable	out_freq2 equal 500

timestep        0.0005

neigh_modify    delay 7 every 1

include         in.deepmd
# This is deepMD model

# create groups ###
#group ox type 2
#group hy type 1

mass 2 15.999
mass 1 1.008

pair_style      deepmd ../graph.pb
pair_coeff      * *

bond_style      none
angle_style     none
dihedral_style  none
improper_style  none
neigh_modify exclude none


neighbor        2.0 bin
neigh_modify    every 10 delay 0 check no

thermo          ${out_freq}
thermo          500
thermo_style 	custom step temp pe etotal epair emol press lx ly lz xy xz yz vol pxx pyy pzz pxy pxz pyz cella cellb cellc cellalpha cellbeta cellgamma


restart 	${out_freq} restart.lmp.${pid} restart2.lmp.${pid}
restart 	500 restart.lmp.${pid} restart2.lmp.${pid}
restart 	500 restart.lmp.0 restart2.lmp.${pid}
restart 	500 restart.lmp.0 restart2.lmp.0


include         in.dump
dump            myDump all atom ${out_freq2} dump.water.${pid}
dump            myDump all atom 500 dump.water.${pid}
dump            myDump all atom 500 dump.water.0
dump            myDump2 all dcd ${out_freq2} dump.dcd
dump            myDump2 all dcd 500 dump.dcd
dump_modify     myDump append yes
dump_modify     myDump2 append yes


timer           timeout 23:50:00 every 1000
New timer settings: style=normal  mode=nosync  timeout=23:50:00

fix             2 all nph iso ${pressure} ${pressure} ${pressureDamp}
fix             2 all nph iso 0.986923 ${pressure} ${pressureDamp}
fix             2 all nph iso 0.986923 0.986923 ${pressureDamp}
fix             2 all nph iso 0.986923 0.986923 1
fix             3 all temp/csvr ${temperature} ${temperature} ${tempDamp} ${seed}
fix             3 all temp/csvr 280 ${temperature} ${tempDamp} ${seed}
fix             3 all temp/csvr 280 280 ${tempDamp} ${seed}
fix             3 all temp/csvr 280 280 0.1 ${seed}
fix             3 all temp/csvr 280 280 0.1 745823
velocity 	all create ${temperature} ${seed} dist gaussian
velocity 	all create 280 ${seed} dist gaussian
velocity 	all create 280 745823 dist gaussian

run             2000000

CITE-CITE-CITE-CITE-CITE-CITE-CITE-CITE-CITE-CITE-CITE-CITE-CITE

Your simulation uses code contributions which should be cited:

- USER-DEEPMD package:

@article{Wang_ComputPhysCommun_2018_v228_p178,
  author = {Wang, Han and Zhang, Linfeng and Han, Jiequn and E, Weinan},
  doi = {10.1016/j.cpc.2018.03.016},
  url = {https://doi.org/10.1016/j.cpc.2018.03.016},
  year = 2018,
  month = {jul},
  publisher = {Elsevier {BV}},
  volume = 228,
  journal = {Comput. Phys. Commun.},
  title = {{DeePMD-kit: A deep learning package for many-body potential energy representation and molecular dynamics}},
  pages = {178--184}
}

CITE-CITE-CITE-CITE-CITE-CITE-CITE-CITE-CITE-CITE-CITE-CITE-CITE

Neighbor list info ...
  update every 10 steps, delay 0 steps, check no
  max neighbors/atom: 2000, page size: 100000
  master list distance cutoff = 8
  ghost atom cutoff = 8
  binsize = 4, bins = 5 6 6
  1 neighbor lists, perpetual/occasional/extra = 1 0 0
  (1) pair deepmd, perpetual
      attributes: full, newton on
      pair build: full/bin
      stencil: full/bin/3d
      bin: standard
Per MPI rank memory allocation (min/avg/max) = 7.215 | 7.215 | 7.215 Mbytes
Step Temp PotEng TotEng E_pair E_mol Press Lx Ly Lz Xy Xz Yz Volume Pxx Pyy Pzz Pxy Pxz Pyz Cella Cellb Cellc CellAlpha CellBeta CellGamma 
       0          280    -134.9383   -103.70388    -134.9383            0    24837.364    18.207573    21.446115    22.213196            0            0            0    8673.8466    24696.878    25637.846    24177.368    1097.2354   -262.41609    -875.2421    18.207573    21.446115    22.213196           90           90           90 
     500    268.48029   -125.80023   -95.850851   -125.80023            0   -3688.9361    18.394014    21.665718    22.440654            0            0            0    8943.0387   -1405.4575   -5653.2384   -4008.1125    767.81808   -1448.8412   -472.86949    18.394014    21.665718    22.440654           90           90           90 
    1000    279.39802   -123.15656   -91.989287   -123.15656            0    1704.8339    18.476159    21.762474    22.540871            0            0            0    9063.3897   -494.03745    2355.8809    3252.6584   -458.18458    811.60239   -1221.5872    18.476159    21.762474    22.540871           90           90           90 
    1500    274.43444   -124.58255   -93.968975   -124.58255            0    1858.7587    18.433813    21.712596    22.489209            0            0            0    9001.2145    1452.9214    2843.0287    1280.3261    966.46367   -446.24196    444.81832    18.433813    21.712596    22.489209           90           90           90 
    2000    279.14564   -122.91209   -91.772976   -122.91209            0   -2558.5851    18.435106    21.714119    22.490786            0            0            0    9003.1082   -1524.9857   -2412.3539   -3738.4157    985.26458    1125.7805    965.75186    18.435106    21.714119    22.490786           90           90           90 
    2500    287.29235   -121.77382   -89.725927   -121.77382            0    2344.9553    18.411954    21.686849    22.462541            0            0            0    8969.2311    6318.4776    -688.8351    1405.2234    1245.8316    1001.1706   -1382.4403    18.411954    21.686849    22.462541           90           90           90 
    3000    275.88474   -120.64234   -89.866986   -120.64234            0   -12.702656    18.391784    21.663091    22.437933            0            0            0    8939.7861    1729.0672   -977.70404   -789.47114    312.45472   -1233.9624   -1535.4214    18.391784    21.663091    22.437933           90           90           90 
    3500    275.04258   -122.04712   -91.365702   -122.04712            0    2137.7932    18.295041    21.549141    22.319907            0            0            0    8799.4541    1439.0721    1905.9977    3068.3099   -1081.9688    2231.0175   -1192.8176    18.295041    21.549141    22.319907           90           90           90 
    4000    273.14425   -121.85415   -91.384499   -121.85415            0   -2429.1529    18.218054     21.45846    22.225982            0            0            0    8688.8338   -2754.0416   -2622.0627   -1911.3545   -2319.8563   -2545.0108    1783.5523    18.218054     21.45846    22.225982           90           90           90 
    4500     272.7331   -121.76351   -91.339719   -121.76351            0    2119.7434    18.203107    21.440855    22.207748            0            0            0    8667.4656    1139.3221    3075.0837    2144.8244    1093.7233      1781.27    1283.1359    18.203107    21.440855    22.207748           90           90           90 
    5000    286.07695   -123.18194   -91.269629   -123.18194            0    445.56805    18.219376    21.460017    22.227596            0            0            0    8690.7258     1651.855    -19.74525   -295.40562   -1043.5368    55.431931   -718.68368    18.219376    21.460017    22.227596           90           90           90 
    5500    270.56834    -122.0408   -91.858495    -122.0408            0    -1162.744    18.131196    21.356153    22.120016            0            0            0    8565.1483   -1512.5581   -1949.1671   -26.506761   -630.92912    1065.8498   -1046.5734    18.131196    21.356153    22.120016           90           90           90 
    6000    276.99652   -122.07413   -91.174754   -122.07413            0    1796.6773    18.217715    21.458061     22.22557            0            0            0    8688.3496    647.61967    88.879206    4653.5329     -95.9667   -1681.7011     2848.019    18.217715    21.458061     22.22557           90           90           90 
    6500    272.60459   -121.57331   -91.163858   -121.57331            0   -1634.1712    18.289168    21.542223    22.312741            0            0            0    8790.9818    555.75864   -2075.8493   -3382.4228   -2346.8341    591.47657    2102.1741    18.289168    21.542223    22.312741           90           90           90 
    7000       287.15   -121.16625   -89.134239   -121.16625            0   -3057.8183    18.216341    21.456442    22.223892            0            0            0     8686.383   -3933.1043   -3821.5745   -1418.7762    2652.1201   -976.34379    896.26907    18.216341    21.456442    22.223892           90           90           90 
    7500    280.70968   -121.09359   -89.780005   -121.09359            0    4381.3332    18.056679    21.268382    22.029106            0            0            0    8459.9778    4212.2192    2491.3546    6440.4259    684.60176    889.86184   -105.89615    18.056679    21.268382    22.029106           90           90           90 
    8000    283.20636   -121.49486   -89.902764   -121.49486            0    1337.4287    18.060071    21.272377    22.033244            0            0            0    8464.7454    366.20923    2608.4273    1037.6495   -1028.4785   -899.58124    325.60184    18.060071    21.272377    22.033244           90           90           90 
    8500    266.45879   -119.48992   -89.766037   -119.48992            0   -206.49983    18.084247    21.300853    22.062738            0            0            0    8498.7849    2580.6989     1672.899   -4873.0974    984.49212   -2888.2915    657.92712    18.084247    21.300853    22.062738           90           90           90 
    9000     289.7639   -120.12283   -87.799235   -120.12283            0    1679.3025    17.958721       21.153    21.909597            0            0            0    8323.0354   -44.320968    2758.3634     2323.865   -1766.6836    1333.0749    1048.2196    17.958721       21.153    21.909597           90           90           90 
    9500    279.67814     -119.987    -88.78848     -119.987            0    -162.9349    18.095061    21.313591    22.075932            0            0            0    8514.0408    1041.3889   -1230.8827   -299.31091    435.34807   -1860.0875    2650.0736    18.095061    21.313591    22.075932           90           90           90 
   10000    289.29121   -120.35724   -88.086365   -120.35724            0     2197.022    18.128075    21.352476    22.116208            0            0            0     8560.726    3632.5005    4750.4213   -1791.8558    2733.3331    2659.1135   -308.24031    18.128075    21.352476    22.116208           90           90           90 
   10500     299.1218   -119.63603   -86.268543   -119.63603            0    462.73491    18.100125    21.319556     22.08211            0            0            0    8521.1912     206.0746    1947.2108   -765.08071   -1086.7727    2792.1351   -1421.1288    18.100125    21.319556     22.08211           90           90           90 
   11000    291.45026   -120.97586   -88.464144   -120.97586            0   -1193.1194    18.069186    21.283113    22.044364            0            0            0    8477.5689   -136.10416   -2349.4889   -1093.7651    160.60866   -1749.8692   -2558.1005    18.069186    21.283113    22.044364           90           90           90 
   11500    283.91189   -120.78343   -89.112632   -120.78343            0   -159.90205    18.044683    21.254252     22.01447            0            0            0     8443.127    1237.9895         1408   -3125.6956    505.06264    977.52693    1131.0226    18.044683    21.254252     22.01447           90           90           90 
   12000     293.4862   -120.63387   -87.895046   -120.63387            0    -657.3698    18.056021    21.267607    22.028303            0            0            0    8459.0525    987.15786   -1635.4994   -1323.7679    -483.5211   -1391.5737    213.61187    18.056021    21.267607    22.028303           90           90           90 
   12500    291.36415   -120.10295    -87.60084   -120.10295            0   -107.71065    18.085063    21.301814    22.063734            0            0            0    8499.9351    724.50758    2538.9551   -3586.5946    1165.7966    1605.1789   -3689.7435    18.085063    21.301814    22.063734           90           90           90 
   13000    290.91503   -119.35855    -86.90654   -119.35855            0    100.17203    18.056046    21.267636    22.028333            0            0            0    8459.0872     1754.948    261.52866   -1715.9605    568.20823   -157.53474    44.369859    18.056046    21.267636    22.028333           90           90           90 
   13500    267.06795   -119.60517    -89.81334   -119.60517            0     -1404.07     18.16014    21.390245    22.155328            0            0            0    8606.2335    -1664.394    -1139.947   -1407.8689   -1250.2798    749.58243    1073.5451     18.16014    21.390245    22.155328           90           90           90 
   14000    274.90772   -120.38292   -89.716554   -120.38292            0     109.2438    18.116447    21.338781    22.102023            0            0            0    8544.2643    2473.4453   -11.764504   -2133.9494    712.11374   -1227.4164   -866.48522    18.116447    21.338781    22.102023           90           90           90 
   14500    279.21713   -122.23873   -91.091636   -122.23873            0    1467.2424    18.040798    21.249676    22.009731            0            0            0    8437.6751    3221.5945    -1015.867    2195.9997   -1166.2861   -3334.6864    -52.15112    18.040798    21.249676    22.009731           90           90           90 
   15000    277.40712   -119.92621   -88.981026   -119.92621            0   -1148.1381    18.160215    21.390333    22.155419            0            0            0    8606.3397   -391.84857   -905.27771    -2147.288    332.75045   -2652.6286   -1719.9558    18.160215    21.390333    22.155419           90           90           90 
   15500    286.22536   -120.80658   -88.877707   -120.80658            0    685.55909    18.066147    21.279533    22.040656            0            0            0    8473.2916   -1283.1134   -334.25406    3674.0447   -1296.2565    3205.7314     124.4693    18.066147    21.279533    22.040656           90           90           90 
   16000    290.20815   -122.45809   -90.084936   -122.45809            0    103.66991      18.1032    21.323177    22.085861            0            0            0    8525.5341     835.0154   -1339.2591    815.25343   -62.939094   -1087.8151   -2307.6865      18.1032    21.323177    22.085861           90           90           90 
   16500    278.96841    -121.7124    -90.59305    -121.7124            0    322.58914    18.257332    21.504725    22.273902            0            0            0    8745.1554    1817.7659    1147.7001   -1997.6985    3241.8233     472.0967     600.1165    18.257332    21.504725    22.273902           90           90           90 
   17000    280.64784   -121.18227   -89.875581   -121.18227            0   -1248.8169    18.284788    21.537064    22.307398            0            0            0    8784.6673    -2118.561    501.94984   -2129.8396   -4040.5439    621.34738    1128.3848    18.284788    21.537064    22.307398           90           90           90 
   17500    280.62686   -120.81114   -89.506789   -120.81114            0   -418.18604    18.128747    21.353268    22.117028            0            0            0     8561.678    242.95115    1149.0033   -2646.5126    696.66524   -1755.5024   -898.54179    18.128747    21.353268    22.117028           90           90           90 
   18000    276.23275   -122.86151   -92.047336   -122.86151            0   -655.78798    18.186467    21.421255    22.187447            0            0            0    8643.7183   -2234.9122   -2407.8824    2675.4307   -1113.3577   -1694.2595   -2884.3428    18.186467    21.421255    22.187447           90           90           90 
   18500    278.89034   -121.92028   -90.809647   -121.92028            0    238.40051    18.167458    21.398865    22.164256            0            0            0    8616.6427    2941.0701   -1347.5314   -878.33707   -2557.1912    -1599.569    455.68397    18.167458    21.398865    22.164256           90           90           90 
   19000    274.07299   -121.36765   -90.794397   -121.36765            0    289.50107    18.002475    21.204537    21.962977            0            0            0    8384.0187   -182.89827    12.119991    1039.2815    -585.5223   -1084.7185   -1509.1725    18.002475    21.204537    21.962977           90           90           90 
   19500    283.63467   -120.92933   -89.289454   -120.92933            0   -765.71305    18.088221    21.305534    22.067587            0            0            0    8504.3894   -1461.0641    2724.4121   -3560.4872    -392.6224    1066.8634     377.1516    18.088221    21.305534    22.067587           90           90           90 
   20000    273.81187   -121.71469   -91.170568   -121.71469            0   -735.50735    18.120549    21.343612    22.107027            0            0            0    8550.0688   -424.23251   -616.72398   -1165.5656    1891.2924    838.46003   -199.21989    18.120549    21.343612    22.107027           90           90           90 
   20500    279.54871   -122.27543   -91.091347   -122.27543            0    4202.1458    17.961355    21.156103    21.912811            0            0            0    8326.6991    4136.6804    4427.4977    4042.2594   -1415.4159    2158.5211   -159.47372    17.961355    21.156103    21.912811           90           90           90 
   21000    271.79545   -122.25521   -91.936022   -122.25521            0   -906.96763    18.039359    21.247981    22.007975            0            0            0    8435.6554    280.34422   -745.20423   -2256.0429    124.37422   -759.42626    172.08559    18.039359    21.247981    22.007975           90           90           90 
   21500     275.6928   -123.34211   -92.588163   -123.34211            0    2941.8076    18.121148    21.344318    22.107758            0            0            0    8550.9168    5858.6523    3349.6765   -382.90603   -105.43368   -1041.6469    2234.7578    18.121148    21.344318    22.107758           90           90           90 
   22000    272.38065   -121.68135   -91.296877   -121.68135            0   -1867.0535    18.146393    21.374053    22.138556            0            0            0    8586.7036   -2602.4693   -3489.5079     490.8168    472.76674    1396.3594    240.00209    18.146393    21.374053    22.138556           90           90           90 
   22500     279.7938   -122.25379   -91.042374   -122.25379            0   -2879.1742    18.083369    21.299819    22.061667            0            0            0    8497.5471    -3151.265     449.0344    -5935.292    1623.8742   -1531.4782   -2089.5058    18.083369    21.299819    22.061667           90           90           90 
   23000    273.60487   -122.47094   -91.949904   -122.47094            0   -307.32182    18.120586    21.343655    22.107072            0            0            0    8550.1207     784.2495   -869.26659   -836.94838     1282.819   -607.95752    1178.8562    18.120586    21.343655    22.107072           90           90           90 
   23500    285.36628   -121.54809   -89.715052   -121.54809            0     1790.695    18.113076     21.33481     22.09791            0            0            0    8539.4947    1481.7169    1414.9037    2475.4644   -1118.8515     244.1448    2134.9053    18.113076     21.33481     22.09791           90           90           90 
   24000    288.04439   -120.10303   -87.971244   -120.10303            0    508.73973    18.250659    21.496864     22.26576            0            0            0    8735.5686   -748.66691    3256.3238   -981.43773    788.00595   -705.24346   -2563.3572    18.250659    21.496864     22.26576           90           90           90 
   24500     277.7794   -119.95733    -88.97062   -119.95733            0   -2617.8244    18.251947    21.498382    22.267333            0            0            0    8737.4195   -6612.0617   -416.61834   -824.79299   -895.55204    2416.8808    3515.4292    18.251947    21.498382    22.267333           90           90           90 
   25000    287.76524   -119.86028    -87.75963   -119.86028            0    123.56072     18.07313    21.287759    22.049176            0            0            0    8483.1216    737.74364    -1585.344    1218.2825    -1123.255   -99.697549    1517.3697     18.07313    21.287759    22.049176           90           90           90 
   25500    284.84739   -118.97537   -87.200214   -118.97537            0    1815.5706    18.090616    21.308355    22.070509            0            0            0    8507.7678    -397.4775    3512.4515    2331.7379   -807.29655    569.55884     1216.126    18.090616    21.308355    22.070509           90           90           90 
   26000    290.01433    -120.3697   -88.018169    -120.3697            0   -2204.9746    18.183178     21.41738    22.183434            0            0            0    8639.0283   -1800.3275   -2818.6524   -1995.9439   -368.63261    1923.8584   -775.96483    18.183178     21.41738    22.183434           90           90           90 
   26500    278.82462   -120.00582   -88.902512   -120.00582            0   -949.96302    18.177749    21.410986     22.17681            0            0            0    8631.2924   -1750.4851    676.40203    -1775.806   -2654.5105     509.1557    2206.8967    18.177749    21.410986     22.17681           90           90           90 
   27000    290.90223   -120.38558   -87.935003   -120.38558            0    2224.7159    18.114956    21.337024    22.100204            0            0            0    8542.1543    531.06303    4383.7556    1759.3291    1034.5564   -162.09981    716.46836    18.114956    21.337024    22.100204           90           90           90 
   27500    285.43435   -121.62394   -89.783306   -121.62394            0     2226.619    18.168545    21.400145    22.165582            0            0            0    8618.1888    1907.7868    2925.4634    1846.6067    725.45288    28.062119    1689.9038    18.168545    21.400145    22.165582           90           90           90 
   28000    273.99588   -121.49035   -90.925702   -121.49035            0   -1688.8857     18.24349    21.488421    22.257015            0            0            0    8725.2794   -1105.7873    918.84515   -4879.7149    887.50205    166.68454   -256.74067     18.24349    21.488421    22.257015           90           90           90 
   28500     287.1411   -120.92712   -88.896103   -120.92712            0   -330.39245    18.110935    21.332288    22.095298            0            0            0    8536.4669   -2072.3377    478.21968    602.94065   -1651.5333   -2818.1185   -178.30196    18.110935    21.332288    22.095298           90           90           90 
   29000    278.44665    -121.4126   -90.351455    -121.4126            0    1133.8681    18.085908     21.30281    22.064765            0            0            0     8501.127    3693.1257   -764.21006     472.6886   -1141.8627    333.06749   -2068.0521    18.085908     21.30281    22.064765           90           90           90 
   29500    289.06282   -121.54612   -89.300732   -121.54612            0    715.55407     18.18391    21.418243    22.184327            0            0            0    8640.0725   -4182.2791    2665.2418    3663.6995   -1162.1108   -411.23664    1095.0059     18.18391    21.418243    22.184327           90           90           90 
   30000    289.63767   -119.51339   -87.203875   -119.51339            0   -3438.0745    18.239846    21.484128    22.252568            0            0            0    8720.0511   -1599.6988   -4305.9533   -4408.5713   -1092.7809   -1217.5278    879.50684    18.239846    21.484128    22.252568           90           90           90 
   30500    292.01981   -121.28518   -88.709928   -121.28518            0    1271.8643    18.171713    21.403877    22.169447            0            0            0    8622.6978   -772.24219    1193.9701    3393.8649   -883.42663   -1915.5602    874.48478    18.171713    21.403877    22.169447           90           90           90 
   31000    287.21706   -121.13488   -89.095387   -121.13488            0    806.35672    18.155525    21.384809    22.149698            0            0            0    8599.6743   -1230.1365    1569.6165    2079.5901    1292.4842   -343.49055    159.45498    18.155525    21.384809    22.149698           90           90           90 
   31500    296.19811   -123.02675   -89.985405   -123.02675            0   -1120.1633    18.188928    21.424153    22.190449            0            0            0    8647.2265   -247.85791   -2276.6603   -835.97166   -10.479999   -1161.7663   -737.58409    18.188928    21.424153    22.190449           90           90           90 
   32000    281.87603   -121.46827   -90.024573   -121.46827            0    2380.3415    18.185359     21.41995    22.186095            0            0            0    8642.1377    2370.8718      3139.72    1630.4328    175.31613   -992.05891    1706.4739    18.185359     21.41995    22.186095           90           90           90 
   32500    279.51465   -121.11221   -89.931928   -121.11221            0    3408.8834    18.143913    21.371132    22.135531            0            0            0    8583.1838    1965.7973     4518.511    3742.3418    892.15726    1923.5793   -3368.1675    18.143913    21.371132    22.135531           90           90           90 
   33000    275.50678   -120.28742   -89.554224   -120.28742            0    244.60939    18.177777    21.411019    22.176845            0            0            0    8631.3333    965.10701   -43.132041    -188.1468   -1168.6534    457.61618    839.44288    18.177777    21.411019    22.176845           90           90           90 
   33500    287.28707   -122.14709   -90.099782   -122.14709            0    1703.1278    18.195702    21.432132    22.198713            0            0            0    8656.8917    2510.1624    603.57201     1995.649    1389.3394    2090.1733    100.61285    18.195702    21.432132    22.198713           90           90           90 
   34000    274.52812    -123.0027    -92.37868    -123.0027            0    883.78057    18.091303    21.309164    22.071347            0            0            0     8508.737    1230.7103    3450.5108   -2029.8795   -2173.7497    924.39943     550.1252    18.091303    21.309164    22.071347           90           90           90 
   34500    269.03556   -123.65437   -93.643043   -123.65437            0   -1831.5438    18.231399    21.474179    22.242264            0            0            0    8707.9423   -1654.4833   -862.21785   -2977.9302    2513.8124   -215.46714   -1349.4471    18.231399    21.474179    22.242264           90           90           90 
   35000       269.71   -124.47988   -94.393327   -124.47988            0    665.50758    18.321901    21.580778    22.352676            0            0            0    8838.2679   -730.43423   -1781.5195    4508.4764   -2375.9918   -1746.5047      389.868    18.321901    21.580778    22.352676           90           90           90 
   35500    271.01748    -123.2262   -92.993797    -123.2262            0   -2310.4367    18.226427    21.468323    22.236198            0            0            0    8700.8206   -2283.4409   -4461.0689   -186.80042    766.62665   -1742.3909   -152.70778    18.226427    21.468323    22.236198           90           90           90 
   36000    277.23603   -122.79049   -91.864396   -122.79049            0   -982.85189     18.17571    21.408584    22.174323            0            0            0    8628.3883   -2841.8345    -1692.311    1585.5898    350.11597    2430.4457   -495.84112     18.17571    21.408584    22.174323           90           90           90 
   36500    276.43847   -121.83003   -90.992903   -121.83003            0    1154.2854    18.064156    21.277189    22.038228            0            0            0    8470.4916   -2212.2795    1525.1731    4149.9626   -1680.9088    1839.7231    474.90922    18.064156    21.277189    22.038228           90           90           90 
   37000    275.65443   -122.47123   -91.721561   -122.47123            0   -712.87924    18.205742    21.443959    22.210963            0            0            0    8671.2305    187.93232   -360.26055   -1966.3095   -552.70144    301.64682   -40.495391    18.205742    21.443959    22.210963           90           90           90 
   37500     276.3427   -122.15983   -91.333386   -122.15983            0    609.18259    18.256297    21.503505    22.272639            0            0            0    8743.6674    3324.0202   -1286.1675   -210.30491    1167.6048    1050.4314     997.1221    18.256297    21.503505    22.272639           90           90           90 
   38000    278.60271   -120.25596   -89.177411   -120.25596            0    1199.3831    18.149506    21.377719    22.142354            0            0            0    8591.1235   -935.76965    2685.1505    1848.7684   -1131.3309   -893.75174    352.78915    18.149506    21.377719    22.142354           90           90           90 
   38500    282.52569   -120.98536   -89.469198   -120.98536            0    2342.1062    18.174347    21.406979     22.17266            0            0            0    8626.4473    2386.9763    1470.5367    3168.8055    619.46397   -860.28486    3583.4467    18.174347    21.406979     22.17266           90           90           90 
   39000     278.6069   -121.42276   -90.343744   -121.42276            0    1587.5701    18.112528    21.334165    22.097242            0            0            0    8538.7206    2381.2767    1942.5957    438.83803     17.73682   -2698.0973   -1487.5665    18.112528    21.334165    22.097242           90           90           90 
   39500    272.82836   -120.54314   -90.108724   -120.54314            0   -1170.1681     18.04023    21.249007    22.009037            0            0            0    8436.8774   -3551.7407   -764.40852    805.64489     1193.837    2436.0711    3108.6727     18.04023    21.249007    22.009037           90           90           90 
   40000    276.93208   -121.17402   -90.281828   -121.17402            0    964.01605     18.14251    21.369479    22.133819            0            0            0    8581.1925     2475.635    1939.8474   -1523.4343    1633.5569     -1684.17   -1348.6963     18.14251    21.369479    22.133819           90           90           90 
   40500    273.20417    -121.1093   -90.632961    -121.1093            0    1107.9069    18.228852    21.471179    22.239156            0            0            0    8704.2934    1945.5227    430.04896    948.14893    694.88959    552.31467    2106.0456    18.228852    21.471179    22.239156           90           90           90 
   41000    277.21567    -121.0129   -90.089075    -121.0129            0    620.64301    18.120497     21.34355    22.106963            0            0            0    8549.9947   -1234.1038    1857.7255    1238.3073   -1430.9604   -698.11522    365.62324    18.120497     21.34355    22.106963           90           90           90 
   41500    274.76487   -120.71443   -90.063991   -120.71443            0    142.06699    18.157852     21.38755    22.152536            0            0            0    8602.9812    460.95505    984.54965   -1019.3037   -1428.0898   -2349.7583   -380.53284    18.157852     21.38755    22.152536           90           90           90 
   42000    276.87728   -120.92011    -90.03403   -120.92011            0   -845.76691    18.151123    21.379624    22.144327            0            0            0    8593.4199   -2667.4941    802.21842   -672.02507   -2250.7307    2442.7123    329.95478    18.151123    21.379624    22.144327           90           90           90 
   42500    286.40181    -122.1916   -90.243043    -122.1916            0    1483.6661    18.146779    21.374508    22.139028            0            0            0    8587.2524    1141.3627    993.25274    2316.3829    2844.4809   -32.758294    1968.2074    18.146779    21.374508    22.139028           90           90           90 
   43000    281.83251   -121.40667   -89.967832   -121.40667            0   -771.24532    18.237534    21.481405    22.249748            0            0            0    8716.7361   -849.13606   -64.489891     -1400.11   -1693.5986    1332.9514   -41.202914    18.237534    21.481405    22.249748           90           90           90 
   43500    272.25038   -121.55666   -91.186717   -121.55666            0   -2631.1033    18.190975    21.426565    22.192947            0            0            0    8650.1474   -1801.5292   -4328.6932   -1763.0873    423.89759    2364.2373   -101.84746    18.190975    21.426565    22.192947           90           90           90 
   44000    284.57195   -123.16242   -91.417986   -123.16242            0    3223.0581    18.039407    21.248038    22.008034            0            0            0     8435.724    1796.0703    3394.3574    4478.7467    735.79563    266.63218   -1456.6548    18.039407    21.248038    22.008034           90           90           90 
   44500    285.22598   -122.79196   -90.974573   -122.79196            0   -918.54757    18.062585    21.275338    22.036311            0            0            0    8468.2807    1623.4761   -1306.5903   -3072.5286   -1190.2801    1769.4632    1100.2206    18.062585    21.275338    22.036311           90           90           90 
   45000    261.69711   -122.36164    -93.16893   -122.36164            0   -1880.8184    18.244232    21.489295     22.25792            0            0            0    8726.3442   -1361.1038     -3547.03   -734.32155   -1068.5778   -731.19282    957.19789    18.244232    21.489295     22.25792           90           90           90 
   45500    286.54309    -124.2856   -92.321288    -124.2856            0    801.81151    18.112892    21.334594    22.097686            0            0            0    8539.2352    235.24824    3400.5891   -1230.4028    243.60236   -6.5420365   -860.74417    18.112892    21.334594    22.097686           90           90           90 
   46000    276.80377   -122.92917   -92.051289   -122.92917            0   -33.376568    18.051519    21.262304     22.02281            0            0            0    8452.7265    2943.3514   -3561.8747    518.39364    145.54543   -1398.1667   -428.17418    18.051519    21.262304     22.02281           90           90           90 
   46500    278.20874   -123.01074   -91.976134   -123.01074            0    -333.8053     18.14047    21.367077    22.131331            0            0            0    8578.2988   -716.05751    1339.2474   -1624.6058   -2671.6267    -771.8929    -2381.314     18.14047    21.367077    22.131331           90           90           90 
   47000    282.87134   -122.64544   -91.090713   -122.64544            0     863.7717    18.066885    21.280403    22.041557            0            0            0    8474.3301   -172.23454    531.86543    2231.6842   -2090.6318   -577.19785    384.57573    18.066885    21.280403    22.041557           90           90           90 
   47500    277.39486    -120.9295    -89.98569    -120.9295            0   -712.24108    18.122276    21.345647    22.109134            0            0            0    8552.5144   -688.34996    222.26066   -1670.6339   -2672.4174   -313.53589   -166.40069    18.122276    21.345647    22.109134           90           90           90 
   48000    285.61474   -122.24375   -90.382995   -122.24375            0    492.07607    18.197594    21.434361    22.201021            0            0            0    8659.5925   -761.10579    440.30878    1797.0252   -456.34575    155.29969   -799.35084    18.197594    21.434361    22.201021           90           90           90 
   48500    272.28326    -121.9525   -91.578888    -121.9525            0   -155.55624    18.178676    21.412078    22.177942            0            0            0    8632.6139    1639.5259   -874.21727   -1231.9773   -2056.0399   -1543.7508    457.30881    18.178676    21.412078    22.177942           90           90           90 
   49000    285.12965   -121.58976   -89.783123   -121.58976            0   -1397.4726    18.174381    21.407019    22.172702            0            0            0    8626.4963   -1298.0467    -3843.596     949.2248   -268.56473     1416.667    99.173691    18.174381    21.407019    22.172702           90           90           90 
   49500    300.43163   -120.56767   -87.054072   -120.56767            0    2906.2119    18.161107    21.391384    22.156508            0            0            0     8607.609    3515.5899     1846.943    3356.1028   -2499.6164   -1431.7809    261.87433    18.161107    21.391384    22.156508           90           90           90 
   50000    281.95375   -120.62732    -89.17495   -120.62732            0   -2063.3704    18.263871    21.512426    22.281879            0            0            0    8754.5544    -5267.627    701.88929   -1624.3736    -298.0887   -1060.7061    1995.9108    18.263871    21.512426    22.281879           90           90           90 
   50500    288.05767   -122.86655   -90.733282   -122.86655            0   -135.26703    18.146693    21.374406    22.138922            0            0            0    8587.1299   -1678.7853    1747.0604   -474.07622   -402.72413    2053.7467    2834.2079    18.146693    21.374406    22.138922           90           90           90 
   51000    281.77283   -122.18566   -90.753481   -122.18566            0   -1373.2701    18.149206    21.377366    22.141988            0            0            0    8590.6976   -661.48286   -2131.1605    -1327.167    630.22216    1130.1576    1446.2909    18.149206    21.377366    22.141988           90           90           90 
   51500    279.51609   -123.05514   -91.874697   -123.05514            0   -260.09464    18.192002    21.427774    22.194199            0            0            0    8651.6117    1801.7296    -1056.342   -1525.6715    1064.9785    1024.3466   -1517.7831    18.192002    21.427774    22.194199           90           90           90 
   52000    270.39904   -123.83885   -93.675431   -123.83885            0    966.00151    18.171669    21.403824    22.169393            0            0            0    8622.6345    1573.1733    1139.2901    185.54114   -1264.9166    1468.2615   -52.842104    18.171669    21.403824    22.169393           90           90           90 
   52500    282.50555   -121.57485   -90.060934   -121.57485            0    1308.5289    18.146913    21.374666    22.139191            0            0            0    8587.4423      5093.44     597.5813   -1765.4346    770.79594   -1369.1213    2252.1554    18.146913    21.374666    22.139191           90           90           90 
   53000     273.3074   -121.73986   -91.252008   -121.73986            0   -2460.7231    18.216225    21.456306    22.223752            0            0            0     8686.218   -106.85099   -4722.6821   -2552.6362    182.51852   -309.11336    1362.3145    18.216225    21.456306    22.223752           90           90           90 
   53500    275.64535   -122.27794   -91.529285   -122.27794            0    1066.8747    18.164595    21.395492    22.160763            0            0            0    8612.5687    1270.4475    223.99272     1706.184   -528.41463   -1269.2159   -1754.5792    18.164595    21.395492    22.160763           90           90           90 
   54000    285.14055   -121.57292    -89.76506   -121.57292            0    2110.0269    18.233135    21.476224    22.244382            0            0            0    8710.4304    1769.8868    1057.4993    3502.6948   -265.79491    178.74846   -1356.1959    18.233135    21.476224    22.244382           90           90           90 
   54500     263.8991     -123.074   -93.635657     -123.074            0   -2702.7947    18.376277    21.644826    22.419014            0            0            0    8917.1921   -1189.9105   -5052.5923   -1865.8812   -733.52819    1241.1027   -728.42362    18.376277    21.644826    22.419014           90           90           90 
   55000    275.34473   -122.97933   -92.264213   -122.97933            0    2567.9168    18.118128    21.340761    22.104074            0            0            0    8546.6429    2575.0042    3277.3479    1851.3982    3368.3297     933.9809    2256.0734    18.118128    21.340761    22.104074           90           90           90 
   55500    273.73855    -123.4763   -92.940348    -123.4763            0   -374.04127    18.115601    21.337784     22.10099            0            0            0    8543.0662    1501.7605   -1199.4191   -1424.4653   -1643.8603    -522.8629   -1260.2162    18.115601    21.337784     22.10099           90           90           90 
   56000    294.91489    -122.5856   -89.687397    -122.5856            0   -243.54024    18.214688    21.454495    22.221876            0            0            0    8684.0189   -358.55703    280.42006   -652.48374    1136.9815   -697.22765   -492.42093    18.214688    21.454495    22.221876           90           90           90 
   56500    290.88902    -121.1257    -88.67659    -121.1257            0   -205.01072    18.159937    21.390006     22.15508            0            0            0    8605.9444    1775.7054   -643.41091   -1747.3266   -619.39261    58.283979   -1579.2559    18.159937    21.390006     22.15508           90           90           90 
   57000    291.19595   -122.69064   -90.207295   -122.69064            0   -585.18248    18.142496    21.369463    22.133803            0            0            0    8581.1737   -1551.0093   -2435.9326    2231.3945    663.88268   -1439.3808    1320.7734    18.142496    21.369463    22.133803           90           90           90 
   57500    275.86785   -121.41428   -90.640802   -121.41428            0   -369.47161    18.082623    21.298941    22.060758            0            0            0     8496.496   -928.17084    617.10819   -797.35219    -998.9365    477.61694    1388.2855    18.082623    21.298941    22.060758           90           90           90 
   58000    284.45393   -122.70273   -90.971471   -122.70273            0   -630.82373    18.065429    21.278689    22.039781            0            0            0    8472.2825   -824.18398    855.84539   -1924.1326    713.22049   -3061.7611     -189.064    18.065429    21.278689    22.039781           90           90           90 
   58500    286.97529   -123.87346   -91.860931   -123.87346            0   -1902.7344    18.118093     21.34072    22.104031            0            0            0    8546.5934   -3827.8097   -581.23968   -1299.1538   -2772.9563    1687.3478   -1961.1954    18.118093     21.34072    22.104031           90           90           90 
   59000    274.62573   -119.76609    -89.13118   -119.76609            0    1236.5168    18.147519     21.37538     22.13993            0            0            0    8588.3029    3590.1755   -546.46132    665.83612   -1108.4684   -2912.2585   -1614.5648    18.147519     21.37538     22.13993           90           90           90 
   59500     285.2646   -121.66204   -89.840347   -121.66204            0    -2091.272    18.123682    21.347302    22.110849            0            0            0     8554.504   -2778.1098   -3388.2628   -107.44321    1376.3847    1607.1228    -910.3256    18.123682    21.347302    22.110849           90           90           90 
   60000    273.16701   -121.89702   -91.424825   -121.89702            0    2683.8249    18.105843    21.326291    22.089086            0            0            0    8529.2692    1996.7449    2349.0914    3705.6384    268.32406    3235.3111   -1010.5889    18.105843    21.326291    22.089086           90           90           90 
   60500     266.9722   -121.24289   -91.461742   -121.24289            0    212.10818    18.079396    21.295139     22.05682            0            0            0    8491.9476    638.23966    1326.9007   -1328.8158     3648.484   -493.22333    1046.3096    18.079396    21.295139     22.05682           90           90           90 
   61000    279.21994    -121.6179   -90.470499    -121.6179            0    -671.1101    18.065024    21.278212    22.039287            0            0            0    8471.7126   -2068.6005     241.8078   -186.53755   -1778.5648   -1399.8026   -1525.8108    18.065024    21.278212    22.039287           90           90           90 
   61500     278.2166   -121.37867   -90.343194   -121.37867            0    619.39496    18.020588    21.225871    21.985075            0            0            0      8409.35   -1264.2587    2605.2656    517.17799   -979.00086    1067.5349   -157.15662    18.020588    21.225871    21.985075           90           90           90 
   62000    287.17805   -121.23748   -89.202337   -121.23748            0   -684.63391    18.106573     21.32715    22.089976            0            0            0    8530.3003    428.97641   -136.14574   -2346.7324    81.662194    3.9109867    1235.2203    18.106573     21.32715    22.089976           90           90           90 
   62500    278.17697   -120.71237   -89.681311   -120.71237            0    -1167.382    18.088287    21.305612    22.067667            0            0            0    8504.4824   -303.46192    -2923.357   -275.32723    2973.3239    403.06935   -29.015656    18.088287    21.305612    22.067667           90           90           90 
   63000    285.38456   -118.81431   -86.979229   -118.81431            0    2981.2012    18.140773    21.367433      22.1317            0            0            0    8578.7285    3396.8744    4113.9535    1432.7756    1078.3864   -3027.4965   -524.87631    18.140773    21.367433      22.1317           90           90           90 
   63500    277.61025   -121.46337   -90.495531   -121.46337            0      169.769    18.146881    21.374628    22.139152            0            0            0    8587.3966    1303.2753    1007.9722   -1801.9405    450.04287   -515.65384   -1409.4153    18.146881    21.374628    22.139152           90           90           90 
   64000    282.37504   -120.85204   -89.352683   -120.85204            0    2280.0203    18.111598    21.333069    22.096107            0            0            0    8537.4047    948.12119    2847.9231    3044.0166    2770.9628   -544.54178   -625.06187    18.111598    21.333069    22.096107           90           90           90 
   64500    273.24105   -120.88054   -90.400094   -120.88054            0   -539.29093    18.097955    21.316999    22.079462            0            0            0    8518.1259   -373.27043   -1740.0576    495.45523    1348.8538    1421.8881   -2015.9134    18.097955    21.316999    22.079462           90           90           90 
   65000      272.432   -122.97244   -92.582241   -122.97244            0   -724.65619    18.038064    21.246456    22.006396            0            0            0    8433.8396    1534.9201   -438.88575   -3270.0029    3391.2689     -1509.22    1743.9351    18.038064    21.246456    22.006396           90           90           90 
   65500    278.31748   -122.36515   -91.318411   -122.36515            0    3302.6213    17.922718    21.110593    21.865673            0            0            0    8273.0788    797.34464    3405.8441    5704.6753    1899.4255    1146.7377   -202.09875    17.922718    21.110593    21.865673           90           90           90 
   66000    294.95517   -121.79152   -88.888828   -121.79152            0    1740.2277    18.000732    21.202484    21.960851            0            0            0    8381.5835    1977.2683     1268.394    1975.0209    1452.8681    2160.8735   -1827.2331    18.000732    21.202484    21.960851           90           90           90 
   66500     286.8739   -121.65632   -89.655102   -121.65632            0   -1573.1786    18.166514    21.397753    22.163104            0            0            0    8615.2991   -1446.3683   -2378.2696   -894.89791    -1498.551    -421.0357   -1212.7733    18.166514    21.397753    22.163104           90           90           90 
   67000    277.52338   -122.85664   -91.898486   -122.85664            0    2226.7095    18.192324    21.428154    22.194592            0            0            0    8652.0718    1628.9924    4255.7964    795.33977    366.52493   -666.71952   -36.393733    18.192324    21.428154    22.194592           90           90           90 
   67500    267.37116   -122.02404   -92.198389   -122.02404            0   -3537.3947     18.11142     21.33286     22.09589            0            0            0    8537.1532   -5684.5596   -2233.2663   -2694.3582   -535.04465   -614.59987    3203.2983     18.11142     21.33286     22.09589           90           90           90 
   68000    273.83682   -122.20587   -91.658959   -122.20587            0    3065.5682    18.072101    21.286547     22.04792            0            0            0    8481.6724    4605.0118    738.74514    3852.9478    4118.3587    14.452456    923.15153    18.072101    21.286547     22.04792           90           90           90 
   68500    284.43837   -122.61831    -90.88878   -122.61831            0   -2738.2462    18.059837    21.272102    22.032959            0            0            0     8464.417   -7278.0826    -1718.701    782.04489   -838.59872    938.78031   -1859.4373    18.059837    21.272102    22.032959           90           90           90 
   69000    266.12374   -122.29959   -92.613088   -122.29959            0    1879.1946    18.041136    21.250074    22.010143            0            0            0    8438.1488    2318.1291    2606.4715    712.98303    1470.5906    -2687.105    104.96165    18.041136    21.250074    22.010143           90           90           90 
   69500     273.1535   -124.34388   -93.873201   -124.34388            0   -85.899519    18.110286    21.331524    22.094506            0            0            0    8535.5493   -3169.1197   -56.211048    2967.6322    138.43575    50.360789   -375.27414    18.110286    21.331524    22.094506           90           90           90 
   70000    273.79644   -122.75689   -92.214488   -122.75689            0   -3038.4897    18.061548    21.274117    22.035046            0            0            0    8466.8228   -2791.3949   -764.13188   -5559.9424   -4166.8738    1136.9371   -294.34209    18.061548    21.274117    22.035046           90           90           90 
   70500    285.81416   -124.55848   -92.675483   -124.55848            0    610.93653    17.964723    21.160069    21.916919            0            0            0    8331.3833    954.10494    819.35726    59.347391   -57.843524    855.58736    1389.0454    17.964723    21.160069    21.916919           90           90           90 
   71000     273.5438   -122.36601   -91.851786   -122.36601            0   -640.18009    18.013951    21.218054    21.976978            0            0            0    8400.0619    928.71742    74.243985   -2923.5017    692.46971    1230.3789    2858.9917    18.013951    21.218054    21.976978           90           90           90 
   71500    273.60685   -122.49886   -91.977608   -122.49886            0   -310.90756    18.065438    21.278699    22.039792            0            0            0    8472.2949   -1351.5135   -1113.8915    1532.6823    355.63025    256.47322    789.33765    18.065438    21.278699    22.039792           90           90           90 
   72000    300.13964   -122.18267   -88.701645   -122.18267            0   -1305.1507     18.10182    21.321552    22.084178            0            0            0     8523.585   -787.20266   -1481.9706   -1646.2787   -1787.4536   -2442.5442   -1871.2471     18.10182    21.321552    22.084178           90           90           90 
   72500     283.0052   -122.02631   -90.456658   -122.02631            0    882.51718    18.091611    21.309527    22.071722            0            0            0    8509.1712    1547.2811   -1022.0605     2122.331     108.8094   -56.847898    1413.8033    18.091611    21.309527    22.071722           90           90           90 
   73000    275.07073    -122.3186    -91.63405    -122.3186            0    279.32219    18.071823    21.286219    22.047581            0            0            0    8481.2811    -1830.144    1105.5868    1562.5238   -2809.8415    983.16112   -996.66989    18.071823    21.286219    22.047581           90           90           90 
   73500    285.85161    -122.9452   -91.058021    -122.9452            0     95.11134    18.057131    21.268914    22.029657            0            0            0    8460.6127   -313.27811    321.99326    276.61887    931.62549   -1773.5367   -63.736933    18.057131    21.268914    22.029657           90           90           90 
   74000    265.92681   -121.32155   -91.657016   -121.32155            0    1652.8048    18.083625     21.30012    22.061979            0            0            0    8497.9078    827.79477   -1498.0479    5628.6675   -828.62897    1603.3632   -788.09102    18.083625     21.30012    22.061979           90           90           90 
   74500    282.33708   -122.66211   -91.166987   -122.66211            0   -930.39072    18.073717     21.28845    22.049892            0            0            0    8483.9476   -2930.1504    1738.2684   -1599.2902   -2272.4103    930.42578    2355.3111    18.073717     21.28845    22.049892           90           90           90 
   75000    285.16814   -122.83988   -91.028949   -122.83988            0    591.59139    18.073593    21.288304    22.049741            0            0            0    8483.7733   -211.29195   -807.10026    2793.1664    1463.5993    403.56462   -1560.8297    18.073593    21.288304    22.049741           90           90           90 
   75500    271.11218   -122.53841   -92.295442   -122.53841            0   -349.99058     18.04126     21.25022    22.010294            0            0            0    8438.3228   -1307.3568    2414.7761    -2157.391   -1166.9455    189.12863    1272.7506     18.04126     21.25022    22.010294           90           90           90 
   76000    276.73399   -121.27306   -90.402969   -121.27306            0    1613.5843     17.97938    21.177334    21.934801            0            0            0    8351.7925    1631.6067    2753.7388    455.40749    1786.1602    2902.1541   -1765.6153     17.97938    21.177334    21.934801           90           90           90 
   76500    269.63626    -124.8544   -94.776073    -124.8544            0    330.48895    18.002821    21.204945      21.9634            0            0            0    8384.5022     1577.343    548.29678   -1134.1729   -1258.8349    354.22674   -1.4013458    18.002821    21.204945      21.9634           90           90           90 
   77000    272.36232   -124.19933   -93.816905   -124.19933            0    746.08569    18.031854    21.239141    21.998819            0            0            0    8425.1321   -1287.7018     2509.431    1016.5279   -1128.5521    1346.6572    -1888.706    18.031854    21.239141    21.998819           90           90           90 
   77500      274.025   -122.41912   -91.851221   -122.41912            0   -263.48559     18.06747    21.281092     22.04227            0            0            0    8475.1534    2067.0074   -2184.5366   -672.92754    192.51337    3316.9288   -3348.9865     18.06747    21.281092     22.04227           90           90           90 
   78000    282.14015   -120.50357   -89.030416   -120.50357            0    450.44794    18.203224    21.440992     22.20789            0            0            0    8667.6325    1019.0776     421.4169   -89.150725   -625.60061    1851.0467   -1107.9461    18.203224    21.440992     22.20789           90           90           90 
   78500    263.35121   -121.43014    -92.05292   -121.43014            0   -514.43888    18.257012    21.504348    22.273512            0            0            0    8744.6956   -260.51337   -468.26963   -814.53365   -2605.9899   -553.79869   -705.75058    18.257012    21.504348    22.273512           90           90           90 
   79000    278.43007   -122.77232   -91.713029   -122.77232            0   -1035.3671    18.055372    21.266842    22.027511            0            0            0    8458.1397   -2886.6046   -1963.2025    1743.7057    -2344.746   -59.659153    993.58258    18.055372    21.266842    22.027511           90           90           90 
   79500    289.42855    -121.7695   -89.483312    -121.7695            0   -833.37672    17.970005    21.166292    21.923364            0            0            0    8338.7353   -959.86433   -1555.2409    14.975055    2688.4667    1313.6126    1583.9465    17.970005    21.166292    21.923364           90           90           90 
   80000    294.98979   -122.89734   -89.990782   -122.89734            0    158.64777    18.085756     21.30263    22.064579            0            0            0    8500.9123   -153.59109   -1749.4769    2379.0114    2844.1015    193.61893    637.79222    18.085756     21.30263    22.064579           90           90           90 
   80500    275.90713   -120.43014   -89.652281   -120.43014            0   -720.72136    18.057042     21.26881    22.029549            0            0            0    8460.4877   -1646.3732    524.72486   -1040.5158   -175.79669   -1544.2867    1974.3215    18.057042     21.26881    22.029549           90           90           90 
   81000    284.75755   -122.83566   -91.070522   -122.83566            0    1439.7722    17.962242    21.157148    21.913893            0            0            0    8327.9328     3264.014    4044.0694   -2988.7667    890.25075   -1749.7945   -2688.6819    17.962242    21.157148    21.913893           90           90           90 
   81500    273.90037   -121.99883    -91.44483   -121.99883            0    1481.9456    18.058962    21.271071    22.031891            0            0            0    8463.1863    1545.5325    1774.3478    1125.9564    1560.4644    870.58172     -2531.45    18.058962    21.271071    22.031891           90           90           90 
   82000    283.15906    -123.6942   -92.107376    -123.6942            0   -1053.9103    18.129164     21.35376    22.117537            0            0            0    8562.2696   -1280.5491    1831.9052    -3713.087   -1351.2276    560.38743    1430.8809    18.129164     21.35376    22.117537           90           90           90 
   82500     288.4452   -122.14856   -89.972068   -122.14856            0    1499.4263    18.085046    21.301795    22.063714            0            0            0    8499.9121    1610.2605    3001.5789   -113.56043    -904.5289    796.26881   -110.09365    18.085046    21.301795    22.063714           90           90           90 
   83000    282.60586   -122.17251   -90.647396   -122.17251            0   -601.80555    18.020561     21.22584    21.985042            0            0            0    8409.3122   -505.25453   -869.68069   -430.48144    255.04412    319.61435    284.61374    18.020561     21.22584    21.985042           90           90           90 
   83500    286.71889   -123.72167   -91.737748   -123.72167            0    1154.3677     18.05689     21.26863    22.029363            0            0            0    8460.2738    1423.2065    2304.9693   -265.07256   -1381.7472    1466.4541    710.62936     18.05689     21.26863    22.029363           90           90           90 
   84000    301.84972   -123.63067   -89.958884   -123.63067            0   -230.03214     18.02211    21.227664    21.986931            0            0            0    8411.4809   -201.83597    1293.0128   -1781.2733   -977.18931   -1514.8394   -4144.6686     18.02211    21.227664    21.986931           90           90           90 
   84500    287.68682    -123.4736   -91.381704    -123.4736            0    1621.1248    18.042653    21.251861    22.011994            0            0            0    8440.2781    4009.5038    1388.4831   -534.61236    786.04399   -1013.4271    1438.5815    18.042653    21.251861    22.011994           90           90           90 
   85000    278.43069   -123.51706   -92.457698   -123.51706            0    2810.1069    18.122621    21.346052    22.109554            0            0            0    8553.0017      3798.91    2743.7724    1887.6382    -3771.515   -789.90308   -2305.1427    18.122621    21.346052    22.109554           90           90           90 
   85500    296.23938   -123.41319   -90.367241   -123.41319            0    1194.4189    18.094183    21.312556     22.07486            0            0            0    8512.8011    994.20918   -583.89706    3172.9446    -406.8829   -484.45831    369.54997    18.094183    21.312556     22.07486           90           90           90 
   86000     268.5863   -121.63634   -91.675131   -121.63634            0   -1165.5406    18.126448    21.350561    22.114224            0            0            0    8558.4221   -122.47539   -1090.7046   -2283.4417    1129.7975    2632.4259    3316.7445    18.126448    21.350561    22.114224           90           90           90 
   86500    268.80294   -122.46476   -92.479387   -122.46476            0   -291.81361     18.04395    21.253389    22.013576            0            0            0    8442.0983    -2681.682    1118.8358    687.40537    -1112.534    1764.7834   -1361.6524     18.04395    21.253389    22.013576           90           90           90 
   87000     268.9997    -122.8808   -92.873481    -122.8808            0   -1474.9835    18.048372    21.258597    22.018971            0            0            0     8448.306   -125.01341   -4361.3694    61.432396    2296.5071   -96.527256     -351.702    18.048372    21.258597    22.018971           90           90           90 
   87500    286.80788   -123.31965   -91.325797   -123.31965            0   -1231.8564    18.038091    21.246487    22.006428            0            0            0    8433.8766    1485.0239   -3237.9692    -1942.624   -3076.1124    746.65463    2449.5027    18.038091    21.246487    22.006428           90           90           90 
   88000     278.2636   -122.34268   -91.301954   -122.34268            0    1118.3905     17.99577    21.196639    21.954797            0            0            0    8374.6537    2330.9237   -2497.5429    3521.7908    351.60142   -741.08682    209.79697     17.99577    21.196639    21.954797           90           90           90 
   88500     277.1887   -123.26475   -92.343933   -123.26475            0   -428.46387    17.941389    21.132586    21.888452            0            0            0    8298.9618    2478.8424    569.41443   -4333.6485   -2463.0656    55.490541     2244.522    17.941389    21.132586    21.888452           90           90           90 
   89000     262.0443   -123.70896   -94.477521   -123.70896            0    268.70702     18.01512    21.219431    21.978404            0            0            0    8401.6977   -3638.7151    2574.3208    1870.5154    353.26651     447.4367   -1663.7135     18.01512    21.219431    21.978404           90           90           90 
   89500    272.72878   -124.78653   -94.363225   -124.78653            0    460.81943    18.004465     21.20688    21.965404            0            0            0    8386.7981    3162.8922    3015.4287   -4795.8626   -1070.8726   -1561.1562    164.50951    18.004465     21.20688    21.965404           90           90           90 
   90000    275.50781    -125.9828   -95.249488    -125.9828            0    943.81898    17.966425    21.162075    21.918996            0            0            0    8333.7519    3387.1541   -2111.8309    1556.1338    2115.3657    1446.7433    2013.9936    17.966425    21.162075    21.918996           90           90           90 
   90500    283.10463   -124.82787   -93.247122   -124.82787            0    650.29475    18.018234    21.223099    21.982203            0            0            0    8406.0548   -205.15954    1294.6532    861.39062     1581.677   -846.32293    719.87567    18.018234    21.223099    21.982203           90           90           90 
   91000    273.65989   -122.36796   -91.840791   -122.36796            0    839.85914    17.977014    21.174547    21.931915            0            0            0    8348.4963    1981.3182    -2898.663    3436.9223    2509.5977    2542.6509   -1187.9102    17.977014    21.174547    21.931915           90           90           90 
   91500    270.37878   -124.98203    -94.82087   -124.98203            0    4043.1996    17.926882    21.115498    21.870754            0            0            0    8278.8467    3088.2975    6855.4964    2185.8047   -365.67351    135.80773    657.44785    17.926882    21.115498    21.870754           90           90           90 
   92000    275.15298   -123.50185   -92.808118   -123.50185            0   -23.254898     17.96212    21.157004    21.913744            0            0            0    8327.7632    2415.6689   -2905.1403    419.70674   -348.31876    2577.2838    -887.1577     17.96212    21.157004    21.913744           90           90           90 
   92500    279.59867   -123.02763   -91.837977   -123.02763            0   -172.99584    18.193326    21.429334    22.195814            0            0            0     8653.501    -1712.674     801.6216    392.06488    2786.4182    181.91703    343.88586    18.193326    21.429334    22.195814           90           90           90 
   93000    286.21334   -123.70114    -91.77361   -123.70114            0   -2290.3574    18.137054    21.363053    22.127163            0            0            0    8573.4541     675.0276   -4543.1488    -3002.951   -980.96716   -1717.6165   -1805.3264    18.137054    21.363053    22.127163           90           90           90 
   93500    270.41923   -123.02499   -92.859314   -123.02499            0    657.38904    18.079755    21.295563    22.057259            0            0            0    8492.4539   -221.02281    1721.3888    471.80109    1907.5779   -196.55961    574.49054    18.079755    21.295563    22.057259           90           90           90 
   94000    279.51604   -124.21485   -93.034414   -124.21485            0    1509.3449    18.125459    21.349396    22.113017            0            0            0    8557.0215    2936.1176    2021.9065   -429.98933   -964.39338   -1065.3532    198.49722    18.125459    21.349396    22.113017           90           90           90 
   94500    279.65267   -124.35156   -93.155882   -124.35156            0   -1265.8046    18.160072    21.390165    22.155245            0            0            0    8606.1374    661.35442   -2261.6036   -2197.1645    306.79828    695.90447    165.11557    18.160072    21.390165    22.155245           90           90           90 
   95000    262.63444   -123.48607   -94.188804   -123.48607            0   -787.77996    18.129757    21.354458    22.118261            0            0            0    8563.1102   -2171.6321   -3173.9755    2982.2677   -1676.3325   -102.33401    2055.3602    18.129757    21.354458    22.118261           90           90           90 
   95500    271.88996   -122.29093    -91.96119   -122.29093            0    900.76287    18.084959    21.301692    22.063607            0            0            0     8499.789    2739.6643    2082.8807   -2120.2564   -268.67703    1779.3211   -282.73521    18.084959    21.301692    22.063607           90           90           90 
   96000    279.97623   -121.97016    -90.73839   -121.97016            0   -1819.6161    18.126886    21.351077    22.114759            0            0            0    8559.0428   -4648.8187   -1638.3714    828.34169   -555.09678   -1739.0833   -615.13829    18.126886    21.351077    22.114759           90           90           90 
   96500    278.17344   -122.06984   -91.039174   -122.06984            0    489.88807     18.16654    21.397783    22.163135            0            0            0    8615.3353     2203.267   -1861.6964    1128.0936   -40.106872     1081.023     198.0569     18.16654    21.397783    22.163135           90           90           90 
   97000      274.883    -121.9012   -91.237584    -121.9012            0   -317.84279    18.188177    21.423269    22.189532            0            0            0    8646.1556    4741.1686   -1535.9695   -4158.7275    860.55467   -1555.0117   -1491.2444    18.188177    21.423269    22.189532           90           90           90 
   97500    282.33867   -123.41504   -91.919732   -123.41504            0     246.2829    18.179893    21.413512    22.179427            0            0            0    8634.3478   -1651.9216    127.40242    2263.3679    1737.9398    452.03324   -592.87705    18.179893    21.413512    22.179427           90           90           90 
   98000    267.94951   -123.06946   -93.179288   -123.06946            0    822.65783    18.119036     21.34183    22.105181            0            0            0    8547.9275    1032.5547   -1979.5545    3414.9733    -1482.115   -1422.3224    442.97829    18.119036     21.34183    22.105181           90           90           90 
   98500    277.43723   -123.22751   -92.278973   -123.22751            0    766.89306    17.944624    21.136396    21.892399            0            0            0    8303.4515   -1495.7721     71.99549    3724.4558   -522.03359    89.329475   -1051.6649    17.944624    21.136396    21.892399           90           90           90 
   99000     270.0595   -122.77329   -92.647745   -122.77329            0    1945.9517    18.076882    21.292178    22.053753            0            0            0    8488.4056   -468.28678    3467.1686    2838.9732    809.11926    -114.4943    1181.5869    18.076882    21.292178    22.053753           90           90           90 
   99500    295.18091   -121.63003   -88.702151   -121.63003            0   -1844.7639    18.159717    21.389747    22.154812            0            0            0    8605.6323   -3435.3497    666.92043   -2765.8623    1148.1121    812.08193   -543.29142    18.159717    21.389747    22.154812           90           90           90 
  100000    282.92589   -123.02375   -91.462937   -123.02375            0     4398.663    17.999955    21.201568    21.959902            0            0            0    8380.4976    4566.5417    5159.2438    3470.2034   -3537.7886    121.27212    2035.7076    17.999955    21.201568    21.959902           90           90           90 
  100500    270.43037    -120.9151   -90.748182    -120.9151            0   -2870.2902    18.063275    21.276151    22.037153            0            0            0    8469.2519   -6417.3895    328.60289    -2522.084   -603.97139   -284.41335   -359.53394    18.063275    21.276151    22.037153           90           90           90 
  101000    276.02875   -122.83851   -92.047087   -122.83851            0     2540.217    18.119735    21.342654    22.106034            0            0            0    8548.9174    8.6213268    3851.8577     3760.172   -2490.0398   -3053.2534    2437.5831    18.119735    21.342654    22.106034           90           90           90 
  101500    273.39696   -122.76929   -92.271446   -122.76929            0    691.29784    18.109076    21.330098    22.093029            0            0            0    8533.8383    116.44741     3324.815   -1367.3688   -2142.5939    1977.5633    1192.8136    18.109076    21.330098    22.093029           90           90           90 
  102000    269.07267   -122.57053   -92.555067   -122.57053            0   -745.97155    18.122645    21.346081    22.109584            0            0            0    8553.0364   -1837.0296    764.55521   -1165.4402   -919.61815    1951.1461   -1493.6838    18.122645    21.346081    22.109584           90           90           90 
  102500    266.53624     -122.504   -92.771486     -122.504            0    1871.4922    18.080447    21.296377    22.058102            0            0            0    8493.4285    3091.9917    1256.7227    1265.7623   -1589.1774    1978.3583    -466.2858    18.080447    21.296377    22.058102           90           90           90 
  103000    277.28788   -123.01118   -92.079299   -123.01118            0   -659.12792    18.103847     21.32394    22.086651            0            0            0    8526.4491    696.36637   -506.91628   -2166.8339   -512.77623    1662.3994     2829.566    18.103847     21.32394    22.086651           90           90           90 
  103500     278.7234   -124.36901   -93.276995   -124.36901            0    413.73812    18.188817    21.424023    22.190314            0            0            0    8647.0689     1560.249   -1688.8699    1369.8352   -943.28486   -961.68478   -455.19241    18.188817    21.424023    22.190314           90           90           90 
  104000    282.77042   -123.01504   -91.471577   -123.01504            0   -1538.5339    18.106948    21.327592    22.090434            0            0            0     8530.831   -845.87487   -2685.1033   -1084.6235    180.49069   -1056.9893    -903.3467    18.106948    21.327592    22.090434           90           90           90 
  104500    268.28583    -122.8565   -92.928816    -122.8565            0    3361.7243    18.096094    21.314808    22.077192            0            0            0    8515.4993    4931.8568    2907.6014    2245.7148    -2043.076   -2563.9856    853.61989    18.096094    21.314808    22.077192           90           90           90 
  105000    284.21339   -122.70194   -90.997507   -122.70194            0   -2695.2303    18.212488    21.451905    22.219193            0            0            0    8680.8734    399.07418   -4150.4557   -4334.3094    2422.7791   -2279.4872    1310.5785    18.212488    21.451905    22.219193           90           90           90 
  105500    282.50388   -122.68304   -91.169309   -122.68304            0   -2127.9181    18.195414    21.431793    22.198362            0            0            0    8656.4805   -1067.5472     253.5695   -5569.7765   -1316.3668    1095.9547    550.72449    18.195414    21.431793    22.198362           90           90           90 
  106000    276.29077   -122.78091   -91.960255   -122.78091            0   -1938.6028    18.154408    21.383494    22.148335            0            0            0    8598.0871   -865.20988   -837.48725   -4113.1113    98.155621    489.80342   -1034.6415    18.154408    21.383494    22.148335           90           90           90 
  106500    277.60026   -123.32082   -92.354091   -123.32082            0    1090.0197    18.096048    21.314753    22.077136            0            0            0     8515.434    4122.4912   -1042.4131    189.98094   -1678.7789   -1646.0452    881.10554    18.096048    21.314753    22.077136           90           90           90 
  107000    278.47851   -122.72235   -91.657652   -122.72235            0    1848.1373    18.168989    21.400668    22.166123            0            0            0    8618.8202    4202.8146    1482.4807   -140.88328      1933.58    2057.6989   -432.96269    18.168989    21.400668    22.166123           90           90           90 
  107500    278.43174   -122.25044   -91.190963   -122.25044            0   -2124.1204    18.139473    21.365902    22.130114            0            0            0    8576.8846   -912.69907   -1644.0928   -3815.5694    328.45594   -1157.9789   -1006.9565    18.139473    21.365902    22.130114           90           90           90 
  108000    288.47735   -122.15739   -89.977305   -122.15739            0    3553.1404    18.068447    21.282243    22.043463            0            0            0     8476.529    4570.7868    474.65145     5613.983    1271.2307   -1071.5203   -998.65304    18.068447    21.282243    22.043463           90           90           90 
  108500    283.23196   -120.26794   -88.672993   -120.26794            0   -1594.6861    18.150605    21.379014    22.143695            0            0            0    8592.6844   -701.32571   -1743.6023   -2339.1303    542.23923    -442.6252   -280.95286    18.150605    21.379014    22.143695           90           90           90 
  109000    265.31452   -120.80011   -91.203874   -120.80011            0    -200.6643    18.038728    21.247238    22.007206            0            0            0    8434.7711   -563.38491   -485.94962    447.34164     1443.392   -3122.3368   -2431.7789    18.038728    21.247238    22.007206           90           90           90 
  109500    282.09515   -122.27529   -90.807148   -122.27529            0    780.30674    18.150036    21.378343       22.143            0            0            0    8591.8759    2797.2793   -4433.4728    3977.1137   -1921.6182    1568.4689    3093.3046    18.150036    21.378343       22.143           90           90           90 
  110000    276.04018   -121.89158   -91.098883   -121.89158            0   -2464.0901     18.17011    21.401989    22.167492            0            0            0    8620.4165   -5309.4206   -1327.7094   -755.14025     787.1773    1452.8598    517.77705     18.17011    21.401989    22.167492           90           90           90 
  110500    282.61365   -124.31024   -92.784267   -124.31024            0    399.36451     18.08027    21.296169    22.057887            0            0            0    8493.1799   -462.36409    798.76402     861.6936     1122.748    2732.1441    2100.9337     18.08027    21.296169    22.057887           90           90           90 
  111000    276.58632   -122.49471   -91.641085   -122.49471            0   -428.59218    18.132498    21.357687    22.121605            0            0            0    8566.9945   -678.08334   -1479.2635    871.57031   -3213.5345    -1547.709   -735.15183    18.132498    21.357687    22.121605           90           90           90 
  111500    276.99501   -122.33551   -91.436301   -122.33551            0   -1153.8696    18.221071    21.462014    22.229664            0            0            0    8693.1517   -2791.8863    1151.7742   -1821.4968   -1396.1944    497.52565   -1000.9916    18.221071    21.462014    22.229664           90           90           90 
[...]
 1973500    286.00391   -122.73223   -90.828068   -122.73223            0    1171.8271    18.087544    21.304737    22.066761            0            0            0    8503.4344    2768.0122    853.09284   -105.62385   -1216.3732    49.987784    1545.3975    18.087544    21.304737    22.066761           90           90           90 
 1974000    276.55063   -122.28352   -91.433878   -122.28352            0   -901.13621    18.005657    21.208285    21.966859            0            0            0    8388.4646   -1600.7864   -1855.4345    752.81229   -965.56442   -296.58029   -1486.5179    18.005657    21.208285    21.966859           90           90           90 
 1974500    281.62531   -123.40512    -91.98939   -123.40512            0   -2433.7286     18.05157    21.262364    22.022872            0            0            0    8452.7977   -3421.2543   -1479.9949   -2399.9366    3175.7747    482.18874   -720.35858     18.05157    21.262364    22.022872           90           90           90 
 1975000    276.17726   -123.17646   -92.368471   -123.17646            0   -901.91068    18.128524    21.353005    22.116756            0            0            0    8561.3621    1097.8925   -841.53637   -2962.0882   -2583.3281   -1707.6706   -476.98327    18.128524    21.353005    22.116756           90           90           90 
 1975500    278.71288    -123.5175   -92.426657    -123.5175            0    563.14628    18.125179    21.349066    22.112676            0            0            0    8556.6247    1093.5792   -201.79288    797.65252   -776.89824    42.002205   -505.53001    18.125179    21.349066    22.112676           90           90           90 
 1976000    286.84943    -123.7045   -91.706014    -123.7045            0   -952.10135    18.017164    21.221839    21.980898            0            0            0    8404.5578   -2793.8644   -107.46163    45.022017   -1554.0491   -3076.4018    1321.6754    18.017164    21.221839    21.980898           90           90           90 
 1976500    277.78093   -122.93602    -91.94914   -122.93602            0    923.39828    18.068063    21.281791    22.042995            0            0            0     8475.989    754.98995    2757.6561   -742.45118   -2211.0098    1455.9789    1074.1732    18.068063    21.281791    22.042995           90           90           90 
 1977000    287.17403   -123.97569   -91.940998   -123.97569            0   -1507.5564    18.118717    21.341454    22.104791            0            0            0    8547.4754   -1886.4359   -1563.9638   -1072.2695    364.72823   -343.19994   -1325.3031    18.118717    21.341454    22.104791           90           90           90 
 1977500    279.43795   -122.07289   -90.901163   -122.07289            0   -1380.8245     18.04815    21.258336    22.018701            0            0            0    8447.9954   -2076.3538   -1347.6534   -718.46615    48.558561    596.31055    1768.0909     18.04815    21.258336    22.018701           90           90           90 
 1978000    283.69665   -122.64334   -90.996548   -122.64334            0    1915.5479     18.02547    21.231621     21.99103            0            0            0    8416.1861    192.20377    2918.1075    2636.3323     2845.036   -617.77671     3110.908     18.02547    21.231621     21.99103           90           90           90 
 1978500    283.00628   -122.60002   -91.030241   -122.60002            0     2352.848    18.021417    21.226848    21.986086            0            0            0    8410.5106    766.19405    1480.1537    4812.1964   -715.63472   -974.70373      3266.06    18.021417    21.226848    21.986086           90           90           90 
 1979000    287.55942   -123.92191   -91.844224   -123.92191            0   -1684.1577    17.965433    21.160906    21.917786            0            0            0    8332.3714   -3194.1325    129.37807   -1987.7187   -2978.9054   -427.69406   -884.06704    17.965433    21.160906    21.917786           90           90           90 
 1979500    291.27942   -122.64839   -90.155734   -122.64839            0   -1428.5272    17.967184    21.162969    21.919922            0            0            0    8334.8084   -624.47281    -213.6883   -3447.4205    788.69954   -1982.9172   -1049.5305    17.967184    21.162969    21.919922           90           90           90 
 1980000    276.86018   -121.25494   -90.370771   -121.25494            0   -1570.8158    18.086088    21.303022    22.064985            0            0            0    8501.3816    1216.0806   -2618.9064   -3309.6215   -266.74037   -415.87842    -32.23254    18.086088    21.303022    22.064985           90           90           90 
 1980500    283.65513   -122.43407   -90.791911   -122.43407            0    3991.4819    17.994676    21.195351    21.953463            0            0            0    8373.1271    6771.7362    2812.6567     2390.053    1493.3341    -1015.937   -935.23752    17.994676    21.195351    21.953463           90           90           90 
 1981000     298.3523   -122.97212   -89.690469   -122.97212            0   -1195.1194    17.962087    21.156965    21.913704            0            0            0    8327.7166    4040.1583   -4209.0886   -3416.4279   -881.52847    855.86827    687.71387    17.962087    21.156965    21.913704           90           90           90 
 1981500    280.15316   -122.07006   -90.818554   -122.07006            0    1661.8336    17.980777    21.178979    21.936505            0            0            0     8353.739    1914.0256    3047.3885    24.086742    485.05559    515.57808   -1667.4745    17.980777    21.178979    21.936505           90           90           90 
 1982000    294.36575   -121.79476   -88.957821   -121.79476            0   -452.98149    18.018968    21.223963    21.983098            0            0            0    8407.0819    908.15064   -3290.0089    1022.9138   -1502.2206   -673.64052   -1150.9902    18.018968    21.223963    21.983098           90           90           90 
 1982500    283.14157   -123.13026   -91.545395   -123.13026            0   -852.07383    18.019132    21.224156    21.983298            0            0            0    8407.3112   -2570.4098    578.10721   -563.91893   -498.24577    1884.9068    208.69051    18.019132    21.224156    21.983298           90           90           90 
 1983000    280.65855   -122.33806   -91.030176   -122.33806            0    2048.7635    17.932309    21.121891    21.877375            0            0            0    8286.3679    1360.2665    1042.8954    3743.1286   -2984.8601    -601.5334     641.7833    17.932309    21.121891    21.877375           90           90           90 
 1983500    272.67216   -121.93215   -91.515161   -121.93215            0   -109.01244    17.970657     21.16706    21.924159            0            0            0    8339.6427    843.64374   -1607.1086    436.42759    1201.9834    184.11901    643.49056    17.970657     21.16706    21.924159           90           90           90 
 1984000      282.756    -123.6332   -92.091346    -123.6332            0   -445.59844    17.905801    21.090667    21.845035            0            0            0    8249.6743   -2795.4721    1363.9164    94.760365    624.56015    13.978629    947.04258    17.905801    21.090667    21.845035           90           90           90 
 1984500    292.41049   -122.34811   -89.729279   -122.34811            0    2004.0458     17.88748    21.069087    21.822683            0            0            0     8224.377     1879.516    1642.3315    2490.2899    862.51349   -2513.2737   -1327.5583     17.88748    21.069087    21.822683           90           90           90 
 1985000     290.2667   -120.61995    -88.24026   -120.61995            0   -3204.5596    18.001034    21.202839    21.961219            0            0            0    8382.0049   -576.44767   -5020.9076   -4016.3235    -352.1845   -194.29041      733.992    18.001034    21.202839    21.961219           90           90           90 
 1985500    282.76118   -120.55864   -89.016203   -120.55864            0     2327.789    18.005641    21.208265    21.966839            0            0            0    8388.4418     1131.678      2003.19    3848.4991    635.33068   -681.76525   -382.96161    18.005641    21.208265    21.966839           90           90           90 
 1986000    276.12056   -121.88388   -91.082213   -121.88388            0   -242.07581    17.932521     21.12214    21.877633            0            0            0     8286.661    110.81603     1551.259   -2388.3024    2023.0375   -531.33245    1589.5997    17.932521     21.12214    21.877633           90           90           90 
 1986500    279.06854   -120.98642   -89.855901   -120.98642            0    1584.1915    17.859512    21.036146    21.788563            0            0            0    8185.8608    3798.0149    45.123828    909.43561   -1790.2916    473.67032   -1492.8402    17.859512    21.036146    21.788563           90           90           90 
 1987000    278.22364   -121.59114   -90.554875   -121.59114            0    725.22444     17.86879    21.047073    21.799881            0            0            0     8198.624    607.29409    667.37097    901.00826    696.83925   -47.047436    394.15821     17.86879    21.047073    21.799881           90           90           90 
 1987500    285.46847    -123.8248   -91.980362    -123.8248            0    2066.9207    17.847714    21.022249    21.774169            0            0            0     8169.648    455.93475    4076.7967    1668.0306   -1258.1226    1381.8522   -2769.9036    17.847714    21.022249    21.774169           90           90           90 
 1988000    293.76865   -120.06346   -87.293126   -120.06346            0   -109.86126    17.931477     21.12091    21.876359            0            0            0    8285.2141    16.891359    464.41093   -810.88607    -1928.468    -328.5437   -2681.0825    17.931477     21.12091    21.876359           90           90           90 
 1988500    286.00732   -119.10981   -87.205262   -119.10981            0   -499.39796    18.117237    21.339712    22.102987            0            0            0    8545.3822   -496.18512   -543.07654   -458.93223    1847.2938    1753.7341   -1382.9897    18.117237    21.339712    22.102987           90           90           90 
 1989000    275.09755   -120.62223   -89.934687   -120.62223            0   -2266.5658    17.997912    21.199163    21.957411            0            0            0    8377.6452    428.22942   -5859.3694   -1368.5575   -662.31857   -2792.4331   -599.27406    17.997912    21.199163    21.957411           90           90           90 
 1989500    276.10504    -121.6746   -90.874672    -121.6746            0    1899.2501     17.82298    20.993116    21.743994            0            0            0    8135.7303    455.78648   -863.14078    6105.1047   -500.47033    183.80475    7.0498288     17.82298    20.993116    21.743994           90           90           90 
 1990000    280.09502   -121.88374   -90.638715   -121.88374            0    926.37921    17.988519    21.188099    21.945951            0            0            0    8364.5354     3075.716   -167.92534   -128.65298   -1005.5807    198.77756   -2019.5315    17.988519    21.188099    21.945951           90           90           90 
 1990500    283.60706   -122.90151   -91.264714   -122.90151            0   -1515.3262    18.003918    21.206236    21.964737            0            0            0    8386.0341   -5836.5428    432.92447    857.63966   -2578.4162    908.44305   -330.69822    18.003918    21.206236    21.964737           90           90           90 
 1991000    256.50977    -122.4521   -93.838045    -122.4521            0    1256.4896      17.8904    21.072528    21.826246            0            0            0    8228.4066    3567.1727   -1017.1813    1219.4773    769.08796   -445.71796   -163.34654      17.8904    21.072528    21.826246           90           90           90 
 1991500    282.97231   -120.68318   -89.117188   -120.68318            0   -4911.7581    17.938056    21.128659    21.884386            0            0            0     8294.337   -8117.1112   -4345.8192   -2272.3439   -2391.9873   -434.87588   -83.112186    17.938056    21.128659    21.884386           90           90           90 
 1992000    278.89327   -122.03286   -90.921891   -122.03286            0   -323.81817    18.022921    21.228619    21.987921            0            0            0    8412.6166    2659.7239   -7279.0471    3647.8687    -1603.834   -567.53768    1871.7273    18.022921    21.228619    21.987921           90           90           90 
 1992500    278.63298   -121.06192   -89.979988   -121.06192            0    3180.5169    17.903791      21.0883    21.842583            0            0            0    8246.8968    4533.8227    3944.1453    1063.5829     749.5061    637.25582    2547.7135    17.903791      21.0883    21.842583           90           90           90 
 1993000    287.56234   -122.54061   -90.462597   -122.54061            0    2223.8576    17.928119    21.116955    21.872263            0            0            0    8280.5603    4156.6814   -1749.7283    4264.6197    990.82174   -2141.3693    476.53464    17.928119    21.116955    21.872263           90           90           90 
 1993500    288.25697   -123.03785   -90.882352   -123.03785            0   -756.86706    17.989726     21.18952    21.947423            0            0            0    8366.2179    636.51697   -5543.1749    2636.0568   -744.28064    813.99628    9.6265945    17.989726     21.18952    21.947423           90           90           90 
 1994000    269.12697   -120.11141   -90.089887   -120.11141            0    3894.2477     17.89762    21.081031    21.835054            0            0            0    8238.3723     151.8144     3198.814    8332.1148   -1871.0546   -1479.0475    2201.8607     17.89762    21.081031    21.835054           90           90           90 
 1994500    268.79991   -120.95598   -90.970949   -120.95598            0     1402.372    17.905996    21.090898    21.845273            0            0            0    8249.9448   -2473.0371    3869.5031    2810.6498   -1197.8015    1099.3295    -663.9587    17.905996    21.090898    21.845273           90           90           90 
 1995000    275.91093   -121.71405    -90.93577   -121.71405            0   -1731.8486      17.9943    21.194907    21.953003            0            0            0    8372.6015   -3282.2441    -1578.418   -334.88373   -741.77838   -2482.6245    2212.9862      17.9943    21.194907    21.953003           90           90           90 
 1995500    277.84155   -123.68973   -92.696091   -123.68973            0    3522.1294     17.99116    21.191209    21.949173            0            0            0    8368.2197    5591.2242    4965.0089    10.154964    935.92784    157.98822   -946.25075     17.99116    21.191209    21.949173           90           90           90 
 1996000    277.46842   -122.52867   -91.576654   -122.52867            0    116.32599    18.012641     21.21651    21.975379            0            0            0    8398.2291    1948.9827    -1823.039    223.03428   -790.55226     929.3367    2480.2258    18.012641     21.21651    21.975379           90           90           90 
 1996500    270.40971   -120.86775   -90.703139   -120.86775            0    3083.6197    17.978109    21.175837    21.933251            0            0            0    8350.0217    1377.3476    4050.1253    3823.3861    574.24074   -579.77884    1731.2755    17.978109    21.175837    21.933251           90           90           90 
 1997000    267.30075   -120.62635   -90.808546   -120.62635            0   -2050.4851    18.010614    21.214124    21.972907            0            0            0     8395.395   -1179.4324   -1080.1083   -3891.9147   -3088.2989    1949.0586    2043.4901    18.010614    21.214124    21.972907           90           90           90 
 1997500    276.25647   -120.92475   -90.107925   -120.92475            0    2666.6553    17.931588    21.121041    21.876495            0            0            0    8285.3683    1258.1903     3561.617    3180.1585    1579.6491   -24.081856   -2250.3766    17.931588    21.121041    21.876495           90           90           90 
 1998000    267.25176   -120.95101   -91.138677   -120.95101            0   -2008.3849    17.935162    21.125251    21.880855            0            0            0     8290.323    679.87507    -4288.933   -2416.0969   -275.81059    2096.8408    171.56822    17.935162    21.125251    21.880855           90           90           90 
 1998500    278.08658    -122.4814   -91.460427    -122.4814            0   -175.15481     17.98921    21.188912    21.946794            0            0            0    8365.4987   -2147.2156     1454.581    167.17015    523.74363    777.55736   -2271.4819     17.98921    21.188912    21.946794           90           90           90 
 1999000    270.22176   -122.13965   -91.996003   -122.13965            0   -1244.3557    18.042856      21.2521    22.012242            0            0            0    8440.5627   -1680.7644   -713.28371    -1339.019   -1414.6819   -897.77827    -189.8047    18.042856      21.2521    22.012242           90           90           90 
 1999500    277.57548   -122.17151   -91.207546   -122.17151            0   -45.196724       17.978    21.175708    21.933118            0            0            0    8349.8696   -224.52274    962.34198   -873.40941    2782.2578   -1858.0542    75.388384       17.978    21.175708    21.933118           90           90           90 
 2000000    279.60303   -122.27542   -91.085281   -122.27542            0    386.75574    17.997326    21.198472    21.956695            0            0            0    8376.8262   -717.08039   -1928.7008    3806.0485   -1970.3343    446.93925    961.54506    17.997326    21.198472    21.956695           90           90           90 
Loop time of 10807.9 on 1 procs for 2000000 steps with 864 atoms

Performance: 7.994 ns/day, 3.002 hours/ns, 185.050 timesteps/s
74.1% CPU use with 1 MPI tasks x 1 OpenMP threads

MPI task timing breakdown:
Section |  min time  |  avg time  |  max time  |%varavg| %total
---------------------------------------------------------------
Pair    | 9403.4     | 9403.4     | 9403.4     |   0.0 | 87.01
Bond    | 0.32552    | 0.32552    | 0.32552    |   0.0 |  0.00
Neigh   | 1278.8     | 1278.8     | 1278.8     |   0.0 | 11.83
Comm    | 44.184     | 44.184     | 44.184     |   0.0 |  0.41
Output  | 9.5886     | 9.5886     | 9.5886     |   0.0 |  0.09
Modify  | 62.904     | 62.904     | 62.904     |   0.0 |  0.58
Other   |            | 8.667      |            |       |  0.08

Nlocal:        864.000 ave         864 max         864 min
Histogram: 1 0 0 0 0 0 0 0 0 0
Nghost:        3998.00 ave        3998 max        3998 min
Histogram: 1 0 0 0 0 0 0 0 0 0
Neighs:         0.00000 ave           0 max           0 min
Histogram: 1 0 0 0 0 0 0 0 0 0
FullNghs:      190484.0 ave      190484 max      190484 min
Histogram: 1 0 0 0 0 0 0 0 0 0

Total # of neighbors = 190484
Ave neighs/atom = 220.46759
Ave special neighs/atom = 0.0000000
Neighbor list builds = 200000
Dangerous builds not checked

unfix		3
unfix		2

write_data	data.final.${pid}
write_data	data.final.0
System init for write_data ...

write_restart   restart.lmp.${pid}
write_restart   restart.lmp.0
System init for write_restart ...
Unloading pair style deepmd
Unloading compute style deepmd
Unloading fix style deepmd
Total wall time: 3:00:21
