LAMMPS data file via write_data, version 29 Sep 2021, timestep = 400000

972 atoms
2 atom types

-0.09833355910449626 20.08938655910558 xlo xhi
-0.07446495366811234 20.06551795366976 ylo yhi
0.18171805388051787 20.619053946118758 zlo zhi

Masses

1 1.008
2 15.999

Atoms # full

2 0 2 0 2.302783481937265 2.363267348154738 1.0091213868225148 0 0 0
31 0 1 0 0.9781352181728804 1.9011750472691258 2.2331012512991304 0 0 0
32 0 2 0 1.1598144935262478 1.0186965477903749 2.581784706007257 0 0 0
33 0 2 0 0.9649486686361439 2.526962729670521 2.9837950130934914 0 0 0
5 0 2 0 3.6297437670554933 1.0353685586022627 3.9369701399851458 0 0 0
18 0 2 0 3.617731271573402 3.179757649454114 3.50715580013717 0 0 0
4 0 1 0 4.271735582246024 1.4423798725376424 3.3576085119354486 0 0 0
36 0 2 0 5.811117373950985 2.185526067822756 1.3656808149322417 0 0 0
34 0 1 0 5.332397851062667 2.2433801890773157 0.5554375691540376 0 0 0
35 0 2 0 4.38933221921678 2.2483278708354164 0.7604620680902175 0 0 0
67 0 1 0 7.352341696586399 2.133956044685441 2.251765411466004 0 0 0
6 0 2 0 5.172033540718423 1.2577168134564902 3.716920962687571 0 0 0
68 0 2 0 7.580117781736196 2.7409596091002126 2.9984861646613954 0 0 0
230 0 2 0 4.36601775469095 0.2983627631016663 2.0031292336295383 0 1 0
272 0 2 0 7.358709186702876 0.15698317680666193 2.1794394228805283 0 1 0
69 0 2 0 7.992555533205188 2.3513758768210846 1.579572320207011 0 0 0
40 0 1 0 11.11177016605573 1.3327542362960305 3.593318294031005 0 0 0
54 0 2 0 10.762024466104464 3.013692468645134 3.861382777951466 0 0 0
41 0 2 0 10.320563731550898 1.0128093900304205 4.085244760277478 0 0 0
39 0 2 0 10.365214568306111 2.525483176204032 0.7357299983632277 0 0 0
42 0 2 0 11.887980346784927 1.0098289057791152 4.075925688387779 0 0 0
52 0 1 0 10.500254549066918 3.8964384583232894 4.174847321517594 0 0 0
266 0 2 0 11.225002120228034 0.16106290126930903 2.041186811274824 0 1 0
37 0 1 0 9.423942526538923 2.5258782291258415 0.4823852509560173 0 0 0
70 0 1 0 12.257022716048276 2.454178752198666 0.6257195814731428 0 0 0
71 0 2 0 12.624076170979276 3.2606565763142927 0.2594887397375958 0 0 0
72 0 2 0 12.724104880898414 2.3247362233044333 1.4575450295922336 0 0 0
84 0 2 0 14.573379611727434 3.004210784439086 3.588796767444007 0 0 0
103 0 1 0 14.611833028556102 1.6871259691119598 2.332242179208895 0 0 0
105 0 2 0 14.656261558596764 0.7373952761324051 2.2386389942552682 0 0 0
104 0 2 0 15.21546374732615 2.049380852700689 1.6430263705450951 0 0 0
82 0 1 0 14.553110148219554 3.8773175168475644 4.041571893384059 0 0 0
73 0 1 0 16.20261663991717 2.4311568616351256 0.31955593239856755 0 0 0
76 0 1 0 18.031354428329944 1.6024614913536714 3.1636443383092345 0 0 0
89 0 2 0 17.558512339278387 3.1451124253399296 3.2086341530467117 0 0 0
108 0 2 0 19.703730866480274 2.188153065619033 0.825781612414576 0 0 0
77 0 2 0 17.97114930757778 0.8277517280023153 2.556940815925782 0 0 0
107 0 2 0 18.31931479593199 2.383042062742253 0.3590504676448773 0 0 0
78 0 2 0 18.697387098023526 1.3243732549786202 3.763253561885493 0 0 0
75 0 2 0 16.096915848317455 3.378571748011221 0.20583863939126687 0 0 0
10 0 1 0 0.9459370500935969 4.275046948958493 3.5739163227148567 0 0 0
12 0 2 0 1.8353711828151857 4.229718499060365 3.958529534847581 0 0 0
20 0 2 0 0.8911515087038125 5.512093234266647 2.151870384932249 0 0 0
19 0 1 0 0.6742595877853871 6.136918795615308 1.4580860702328529 0 0 0
21 0 2 0 0.8895904457238155 6.9986275477299085 1.8173782243041126 0 0 0
675 0 2 0 2.195418253340414 5.5885623525682755 0.38205210025122494 0 0 1
16 0 1 0 3.4808664408329713 4.058517927934294 3.945391641782188 0 0 0
17 0 2 0 3.831076558984337 4.709314304651976 3.3106512580834058 0 0 0
112 0 1 0 3.8882189550855535 7.8805825694844405 3.557980440149464 0 0 0
46 0 1 0 7.837736557045927 4.091084200328809 4.18666344152206 0 0 0
14 0 2 0 4.359937284796298 5.535884764199577 1.1197624459750914 0 0 0
114 0 2 0 3.9994791154187332 7.331161488777248 2.753209616720688 0 0 0
13 0 1 0 4.748338484000004 5.725291722278689 1.982211442855999 0 0 0
15 0 2 0 5.730840842463553 5.770250742821949 1.981489069510964 0 0 0
55 0 1 0 7.279034703455785 5.9399497138793285 2.0925363805138515 0 0 0
56 0 2 0 7.572484045372267 5.518416191986064 2.907833472011944 0 0 0
177 0 2 0 7.381741966257108 7.86587860178358 2.232933426412487 0 0 0
113 0 2 0 4.626814223145729 7.620690091707506 4.195068234485546 0 0 0
57 0 2 0 7.887163817579487 5.743307758552623 1.3482317085033735 0 0 0
51 0 2 0 10.876625270510672 5.199606282309458 2.779487448459218 0 0 0
49 0 1 0 10.89538096768722 5.960680395922779 2.254085424054403 0 0 0
50 0 2 0 10.3416661970063 5.7832176024907564 1.5026809583332068 0 0 0
150 0 2 0 11.057054086730865 7.5685418811518455 2.916288656209356 0 0 0
709 0 1 0 9.208443327627446 5.347146439689611 0.22091351658109204 0 0 1
83 0 2 0 14.261255673952716 4.50332814883145 3.354064684699816 0 0 0
91 0 1 0 13.762340304200627 5.686810093714485 2.1101180764557848 0 0 0
92 0 2 0 14.008714274830677 6.600217043677402 2.2222688166507725 0 0 0
93 0 2 0 12.811237034740925 5.716037735211705 1.8188489862820996 0 0 0
747 0 2 0 14.941118782265098 5.284679481856762 0.8745226018172509 0 0 1
745 0 1 0 15.683917644046277 5.176745590038548 0.25179310177059255 0 0 1
88 0 1 0 17.48908699700251 4.091744631105086 3.449604779602722 0 0 0
90 0 2 0 16.58899632878269 4.102256003375391 3.8967307691313553 0 0 0
86 0 2 0 17.94421045048639 5.206196856298234 2.3167054379489933 0 0 0
85 0 1 0 18.03145058066202 6.0514880946876755 1.7659981537918847 0 0 0
87 0 2 0 18.894981328552962 5.94292642831617 1.3379982752705482 0 0 0
185 0 2 0 18.143175518912713 7.800984864349728 2.555915541792496 0 0 0
746 0 2 0 16.44992304981659 5.556103230798393 0.7561266007541976 0 0 1
139 0 1 0 0.5662903538594397 8.895584849270847 2.3930362190888013 0 0 0
141 0 2 0 1.3226468259380024 8.94904186692928 1.7812771894331025 0 0 0
119 0 2 0 0.7746357145540321 10.334924590311056 3.2389047137970444 0 0 0
110 0 2 0 3.581885072620898 8.80959058245562 0.7515614582707826 0 0 0
118 0 1 0 0.9862146516850077 11.186652432701461 3.6766711290308782 0 0 0
120 0 2 0 1.9801331846271042 11.12074422858159 3.755168686620531 0 0 0
109 0 1 0 2.598549362104025 8.878298726418372 0.6399907087547194 0 0 0
124 0 1 0 3.779936505037706 10.757253441431438 3.5748065292361297 0 0 0
783 0 2 0 2.291920417080479 10.633935294820965 0.4623164180815851 0 0 1
781 0 1 0 2.191049179308178 11.572671705683106 0.26728601467797486 0 0 1
126 0 2 0 4.121858402025465 9.920287176777826 3.2333977384972132 0 0 0
175 0 1 0 7.479712813233918 8.819403453935887 2.001145319809196 0 0 0
176 0 2 0 6.67962735551864 8.907586776274627 1.3501368743273872 0 0 0
142 0 1 0 5.54439118845771 8.922551557397462 0.3026868783609598 0 0 0
155 0 2 0 7.9094562803277775 10.02285455256409 3.058324945841491 0 0 0
156 0 2 0 7.746308443015137 11.571649069369725 3.023657569135747 0 0 0
149 0 2 0 10.140660871745547 8.02287160477348 3.931710019840919 0 0 0
148 0 1 0 11.01803847483692 8.216964388234992 3.6076283699245892 0 0 0
154 0 1 0 8.1334851250654 10.827886243577245 3.5376597015021645 0 0 0
147 0 2 0 9.019265856485314 9.031320137996817 0.7029344369711934 0 0 0
162 0 2 0 11.083710744492063 9.95329494980055 3.6639997541036005 0 0 0
179 0 2 0 11.269457929150397 9.346164715455224 0.6235501225516501 0 0 0
161 0 2 0 9.830817273983726 10.996859038948005 3.973871872549585 0 0 0
160 0 1 0 10.827357845424311 10.897727194379318 3.8716904376535437 0 0 0
158 0 2 0 11.09571682681096 11.897881559160043 2.4973962465166823 0 0 0
178 0 1 0 12.217086006106266 9.290203989443768 0.7690402637902669 0 0 0
211 0 1 0 14.09977782265782 8.664540275180338 2.339442073653306 0 0 0
212 0 2 0 14.271179295978497 9.295512590066359 3.088789135872493 0 0 0
213 0 2 0 13.251081044607863 8.961635024583067 1.9347326476542468 0 0 0
183 0 2 0 15.227197838014972 8.853860579748444 1.0768712706414 0 0 0
191 0 2 0 14.290855921794376 11.270795238173106 3.5583088083245906 0 0 0
190 0 1 0 14.750099972718008 10.607296788255338 4.115446260265795 0 0 0
192 0 2 0 15.695375726180098 10.888798370652605 3.967492982672351 0 0 0
855 0 2 0 15.145420268572112 12.002391997586091 0.8782350759242872 0 0 1
181 0 1 0 15.765132929589312 9.063424330170134 0.27915624241655235 0 0 0
184 0 1 0 17.722269693926684 8.261598663793 3.3074258022229857 0 0 0
140 0 2 0 19.954309245115553 9.065198009520866 1.8442657661593387 -1 0 0
186 0 2 0 17.5842722426225 9.222520754717543 3.133734857958619 0 0 0
216 0 2 0 17.5559586230012 8.833861514900075 0.6435461297180729 0 0 0
214 0 1 0 18.48132149919166 9.068989878130926 0.4633057315176584 0 0 0
197 0 2 0 17.493564432332647 11.586822509743278 2.716132790245962 0 0 0
196 0 1 0 17.2614780129188 10.98348051104453 3.463771043345629 0 0 0
198 0 2 0 17.91681552405297 11.102911608928293 4.179776251870894 0 0 0
129 0 2 0 0.7116807440578301 12.278615389556062 2.619807303017954 0 0 0
782 0 2 0 1.489551737793708 12.021957003139038 0.7794626243940075 0 0 1
127 0 1 0 0.5053512902374374 12.762830206243414 1.737725053771982 0 0 0
249 0 2 0 0.5564925742623581 14.506481521888585 2.1370160702711134 0 0 0
221 0 2 0 2.908883993265574 14.335286236533472 3.4907299158259844 0 0 0
247 0 1 0 0.4119482053196042 15.448579784540511 2.214181499969648 0 0 0
123 0 2 0 3.8002100735017286 12.356781089999961 0.9671945565870234 0 0 0
218 0 2 0 1.605453478785431 15.80929307836953 0.8452458329108289 0 0 0
220 0 1 0 3.7465033049343113 14.668166061479182 3.060858691747731 0 0 0
122 0 2 0 4.2612033951461195 12.035735769688305 2.3822898432619897 0 0 0
222 0 2 0 4.216148759660441 13.887973464336394 2.6407019482542213 0 0 0
121 0 1 0 4.483603326759931 12.58611310552531 1.6365933121272986 0 0 0
163 0 1 0 7.208535213203557 12.886873011017801 1.5641143020469264 0 0 0
164 0 2 0 7.2309668107045395 13.714676533482411 2.077500503693967 0 0 0
165 0 2 0 6.25997184572497 12.704902527980657 1.4066944848624523 0 0 0
283 0 1 0 7.21485612942116 15.516554083907014 2.3173352022727505 0 0 0
284 0 2 0 6.424467722902678 15.905908517142551 1.938723462309944 0 0 0
285 0 2 0 7.878902441592262 15.61551926681435 1.624946050547093 0 0 0
819 0 2 0 8.254368823112095 12.216397777660392 0.4773160316792296 0 0 1
818 0 2 0 9.84028410898834 12.21139714025854 0.5299245258413137 0 0 1
157 0 1 0 11.226139932435776 12.41460026435455 1.7035515188629002 0 0 0
159 0 2 0 11.175592683283119 13.302961833737365 1.9919311085425855 0 0 0
256 0 1 0 10.531594886406591 14.490206825367613 3.1020297229342204 0 0 0
258 0 2 0 9.77852072809275 14.344789169411694 3.757010328011464 0 0 0
257 0 2 0 10.575996197221453 15.451199358032184 3.0836626255895223 0 0 0
255 0 2 0 10.09859716604799 15.546735178787571 0.5296461811776997 0 0 0
253 0 1 0 9.218691635549526 15.869798802830847 0.29179373134659714 0 0 0
286 0 1 0 11.942639653384065 15.883224705710727 0.5197606991925244 0 0 0
199 0 1 0 14.01946514037524 12.558499601508887 2.2998483060353254 0 0 0
200 0 2 0 13.095538366336918 12.574613976510424 2.040174284221215 0 0 0
201 0 2 0 14.152468456784455 13.494813895091866 2.483919483524384 0 0 0
319 0 1 0 13.963906300756255 15.355884477309628 2.4007871802138943 0 0 0
320 0 2 0 13.151464668709657 15.48583608843631 1.910724284532675 0 0 0
291 0 2 0 15.276358723853404 15.426963117760602 1.1106965014863073 0 0 0
289 0 1 0 15.747629136092401 15.463448891356578 0.2889689558632888 0 0 0
248 0 2 0 19.67757772836368 15.621285878140695 1.9268105456602351 -1 0 0
128 0 2 0 19.732601959933 12.49447787928939 1.6533278582564213 -1 0 0
195 0 2 0 17.23491041279422 12.555810075420817 0.7911167435331217 0 0 0
193 0 1 0 17.947634400160474 12.605049664412983 1.4162388451021977 0 0 0
194 0 2 0 17.64278087850739 13.363562999744962 1.9435169857957708 0 0 0
292 0 1 0 17.082404734789733 14.683980203256475 3.3100225031530486 0 0 0
294 0 2 0 16.35422462020612 14.470213647273033 3.9058814911386457 0 0 0
322 0 1 0 18.552431563501035 15.961937387845992 0.5797256925043456 0 0 0
293 0 2 0 16.920516494594942 15.611107153388785 3.013170060323436 0 0 0
290 0 2 0 16.705581836029 15.60992658787797 0.44569794019351094 0 0 0
227 0 2 0 1.0005546362161006 16.605817136798326 3.47954736830395 0 0 0
235 0 1 0 0.7970011416413196 19.290779572791816 1.7702953854132675 0 0 0
236 0 2 0 1.0976419745279735 18.60496512039215 2.4235138271436054 0 0 0
237 0 2 0 1.3647639571210268 19.275790729949186 0.9528505692776804 0 0 0
226 0 1 0 1.2146034131009407 17.41508094978788 3.9462253800202065 0 0 0
228 0 2 0 2.2042957595061465 17.445324948776875 4.036549621876927 0 0 0
250 0 1 0 4.99885145520787 16.39040556735971 0.30165739995061625 0 0 0
232 0 1 0 4.172723241970786 17.490353138001936 3.413100170885132 0 0 0
233 0 2 0 4.115113070231013 16.70549409828797 2.85241029469887 0 0 0
234 0 2 0 4.316739848408763 18.294014594118337 2.835299497175216 0 0 0
229 0 1 0 4.421403092369789 19.536775327452542 1.66823791994392 0 0 0
231 0 2 0 5.325617529392298 19.551803895399424 1.4093191075647624 0 0 0
271 0 1 0 7.107527611541507 19.385544494806336 1.9049082276802851 0 0 0
273 0 2 0 7.584953055360036 18.825061596105876 2.5779072240719403 0 0 0
263 0 2 0 7.991335786563335 16.825025546856157 3.308872887900768 0 0 0
262 0 1 0 8.237068506424126 17.530959804465354 3.9564242324325414 0 0 0
927 0 2 0 8.540533736332678 18.973845974284167 0.6947007247695778 0 0 1
267 0 2 0 10.888388043009877 19.348885735267526 0.8988922106921968 0 0 0
269 0 2 0 11.240267382774181 17.831746509697844 2.813214836192184 0 0 0
265 0 1 0 11.512112580476886 19.473789398460376 1.6348306949825993 0 0 0
268 0 1 0 11.204588623946378 17.214896013828394 3.5778261705674264 0 0 0
264 0 2 0 9.183408710677753 17.459776996966156 4.211342685009751 0 0 0
270 0 2 0 11.828658307663867 17.43492090746248 4.2594769516119655 0 0 0
321 0 2 0 14.043797078293021 16.067397270927955 3.0211243918755866 0 0 0
307 0 1 0 14.32342574964582 18.997031107759852 1.8873123104429737 0 0 0
308 0 2 0 13.352846706837882 19.019006614272083 1.8113764286596612 0 0 0
309 0 2 0 14.471125599780152 18.556446305906025 2.7497707762832864 0 0 0
963 0 2 0 15.486999281520989 18.608252504318322 0.5068969089653435 0 0 1
298 0 1 0 14.83533152402482 17.28473100907769 4.141909226190974 0 0 0
301 0 1 0 18.24774810176592 19.519453776356077 1.630803437174044 0 0 0
302 0 2 0 17.835516251452137 19.128096257610725 0.84256673998284 0 0 0
303 0 2 0 19.201325010589816 19.32902362653516 1.4965703376507469 0 0 0
306 0 2 0 17.641136755595625 18.13722104743162 2.946549978038664 0 0 0
304 0 1 0 17.482210962498776 17.59465076616588 3.711643551023404 0 0 0
22 0 1 0 2.101174863214791 0.9956297866946255 5.034122214175889 0 0 0
23 0 2 0 2.380367105016478 1.5858123870682903 5.729471665876612 0 0 0
325 0 1 0 2.9935079550117174 2.678221865758415 7.077554433550217 0 0 0
327 0 2 0 2.9576814609460635 3.6113020100792226 6.802002695575245 0 0 0
326 0 2 0 3.930664609327132 2.471186101295319 7.26889423176561 0 0 0
101 0 2 0 0.41197860094934946 1.139207709528289 5.249490965915169 1 0 0
24 0 2 0 2.210529414017656 0.06994010711859236 5.4377174366875165 0 0 0
356 0 2 0 1.5027393193082093 2.3815234341925717 8.206127298703668 0 0 0
561 0 2 0 0.6263498834585014 0.14244413233037925 8.35102559906352 0 1 0
28 0 1 0 6.178364310246726 0.3939580605887244 5.167507672313379 0 0 0
29 0 2 0 7.196196196347691 0.3755805059192802 5.000947220249045 0 0 0
358 0 1 0 5.718358067355469 2.1103980643902207 7.1142249667039215 0 0 0
359 0 2 0 5.970035090014977 1.3814761115415233 6.559950509069983 0 0 0
360 0 2 0 6.3999124075295395 1.9032459065269272 7.81390625552685 0 0 0
8 0 2 0 5.543970976434757 3.824946594918133 6.589263489598101 0 0 0
58 0 1 0 8.902464594686379 0.6729371389103366 5.038961864314146 0 0 0
59 0 2 0 9.087649038810467 1.333429052561273 5.735316939486332 0 0 0
361 0 1 0 9.776990296034874 2.526045553246589 6.860764061594985 0 0 0
362 0 2 0 10.656465521652985 2.2912416254174843 7.233022317871267 0 0 0
363 0 2 0 9.639209948900193 3.4810005201952956 6.909756607192663 0 0 0
392 0 2 0 8.423844803333672 1.70022406919457 8.142458239726754 0 0 0
394 0 1 0 12.367121714694282 2.3206542832743304 7.739357695319099 0 0 0
396 0 2 0 12.587774847737473 3.246698497920891 7.461738017555277 0 0 0
64 0 1 0 13.088316279602708 0.43620118208033487 5.582469494502098 0 0 0
65 0 2 0 14.058091090701868 0.4825592284045609 5.369770107465347 0 0 0
66 0 2 0 12.95597845588971 1.0333986936086996 6.335870740539426 0 0 0
94 0 1 0 15.9095853089411 0.6003905757905306 5.101102706161635 0 0 0
399 0 2 0 15.803190120059526 3.585923341984212 6.596538500410046 0 0 0
429 0 2 0 15.31833625325554 1.9603755076335165 8.292547958634508 0 0 0
95 0 2 0 16.072957462274026 1.269179493658484 5.815621666605811 0 0 0
96 0 2 0 16.5493072325416 0.8786646042634323 4.418661128617024 0 0 0
397 0 1 0 16.153189462381672 2.7311835785079377 6.9417846762595605 0 0 0
100 0 1 0 19.62771746368571 1.0506658100832786 5.32961790372587 0 0 0
398 0 2 0 17.105267445680457 2.8383418143241457 7.020760110546371 0 0 0
430 0 1 0 18.823614264834042 3.031392101995992 6.976208922484042 0 0 0
431 0 2 0 19.143933448055886 2.3581730200535067 6.3702852945393165 0 0 0
432 0 2 0 18.958707761935205 3.8653020329677745 6.5041676790656515 0 0 0
102 0 2 0 19.4205060452143 0.11955416200815985 5.546924167708543 0 0 0
131 0 2 0 2.44315844231308 7.8955342495875644 4.428027351995007 0 0 0
11 0 2 0 0.2836973432214112 4.505322522478636 4.299555799976783 0 0 0
25 0 1 0 2.5896401576414894 5.476914577049312 6.797215150399418 0 0 0
26 0 2 0 2.323265063383771 6.092061991122231 6.1323570551877475 0 0 0
27 0 2 0 3.5128933719107915 5.628327193319594 7.06664114116987 0 0 0
130 0 1 0 1.8365679670256247 7.9135754079392475 5.1767781036769644 0 0 0
344 0 2 0 1.164826948935239 5.613579765459049 8.08686217083008 0 0 0
48 0 2 0 7.310008367143466 4.103066322695049 5.009949163425296 0 0 0
9 0 2 0 4.756886729558728 3.9952011846040847 5.230969342784023 0 0 0
7 0 1 0 5.264539715937237 4.454008822750872 5.877631714887046 0 0 0
136 0 1 0 5.818523863900961 7.026841925975469 5.248697683391071 0 0 0
137 0 2 0 5.555870571036807 6.095398077428923 5.458388029163949 0 0 0
138 0 2 0 6.781956294335572 7.043551665894667 5.136134071189398 0 0 0
47 0 2 0 8.758640368538016 4.0388786460996515 4.445101076313246 0 0 0
63 0 2 0 8.514866454768969 5.276831323909315 7.517026575894789 0 0 0
53 0 2 0 11.246100908386437 4.17054587720805 4.78853111171335 0 0 0
166 0 1 0 8.436942031421419 7.418606588227912 5.10292744217377 0 0 0
61 0 1 0 9.243877168227598 5.226205063772827 6.868659813060663 0 0 0
167 0 2 0 8.83250501109049 6.621482778989051 5.464914992117846 0 0 0
62 0 2 0 9.965219098882738 5.526193408672177 7.453783209773098 0 0 0
173 0 2 0 12.139861137931662 7.458634831247277 4.826423346662251 0 0 0
44 0 2 0 13.434366219345865 4.114736962794996 5.309751180851418 0 0 0
43 0 1 0 12.73531662501892 4.391603441570181 5.934324857616332 0 0 0
204 0 2 0 15.9839398158447 7.572159927879245 4.32075989005005 0 0 0
45 0 2 0 12.656004860158927 5.354543199962041 5.815455422965898 0 0 0
172 0 1 0 12.765848302061418 7.136143699633848 5.5045359780847525 0 0 0
174 0 2 0 13.602711167125822 7.203293224082359 5.045708604583038 0 0 0
202 0 1 0 15.533560586852014 7.628104452350254 5.162686035503368 0 0 0
99 0 2 0 15.7362835954721 6.059794389230344 6.009647411247543 0 0 0
416 0 2 0 14.53537247951693 5.513182376893897 7.9640664452730014 0 0 0
97 0 1 0 15.82658019567672 5.269728276111509 6.573933402029094 0 0 0
417 0 2 0 13.03606475598546 5.628013604413428 8.309745491585714 0 0 0
81 0 2 0 18.43095076699908 4.836319016801031 4.6686623091716735 0 0 0
79 0 1 0 19.15958651625116 5.026867107869498 5.284323388312995 0 0 0
80 0 2 0 19.15743764918947 5.978965897793094 5.398071969364561 0 0 0
98 0 2 0 16.634150502141107 5.440337635285457 7.123064998924874 0 0 0
208 0 1 0 19.35031780539882 7.933798173234958 5.314033934867898 0 0 0
410 0 2 0 18.705841417406045 6.089463263055748 8.102120686351359 0 0 0
132 0 2 0 0.9304177601319608 7.9988001984450445 4.836353190491775 0 0 0
433 0 1 0 2.760828392392865 9.192883176048815 7.305301040949727 0 0 0
435 0 2 0 2.5151695969369916 8.749262250415898 6.471095080903997 0 0 0
434 0 2 0 3.667190967977936 8.87414624871352 7.520461982336696 0 0 0
135 0 2 0 2.6922634842181545 11.04163969017646 6.744387682501736 0 0 0
465 0 2 0 1.4178171503430443 8.642969724849522 8.293938193070495 0 0 0
125 0 2 0 4.305491664411785 10.92273069357878 4.378950046990679 0 0 0
468 0 2 0 5.516644280744018 8.026734972113172 6.484841140246137 0 0 0
466 0 1 0 5.4338306335255595 8.80517195359441 7.144288964493871 0 0 0
467 0 2 0 5.754702139499946 9.483818859474264 6.538637389988548 0 0 0
115 0 1 0 5.81928976183602 11.103179800647878 5.489030979082109 0 0 0
116 0 2 0 6.634359321033678 11.018440677980344 4.992605121992447 0 0 0
501 0 2 0 6.719893832522048 8.633532972362895 8.348792390943627 0 0 0
168 0 2 0 8.756000768696644 8.059021376492861 5.73002836912848 0 0 0
469 0 1 0 9.18638783674116 9.315827135756102 6.912445620104303 0 0 0
471 0 2 0 10.13099551518257 9.30124936137442 7.141978180098597 0 0 0
470 0 2 0 8.908438583780049 10.260746659649252 6.884152936777547 0 0 0
500 0 2 0 8.196038275541838 8.623425781114475 8.32141680714623 0 0 0
169 0 1 0 8.962670302110492 11.924320754920906 6.738677316983978 0 0 0
152 0 2 0 12.066043074587531 11.252140922968307 5.152826735361113 0 0 0
502 0 1 0 12.152187796498879 9.315354719032268 7.248806814908993 0 0 0
503 0 2 0 12.359289372108728 8.568947821595822 6.665626379935964 0 0 0
203 0 2 0 15.837739596986195 8.466054627043828 5.512752445629574 0 0 0
504 0 2 0 12.37778052038612 10.03740882375037 6.659043447299508 0 0 0
151 0 1 0 12.750763076962635 11.466194054943722 5.826863780620371 0 0 0
153 0 2 0 13.504972213662143 11.178713707012248 5.297975138815118 0 0 0
209 0 2 0 18.682024091430275 8.0987445663615 4.616296254979793 0 0 0
210 0 2 0 19.266839105010966 8.516579381342822 6.067234268881308 0 0 0
507 0 2 0 16.07497745330628 9.28151496989119 7.761354624726881 0 0 0
505 0 1 0 16.43617962497591 9.646851262890955 6.8981311126547356 0 0 0
207 0 2 0 16.340557169771873 11.432691562909962 6.9978867034269 0 0 0
189 0 2 0 19.81405063213086 11.168105470351477 4.9684682429522615 0 0 0
539 0 2 0 19.64215757100607 9.513514592950903 8.297780626214688 0 0 0
506 0 2 0 17.416636371975166 9.69769097123507 6.97534245138267 0 0 0
538 0 1 0 19.142147170793113 9.639582850567285 7.445368964205855 0 0 0
540 0 2 0 19.41613548882264 10.482756917390759 7.013737010634486 0 0 0
187 0 1 0 19.024638962591844 11.459751438035681 5.473814589412064 0 0 0
133 0 1 0 2.8109675852381537 12.014668499090744 6.632713252575838 0 0 0
134 0 2 0 3.39998253030969 12.313097815531393 7.354225466168765 0 0 0
239 0 2 0 0.6969585640163484 14.096333721996135 4.959519534668129 0 0 0
238 0 1 0 1.6643693720462032 14.047217103744138 4.983081611586565 0 0 0
240 0 2 0 1.8299813594152596 13.101837338477326 5.2998421544415395 0 0 0
453 0 2 0 1.4881761380852307 12.68799798870313 7.71383840946442 0 0 0
542 0 2 0 2.2471090379790657 15.31167008289882 6.252409972995379 0 0 0
543 0 2 0 3.4169651929219027 15.603118685939416 7.267279087016859 0 0 0
541 0 1 0 2.5025423163445986 15.849723673259875 7.0384691593907975 0 0 0
246 0 2 0 4.965142396012109 14.324571172205996 4.701228129567657 0 0 0
117 0 2 0 5.734545186597219 12.067473386005593 5.5782110438295 0 0 0
244 0 1 0 5.758765721215281 14.067872967582472 5.196398190780221 0 0 0
245 0 2 0 5.60914373566502 14.624041213312838 6.023652088489748 0 0 0
276 0 2 0 7.555152864904051 14.171768199180626 5.00769549383124 0 0 0
575 0 2 0 5.963028231373636 15.731209657663548 8.107851989894636 0 0 0
489 0 2 0 7.786419641546315 12.215011758228187 8.088448271421962 0 0 0
574 0 1 0 5.134431711103768 15.933649106595144 7.581289177748316 0 0 0
171 0 2 0 9.806845879168087 12.267837258258323 7.119660685287876 0 0 0
170 0 2 0 8.73981090729645 12.52039403574863 6.012355261776481 0 0 0
274 0 1 0 8.521196078343392 13.929544854785714 5.067078762481073 0 0 0
275 0 2 0 8.898029636103852 14.629434271330592 5.6316237962025735 0 0 0
611 0 2 0 10.985184333788746 15.997204488171473 8.208427653594802 0 0 0
578 0 2 0 8.492291995948209 15.522040084826623 7.558001573008125 0 0 0
281 0 2 0 11.792504465770644 14.359368995906257 4.545975668809823 0 0 0
610 0 1 0 11.853901827312963 15.937165277993518 7.805311227979125 0 0 0
612 0 2 0 11.873481738818434 15.29493639775172 7.093569666416433 0 0 0
577 0 1 0 9.08517094237456 15.683910366832045 6.789932979959045 0 0 0
481 0 1 0 11.312864190918198 12.355059684892833 8.282651805726404 0 0 0
206 0 2 0 15.521801850791638 12.556761544507673 7.822289546754019 0 0 0
282 0 2 0 12.28379502011154 13.393919525994578 5.632837496374385 0 0 0
280 0 1 0 12.317027314814451 14.313492894586053 5.37721443068328 0 0 0
311 0 2 0 14.136012782420963 13.9365944238815 5.2305394956711915 0 0 0
310 0 1 0 15.095802005122442 14.015066040921411 5.153809709203905 0 0 0
312 0 2 0 15.380777023662764 13.411782281480649 5.802907921314955 0 0 0
614 0 2 0 15.601541536490457 15.506196146402036 6.590711252222395 0 0 0
613 0 1 0 15.981116700611 15.886167709061011 7.399336568974403 0 0 0
524 0 2 0 13.10736239628561 12.633199111865803 8.349279975424686 0 0 0
205 0 1 0 16.295262688588622 12.389302573036439 7.2235735065837865 0 0 0
318 0 2 0 18.58137850053947 14.629754530370787 4.544608616630494 0 0 0
188 0 2 0 19.116012718932723 12.402714605370305 5.5328699956168235 0 0 0
518 0 2 0 17.993843779510442 12.929559102992485 7.745924914901024 0 0 0
316 0 1 0 19.185300200933572 14.200885348149766 5.177528911222373 0 0 0
317 0 2 0 18.96350211348102 14.669929797667313 6.041968403877469 0 0 0
648 0 2 0 19.138690131379384 15.558064948920283 8.1224555269904 0 0 0
646 0 1 0 18.684009085255422 15.83348693392093 7.347305873314211 0 0 0
647 0 2 0 17.762662767663034 15.911982505615462 7.6814418965146505 0 0 0
241 0 1 0 2.569571055661109 18.752510372393107 6.565231403655157 0 0 0
242 0 2 0 2.524946479559589 17.765920407262037 6.468531924000719 0 0 0
243 0 2 0 3.2795997879439533 18.88232090396823 7.201889890428088 0 0 0
560 0 2 0 1.0919967205400787 19.09935096050074 7.493639569713518 0 0 0
559 0 1 0 0.3581540884526184 19.43590685458863 8.006093428207349 0 0 0
30 0 2 0 5.897849490141161 19.61716881656716 5.2847000768085 0 -1 0
223 0 1 0 5.897859987875067 17.460015129900103 5.46942132728428 0 0 0
224 0 2 0 5.190444717550111 17.39760182505822 4.83021573470878 0 0 0
225 0 2 0 6.758922687095832 17.41392607556654 5.0380869831617 0 0 0
576 0 2 0 5.380659584726404 16.51589181381687 6.848939403772688 0 0 0
60 0 2 0 9.1623677422797 19.922663088180713 5.457073077082027 0 -1 0
278 0 2 0 8.204715290653796 18.672967361909368 7.362494846826354 0 0 0
277 0 1 0 8.918858984968143 18.700852441803065 6.6937186553138375 0 0 0
579 0 2 0 9.214336920334661 16.64313455944764 6.696955701251249 0 0 0
279 0 2 0 9.704043049088044 18.6855266803723 7.260727979206551 0 0 0
300 0 2 0 15.736243959856852 17.548735067108968 4.2939254303305905 0 0 0
261 0 2 0 12.45942135452789 17.349136834853237 6.731385454486529 0 0 0
259 0 1 0 12.712578389238194 17.824599164173762 5.922061534958118 0 0 0
299 0 2 0 14.342909123459323 17.429516056514316 5.004734733178639 0 0 0
260 0 2 0 12.601055381322892 18.817138961265307 6.004270692167396 0 0 0
315 0 2 0 15.134655451377899 18.885468363639706 7.499831263485464 0 0 0
314 0 2 0 15.806754883920943 19.269947144292374 6.0845662021179985 0 0 0
313 0 1 0 15.857542014184196 18.669751556930198 6.8767752064376 0 0 0
615 0 2 0 15.850453016474583 16.86866958870462 7.210537872624877 0 0 0
305 0 2 0 18.132988833428882 17.786701742596208 4.423361283914678 0 0 0
297 0 2 0 20.013441393088584 17.704673672782747 5.3413183907181185 0 0 0
295 0 1 0 19.17515177907344 18.012978694431162 5.7204659950883014 0 0 0
296 0 2 0 18.990013648703904 17.38423663723747 6.42646328443057 0 0 0
627 0 2 0 17.245574813682367 19.246270129298424 7.618569795699235 0 0 0
626 0 2 0 18.76019862673908 19.452607851783103 7.983488873602375 0 0 0
625 0 1 0 17.85526221382398 19.636598842607214 8.346841233645716 0 0 0
335 0 2 0 0.9257970352465146 3.1319794181546694 10.304441621036185 0 0 0
346 0 1 0 2.189190051402997 0.8145826555512178 11.961752082911303 0 0 0
347 0 2 0 2.8344045411346372 0.9921002702928801 11.232503680397974 0 0 0
348 0 2 0 1.25081833130016 1.0747423011175918 11.725683609016201 0 0 0
355 0 1 0 0.8359649073101504 2.0026725454260843 8.866114076702791 0 0 0
357 0 2 0 0.037240469865685216 2.5021393247709907 8.64362012689718 0 0 0
334 0 1 0 0.9628973837136419 3.8507851562838047 11.016160344301008 0 0 0
328 0 1 0 4.12159925149535 1.5336286233879572 10.040937476802364 0 0 0
329 0 2 0 4.019047498608005 2.4791674659123983 9.980791607797041 0 0 0
330 0 2 0 4.830659397848891 1.2725290451913818 10.663059768034417 0 0 0
393 0 2 0 7.8847914909863785 0.7024494085642983 9.046914636152216 0 0 0
353 0 2 0 6.939115203840978 0.6598508079751764 11.816375739619753 0 0 0
391 0 1 0 7.681985262140588 1.5660234317744661 8.686965482135427 0 0 0
372 0 2 0 7.794613022301128 2.9027203047801726 9.974027241217625 0 0 0
352 0 1 0 5.980878892016499 0.642252383614207 11.99854872657081 0 0 0
554 0 2 0 4.365430209871741 0.10538792205423711 8.78413166005695 0 1 0
370 0 1 0 7.887667753471231 3.5830314478472713 10.663622391363969 0 0 0
382 0 1 0 8.66723359462995 0.8814740267419084 11.622687006018595 0 0 0
366 0 2 0 10.218158063737212 0.9567094978302342 10.446589216439046 0 0 0
364 0 1 0 11.111632674586762 1.2162853478353035 10.147497960227472 0 0 0
378 0 2 0 10.810959589882794 2.941804311717293 10.350441671300187 0 0 0
376 0 1 0 10.603101256672009 3.8772821811411036 10.557672316749413 0 0 0
371 0 2 0 8.903111242998818 3.7150418081531105 10.688708813032097 0 0 0
365 0 2 0 11.705049274957236 1.1368211931081091 10.956900939227333 0 0 0
383 0 2 0 8.965293805123597 0.15773462236223612 12.212221711207645 0 0 0
384 0 2 0 8.63576223610821 1.7255633233155454 12.133723458318045 0 0 0
395 0 2 0 12.86979648316017 2.2536724318916908 8.568897596690565 0 0 0
427 0 1 0 14.708438127423708 1.6662431158411597 8.97716805180613 0 0 0
428 0 2 0 14.914992001573587 2.2731746925279346 9.707896998501587 0 0 0