LAMMPS (29 Sep 2021 - Update 2)
  using 1 OpenMP thread(s) per MPI task
echo both

include		in.partitions
variable        pid world 0
include		in.temp
variable        temperature equal 230
variable	tempDamp equal 0.1
include		in.pressure
variable        pressure equal 2026.5
variable        pressureDamp equal 1.0 # This is 1 ps
include		in.seed
variable        seed world 745823

units           metal
atom_style	full
include		in.box
read_data       iceIII.data
Reading data file ...
  orthogonal box = (0.0000000 0.0000000 0.0000000) to (19.991053 19.991053 20.800772)
  1 by 1 by 1 MPI processor grid
  reading atoms ...
  972 atoms
Finding 1-2 1-3 1-4 neighbors ...
  special bond factors lj:    0        0        0       
  special bond factors coul:  0        0        0       
     0 = max # of 1-2 neighbors
     0 = max # of 1-3 neighbors
     0 = max # of 1-4 neighbors
     1 = max # of special neighbors
  special bonds CPU = 0.000 seconds
  read_data CPU = 0.026 seconds
include 	in.setup
variable	out_freq equal 500
variable	out_freq2 equal 500

timestep        0.0005

neigh_modify    delay 7 every 1

include         in.deepmd
# This is deepMD model

# create groups ###
#group ox type 2
#group hy type 1

mass 2 15.999
mass 1 1.008

pair_style      deepmd ../graph.pb
pair_coeff      * *

bond_style      none
angle_style     none
dihedral_style  none
improper_style  none
neigh_modify exclude none


neighbor        2.0 bin
neigh_modify    every 10 delay 0 check no

thermo          ${out_freq}
thermo          500
thermo_style 	custom step temp pe etotal epair emol press lx ly lz xy xz yz vol pxx pyy pzz pxy pxz pyz cella cellb cellc cellalpha cellbeta cellgamma

restart 	${out_freq} restart.lmp.${pid} restart2.lmp.${pid}
restart 	500 restart.lmp.${pid} restart2.lmp.${pid}
restart 	500 restart.lmp.0 restart2.lmp.${pid}
restart 	500 restart.lmp.0 restart2.lmp.0


include         in.dump
dump            myDump all atom ${out_freq2} dump.water.${pid}
dump            myDump all atom 500 dump.water.${pid}
dump            myDump all atom 500 dump.water.0
dump            myDump2 all dcd ${out_freq2} dump.dcd
dump            myDump2 all dcd 500 dump.dcd
dump_modify     myDump append yes
dump_modify     myDump2 append yes


timer           timeout 04:55:00 every 1000
New timer settings: style=normal  mode=nosync  timeout=04:55:00

fix             2 all nph aniso ${pressure} ${pressure} ${pressureDamp}
fix             2 all nph aniso 2026.5 ${pressure} ${pressureDamp}
fix             2 all nph aniso 2026.5 2026.5 ${pressureDamp}
fix             2 all nph aniso 2026.5 2026.5 1
fix             3 all temp/csvr ${temperature} ${temperature} ${tempDamp} ${seed}
fix             3 all temp/csvr 230 ${temperature} ${tempDamp} ${seed}
fix             3 all temp/csvr 230 230 ${tempDamp} ${seed}
fix             3 all temp/csvr 230 230 0.1 ${seed}
fix             3 all temp/csvr 230 230 0.1 745823
velocity 	all create ${temperature} ${seed} dist gaussian
velocity 	all create 230 ${seed} dist gaussian
velocity 	all create 230 745823 dist gaussian

run             400000

CITE-CITE-CITE-CITE-CITE-CITE-CITE-CITE-CITE-CITE-CITE-CITE-CITE

Your simulation uses code contributions which should be cited:

- USER-DEEPMD package:

@article{Wang_ComputPhysCommun_2018_v228_p178,
  author = {Wang, Han and Zhang, Linfeng and Han, Jiequn and E, Weinan},
  doi = {10.1016/j.cpc.2018.03.016},
  url = {https://doi.org/10.1016/j.cpc.2018.03.016},
  year = 2018,
  month = {jul},
  publisher = {Elsevier {BV}},
  volume = 228,
  journal = {Comput. Phys. Commun.},
  title = {{DeePMD-kit: A deep learning package for many-body potential energy representation and molecular dynamics}},
  pages = {178--184}
}

CITE-CITE-CITE-CITE-CITE-CITE-CITE-CITE-CITE-CITE-CITE-CITE-CITE

Neighbor list info ...
  update every 10 steps, delay 0 steps, check no
  max neighbors/atom: 2000, page size: 100000
  master list distance cutoff = 8
  ghost atom cutoff = 8
  binsize = 4, bins = 5 5 6
  1 neighbor lists, perpetual/occasional/extra = 1 0 0
  (1) pair deepmd, perpetual
      attributes: full, newton on
      pair build: full/bin
      stencil: full/bin/3d
      bin: standard
Per MPI rank memory allocation (min/avg/max) = 7.648 | 7.648 | 7.648 Mbytes
Step Temp PotEng TotEng E_pair E_mol Press Lx Ly Lz Xy Xz Yz Volume Pxx Pyy Pzz Pxy Pxz Pyz Cella Cellb Cellc CellAlpha CellBeta CellGamma 
       0          230   -175.65013   -146.78246   -175.65013            0    37227.681    19.991053    19.991053    20.800772            0            0            0    8312.8663    41022.312    41425.324    29235.407   -62.555205   -1048.3455   -438.88036    19.991053    19.991053    20.800772           90           90           90 
     500    228.62278   -165.62356   -136.92875   -165.62356            0   -1996.1526    20.152055    20.059481    20.602192            0            0            0    8328.2249   -2056.6707   -1168.8944   -2762.8928   -426.68394   -786.15207   -869.35743    20.152055    20.059481    20.602192           90           90           90 
    1000     240.8821   -165.22934   -134.99584   -165.22934            0    -261.1917    20.260474     20.15043    20.365851            0            0            0    8314.5064   -671.14923    656.24546   -768.67131   -1243.5379   -466.81733   -253.06613    20.260474     20.15043    20.365851           90           90           90 
    1500    225.62158   -164.83855   -136.52042   -164.83855            0    7342.3263    20.255246    20.172629    20.340868            0            0            0    8311.3104    4842.8991    9081.0261    8103.0537    2230.3628   -1420.1501    706.89968    20.255246    20.172629    20.340868           90           90           90 
    2000    221.69472   -162.47789   -134.65263   -162.47789            0   -5006.5948    20.212216     20.14856    20.429133            0            0            0    8319.7041   -6006.4805    -2729.812   -6283.4918    1205.9416   -1078.5897    1185.6356    20.212216     20.14856    20.429133           90           90           90 
    2500    235.08568    -163.1833   -133.67732    -163.1833            0    5309.2281    20.057551    20.204498    20.535276            0            0            0     8321.977    4675.7713    5998.9841    5252.9289    2907.8488    1700.9024    1900.9018    20.057551    20.204498    20.535276           90           90           90 
    3000    233.45462   -163.04684   -133.74558   -163.04684            0     3571.174    20.074774    20.230847    20.716511            0            0            0    8413.5898    7602.7793    278.59352    2832.1491   -1317.6306     305.4204   -320.40953    20.074774    20.230847    20.716511           90           90           90 
    3500      224.385   -162.92189   -134.75897   -162.92189            0   -1961.1664    20.203121    20.002328    20.574349            0            0            0     8314.289   -3858.0138   -699.59173   -1325.8936    461.12703    1331.1942    596.92801    20.203121    20.002328    20.574349           90           90           90 
    4000    233.41279   -164.49801     -135.202   -164.49801            0    1233.7705    20.365873    19.988087    20.504543            0            0            0    8346.8837   -2583.7011    2672.7788    3612.2338    339.15392   -1143.5077   -1077.7138    20.365873    19.988087    20.504543           90           90           90 
    4500    230.35143   -164.31616   -135.40438   -164.31616            0    1442.3995    20.211391    20.144143    20.491781            0            0            0    8343.0474    2501.5506    109.18146    1716.4664    771.64978   -2850.9118    4186.6112    20.211391    20.144143    20.491781           90           90           90 
    5000    225.97319    -163.1749   -134.81264    -163.1749            0    3182.0023    20.058585    20.239417    20.578462            0            0            0    8354.3218    6643.0317    1643.0559    1259.9195    1734.0817    827.18375    1930.4085    20.058585    20.239417    20.578462           90           90           90 
    5500    217.95484   -163.67605   -136.32019   -163.67605            0    2601.5143    20.056258    20.162961     20.61111            0            0            0         8335    2859.5111    2451.5307    2493.5012   -1229.3296   -1022.9936    618.94276    20.056258    20.162961     20.61111           90           90           90 
    6000    233.97328    -164.1872   -134.82084    -164.1872            0     1944.078    20.202497    20.186466    20.635636            0            0            0    8415.5636    979.81114     3326.295     1526.128   -1538.3531   -478.61916   -732.21153    20.202497    20.186466    20.635636           90           90           90 
    6500    235.15773   -165.17346   -135.65844   -165.17346            0     1688.236    20.134043    20.094883    20.454837            0            0            0    8275.8474    119.66066    2516.9729    2428.0745   -31.025513    3782.6261    3830.8071    20.134043    20.094883    20.454837           90           90           90 
    7000    231.58505   -162.76096   -133.69435   -162.76096            0    2135.4941    20.229971    20.169277     20.42063            0            0            0    8332.1051    1590.2098    4006.6582    809.61423   -646.41433     1200.909   -245.89764    20.229971    20.169277     20.42063           90           90           90 
    7500    225.68143   -161.75266   -133.42702   -161.75266            0   -998.97274    20.305249    20.236517    20.412933            0            0            0    8387.8277   -1005.7215   -1987.2996    -3.897119   -1177.9313    1329.1524    1335.7661    20.305249    20.236517    20.412933           90           90           90 
    8000    220.45393   -163.01274   -135.34321   -163.01274            0    2250.7259    20.186731    20.135183    20.586031            0            0            0    8367.4707    1842.2818    1182.1832    3727.7128    910.31615   -1857.9946    1359.1807    20.186731    20.135183    20.586031           90           90           90 
    8500    227.69931   -164.39742   -135.81852   -164.39742            0    3273.7428    19.923888    20.010527    20.803935            0            0            0    8294.2691    4291.9753    4329.8482     1199.405   -1484.6206   -1294.9899    2556.6394    19.923888    20.010527    20.803935           90           90           90 
    9000    233.36106   -163.04862    -133.7591   -163.04862            0    1312.3714    20.079884    20.108005    20.922016            0            0            0    8447.6074    2540.5555    256.84993    1139.7087    470.97049    2393.5336   -998.56888    20.079884    20.108005    20.922016           90           90           90 
    9500    233.03042   -162.96946   -133.72144   -162.96946            0    2127.5175    20.377108    20.184577    20.737233            0            0            0    8529.2928    2322.4171    374.28899    3685.8464   -1904.8088   -663.14742    791.59058    20.377108    20.184577    20.737233           90           90           90 
   10000    232.13013   -161.98345   -132.84842   -161.98345            0    2432.4683    20.181397    20.049573    20.296631            0            0            0    8212.5932    62.013811    2584.5132     4650.878    1516.8653     -1583.05    592.81628    20.181397    20.049573    20.296631           90           90           90 
   10500    236.35011    -161.5543   -131.88962    -161.5543            0    4156.3668    20.188978    20.284191    20.368599            0            0            0    8341.2893    4228.9497    4273.8742    3966.2765     924.3909   -497.06788    1647.6702    20.188978    20.284191    20.368599           90           90           90 
   11000     233.5591   -163.12258    -133.8082   -163.12258            0    3230.7365    20.200066     20.34419    20.607899            0            0            0    8468.8985    3874.9219    2279.9682    3537.3193    811.00528    2696.4118    931.72736    20.200066     20.34419    20.607899           90           90           90 
   11500     215.2334   -161.73151   -134.71722   -161.73151            0   -132.89159    20.043017    20.075873    20.633483            0            0            0    8302.5226   -1933.9658    2718.4411   -1183.1501   -2429.9289    1614.7003   -569.74948    20.043017    20.075873    20.633483           90           90           90 
   12000    241.67564   -163.95398   -133.62088   -163.95398            0    2120.4942    20.101165    20.040548    20.632836            0            0            0    8311.6981    2215.2047    81.324578    4064.9535     1506.624    1765.0126   -261.37685    20.101165    20.040548    20.632836           90           90           90 
   12500    225.60033   -161.66546      -133.35   -161.66546            0    1011.7694    20.364274    20.208919    20.677345            0            0            0     8509.554   -283.12104     3330.295   -11.865772   -592.80309   -1032.0327   -2038.0229    20.364274    20.208919    20.677345           90           90           90 
   13000    232.51991   -161.67358   -132.48963   -161.67358            0    487.93345    20.169765    20.079103    20.490073            0            0            0    8298.2909   -2073.7645    707.99088    2829.5739    463.50597   -10.485405   -318.72323    20.169765    20.079103    20.490073           90           90           90 
   13500    230.54191   -163.99642   -135.06074   -163.99642            0    4205.6781    20.115152    20.111178    20.453355            0            0            0    8274.1878    7484.8349     772.3591    4359.8403    821.99508   -2864.4418   -277.55447    20.115152    20.111178    20.453355           90           90           90 
   14000    220.34438   -163.50905   -135.85327   -163.50905            0     190.2096    20.282799    20.245455    20.629513            0            0            0    8471.1895   -1874.2363    2188.4153    256.44975   -127.86537   -676.40356    916.21211    20.282799    20.245455    20.629513           90           90           90 
   14500    223.24766   -164.47879   -136.45862   -164.47879            0    1949.2598    20.211458    20.052062    20.604747            0            0            0    8350.7209    3144.7111    1990.7941    712.27423   -134.16553   -559.43019    391.18103    20.211458    20.052062    20.604747           90           90           90 
   15000    230.92212   -163.04895   -134.06554   -163.04895            0    2712.4746    20.110106    20.058296    20.536896            0            0            0    8284.0592    2167.7798    4146.9359    1822.7081   -1273.9812    1818.2336    1041.4131    20.110106    20.058296    20.536896           90           90           90 
   15500    238.52659   -164.15894   -134.22108   -164.15894            0    349.49494    20.141264    20.281019    20.550199            0            0            0    8394.4555    1425.3066   -807.38878    430.56697      1690.64     2009.683   -2940.8555    20.141264    20.281019    20.550199           90           90           90 
   16000     230.3701   -162.88746   -133.97334   -162.88746            0   -139.21417    20.191201    20.184632    20.425131            0            0            0     8324.302    2133.9558   -2999.9463    448.34803   -390.96791    63.014054   -923.50753    20.191201    20.184632    20.425131           90           90           90 
   16500    233.95652   -163.63172   -134.26746   -163.63172            0    4355.0137    20.321153    20.036259    20.454593            0            0            0    8328.2895    1636.3033    7252.5066    4176.2313   -204.98552   -3257.7251   -2025.7277    20.321153    20.036259    20.454593           90           90           90 
   17000    239.83542    -164.3275   -134.22537    -164.3275            0    2175.0739    20.208811    20.041223    20.585868            0            0            0    8337.4676    1937.6273    2849.9049    1737.6894   -487.59733   -2946.2331   -895.24814    20.208811    20.041223    20.585868           90           90           90 
   17500    229.55915   -162.92158   -134.10924   -162.92158            0   -554.29866     19.98045    20.284802    20.741466            0            0            0    8406.5054     2505.122   -2232.2273   -1935.7907   -90.428192    3249.4338    717.97223     19.98045    20.284802    20.741466           90           90           90 
   18000    225.68898   -164.08465   -135.75807   -164.08465            0    2990.9475    19.985697    20.337339    20.678879            0            0            0    8405.0524    2884.9853    4790.6644    1297.1929   -661.74718    149.01146   -332.34277    19.985697    20.337339    20.678879           90           90           90 
   18500       231.53   -164.41012   -135.35042   -164.41012            0     4287.739    20.266153     20.02267    20.326538            0            0            0    8248.1534    2845.2996    4662.3205     5355.597    727.50838    1441.7858    176.72387    20.266153     20.02267    20.326538           90           90           90 
   19000    226.20086   -163.46157   -135.07073   -163.46157            0   -534.85584    20.476409    20.071312    20.356779            0            0            0    8366.3997   -6.0121827   -306.27438   -1292.2809    -905.6515    1613.8847   -1076.7332    20.476409    20.071312    20.356779           90           90           90 
   19500    230.31227   -163.86245   -134.95558   -163.86245            0    3729.5894    20.188208    20.184969    20.545327            0            0            0     8372.187    1620.0098    3256.5364     6312.222    726.00751    689.60187    170.98442    20.188208    20.184969    20.545327           90           90           90 
   20000    227.13768   -164.23697   -135.72856   -164.23697            0    3052.1127    19.957177    20.245438     20.71403            0            0            0    8369.3337     3518.553    2638.8237    2998.9615    842.07768   -1914.9809   -1146.9668    19.957177    20.245438     20.71403           90           90           90 
   20500    229.83593   -164.70276   -135.85569   -164.70276            0    1015.0726     20.06334    20.133918      20.6221            0            0            0    8330.3725    892.62584    2705.4989   -552.90696   -487.15511     3009.123    -1613.688     20.06334    20.133918      20.6221           90           90           90 
   21000    226.70931   -163.86104   -135.40639   -163.86104            0    1988.2299      20.3557    20.166149    20.425223            0            0            0    8384.4741   -945.13067    3476.4071    3433.4133   -373.32967    -136.5618   -1666.3584      20.3557    20.166149    20.425223           90           90           90 
   21500    221.37583    -164.7329   -136.94767    -164.7329            0    138.70306    20.309834    20.117205    20.352617            0            0            0    8315.6131    127.11789    576.70061   -287.70933    1254.5988    -169.2903   -509.27112    20.309834    20.117205    20.352617           90           90           90 
   22000    235.54955   -164.55328   -134.98908   -164.55328            0    323.31129     20.05931    20.202471    20.516943            0            0            0     8314.442   -34.319954   -322.85957    1327.1134   -358.66184    1834.0195    362.44566     20.05931    20.202471    20.516943           90           90           90 
   22500    226.37424   -163.10476   -134.69216   -163.10476            0    5467.9238     20.09681    20.179084    20.606977            0            0            0    8356.8548     5980.169    8239.2454    2184.3569    1527.0781   -920.70498   -425.48394     20.09681    20.179084    20.606977           90           90           90 
   23000    228.20523   -164.68372   -136.04131   -164.68372            0    1841.3998    20.256577    20.045315    20.550079            0            0            0    8344.3485   -142.09619    2398.4537     3267.842    -74.34113    3080.1179   -1961.7662    20.256577    20.045315    20.550079           90           90           90 
   23500    225.51205   -162.65448    -134.3501   -162.65448            0    2798.8349    20.343167    20.099691    20.625927            0            0            0    8433.7639    2510.7175    3337.1558    2548.6314    793.79559    1834.1949    -2570.464    20.343167    20.099691    20.625927           90           90           90 
   24000    240.73926   -163.18464   -132.96907   -163.18464            0    4033.9984    20.099768    20.083822    20.597742            0            0            0       8314.9    3260.2416    4449.5735    4392.1802   -273.55604    1267.0559    65.305648    20.099768    20.083822    20.597742           90           90           90 
   24500    231.75993   -163.00733   -133.91877   -163.00733            0    302.33211    19.995285    20.282019    20.538568            0            0            0    8329.3085    3774.3495   -428.01554   -2439.3377   -584.10688   -121.99338   -3490.9039    19.995285    20.282019    20.538568           90           90           90 
   25000    230.39293   -162.37673   -133.45975   -162.37673            0    1702.8188    20.209723    20.253427    20.444539            0            0            0    8368.2795   -2359.5865     3987.358    3480.6848    73.748181    -822.8319     1741.785    20.209723    20.253427    20.444539           90           90           90 
   25500    227.98417   -162.01291   -133.39825   -162.01291            0    92.169912    20.450809    19.999645    20.413324            0            0            0    8349.2318   -2982.2387    3396.4451   -137.69666   -828.87588    2996.7824   -103.63207    20.450809    19.999645    20.413324           90           90           90 
   26000    231.82839   -162.25821   -133.16106   -162.25821            0    643.90654    20.288879    20.076601    20.554874            0            0            0    8372.6522   -476.73814    1367.5056    1040.9522   -728.01971    2304.4181   -2944.0737    20.288879    20.076601    20.554874           90           90           90 
   26500     228.7524   -163.96591   -135.25483   -163.96591            0    2664.4943    19.997947    20.258787    20.709803            0            0            0    8390.2484   -564.49796    5567.3576    2990.6232    1816.3903    668.18664   -2242.8532    19.997947    20.258787    20.709803           90           90           90 
   27000    240.74214   -163.28277   -133.06684   -163.28277            0    2444.8973    20.076009    20.213316    20.642007            0            0            0    8376.5823    3091.6748    1943.5062    2299.5108    313.21197    439.95442   -626.11801    20.076009    20.213316    20.642007           90           90           90 
   27500    233.63693   -163.50556   -134.18142   -163.50556            0    2705.4684    20.282066     20.09621    20.468713            0            0            0    8342.8974    4611.0572    2266.6906    1238.6575    2855.2295    31.261565   -1203.3598    20.282066     20.09621    20.468713           90           90           90 
   28000    235.11512   -164.75085   -135.24117   -164.75085            0    849.25105    20.244964    20.117799    20.419054            0            0            0    8316.3566    1798.9642   -1772.8896    2521.6786    906.62944   -1166.8206   -1460.4016    20.244964    20.117799    20.419054           90           90           90 
   28500    232.41913   -163.05056   -133.87926   -163.05056            0    8.5309581    20.221383    20.212456    20.556561            0            0            0    8401.9559    3526.2496   -282.45584   -3218.2009   -555.62954    1488.0681    1704.8277    20.221383    20.212456    20.556561           90           90           90 
   29000    229.26707   -162.72747   -133.95179   -162.72747            0    3156.3334    20.136081    20.035558    20.500995            0            0            0    8270.8724     3962.802    2635.7769    2870.4214    816.01733     -707.911   -1410.6712    20.136081    20.035558    20.500995           90           90           90 
   29500    232.11611   -162.15322   -133.01995   -162.15322            0   -518.62832    20.304964    20.171844    20.603893            0            0            0    8439.1188    1031.7601   -3961.4678    1373.8228   -1687.3928    1895.0707    1123.7119    20.304964    20.171844    20.603893           90           90           90 
   30000    236.33685   -161.18846   -131.52545   -161.18846            0    1099.8757      20.1874      20.1677    20.580721            0            0            0    8379.0992    1602.5217    2247.8475   -550.74206   -1533.4618    2750.5296    1126.3423      20.1874      20.1677    20.580721           90           90           90 
   30500    226.47748   -161.37607   -132.95052   -161.37607            0    2433.1986    20.047102     20.18157    20.576604            0            0            0    8324.9234    3340.8349    2042.1541    1916.6067    477.85752   -585.65237    1008.4402    20.047102     20.18157    20.576604           90           90           90 
   31000    234.90281   -162.32164   -132.83861   -162.32164            0    693.07708    20.120484    20.206631    20.560489            0            0            0    8359.2205   -27.385994    657.00482    1449.6124   -817.66547    2256.8245   -3344.3942    20.120484    20.206631    20.560489           90           90           90 
   31500    230.46871   -162.65662   -133.73012   -162.65662            0    1986.3726    20.267992    20.117245    20.525903            0            0            0    8369.1526    167.56529    3444.0836    2347.4689    599.56588    1713.2383   -184.77554    20.267992    20.117245    20.525903           90           90           90 
   32000    231.87988   -163.67853   -134.57492   -163.67853            0    1558.1003    20.340563    20.066894    20.480916            0            0            0    8359.7347    340.76868    654.32764    3679.2046    1163.4741    1836.8219    3669.3712    20.340563    20.066894    20.480916           90           90           90 
   32500    238.17343   -163.62883    -133.7353   -163.62883            0    2302.9651    20.170272    20.160015    20.466688            0            0            0    8322.4305    5897.5953    975.13551    36.164591   -47.620802    1578.3481    2387.7863    20.170272    20.160015    20.466688           90           90           90 
   33000    228.71247   -162.65369   -133.94762   -162.65369            0    1862.4467    19.931529    20.268302    20.620256            0            0            0    8330.1345    1775.8748    2640.3102     1171.155    1059.3786   -877.58672   -519.76459    19.931529    20.268302    20.620256           90           90           90 
   33500    221.68366   -162.47351   -134.64964   -162.47351            0    645.11433    20.115538    20.173229    20.758087            0            0            0    8423.5353    3557.2174   -1339.4647   -282.40974     30.91839    785.66081    811.09316    20.115538    20.173229    20.758087           90           90           90 
   34000    226.62547   -164.77265   -136.32853   -164.77265            0     1773.953    20.321961    19.947567     20.57913            0            0            0    8342.2376    2792.7891   -507.36845    3036.4384    662.90145    73.670759   -2.0808039    20.321961    19.947567     20.57913           90           90           90 
   34500    224.46573   -164.75687   -136.58382   -164.75687            0    869.43844    20.188396    20.090783    20.349675            0            0            0    8253.8419    1617.2005    -287.9133    1279.0281   -1032.2819     1024.155    793.46699    20.188396    20.090783    20.349675           90           90           90 
   35000    213.44469   -164.43462   -137.64483   -164.43462            0   -563.45464    20.142546    20.377487    20.386644            0            0            0    8367.7889   -870.37188   -1236.5096    416.51755     1921.936    -1131.835    2552.7552    20.142546    20.377487    20.386644           90           90           90 
   35500    223.69919   -163.91239   -135.83555   -163.91239            0    4067.9813    20.154225    20.169687     20.48212            0            0            0     8326.072    4527.7518    2569.9617    5106.2303   -109.56563    195.69066   -1137.7488    20.154225    20.169687     20.48212           90           90           90 
   36000    233.10072   -163.91722   -134.66038   -163.91722            0    2169.6775    20.212944    19.970087    20.638585            0            0            0    8330.8523    1640.2305    1920.7877    2948.0143    320.34916    429.01643    59.211383    20.212944    19.970087    20.638585           90           90           90 
   36500    229.17647   -163.63174   -134.86743   -163.63174            0    1306.8197    20.186109    20.148266    20.694511            0            0            0    8416.7701    4107.1361    -1778.814    1592.1369   -270.65073    616.58561   -576.71932    20.186109    20.148266    20.694511           90           90           90 
   37000    237.57018   -164.26326   -134.44545   -164.26326            0    645.45289    20.076025    20.228845    20.548512            0            0            0    8345.0548    2967.5296   -2555.5595    1524.3885   -102.03404    1116.0144    226.28673    20.076025    20.228845    20.548512           90           90           90 
   37500    228.07904   -163.97842   -135.35186   -163.97842            0    1053.6755    20.199917    20.146983    20.427286            0            0            0    8313.2391   -952.57732    1061.4475    3052.1563   -264.86659    214.14051   -524.19219    20.199917    20.146983    20.427286           90           90           90 
   38000    232.57887   -162.78187   -133.59053   -162.78187            0    1050.0542    20.276683    20.151215    20.431814            0            0            0    8348.4353    1306.4723   -1181.6813    3025.3715    480.61988    -934.4088    2039.7866    20.276683    20.151215    20.431814           90           90           90 
   38500    239.53326   -164.38166   -134.31746   -164.38166            0   -1038.9462    20.152869    20.214443    20.623144            0            0            0    8401.4363   -4875.8865    4699.3409   -2940.2929   -46.779825    852.72214   -2873.8217    20.152869    20.214443    20.623144           90           90           90 
   39000    220.37735    -162.9808   -135.32089    -162.9808            0    1279.5641     20.06187    20.102592    20.635003            0            0            0    8322.0058    742.34632    489.18098    2607.1649    371.87738   -1542.7657    98.900615     20.06187    20.102592    20.635003           90           90           90 
   39500    237.20366   -164.37331    -134.6015   -164.37331            0   -2047.8778    20.250607     20.04444    20.556764            0            0            0    8344.2387   -838.62611   -2937.5347   -2367.4725     420.2989   -726.66399    170.80883    20.250607     20.04444    20.556764           90           90           90 
   40000    226.74502    -163.2163   -134.75717    -163.2163            0    1212.1685    20.378515    20.149167    20.474732            0            0            0    8407.1317     193.7304    788.32532    2654.4496   -103.81671     1175.653   -2369.3474    20.378515    20.149167    20.474732           90           90           90 
   40500    224.93228   -163.78476   -135.55315   -163.78476            0    2034.5323    20.046115    20.191174    20.381647            0            0            0    8249.5654    2864.7947   -1512.1479      4750.95    987.49141    -3221.448    1948.1853    20.046115    20.191174    20.381647           90           90           90 
   41000    222.06574   -163.21023   -135.33841   -163.21023            0    94.698135    20.030161    20.343656    20.588686            0            0            0    8389.6161     2055.628   -1021.8369   -749.69673    179.96831   -2381.0857     2048.791    20.030161    20.343656    20.588686           90           90           90 
   41500    227.34307    -162.6564   -134.12221    -162.6564            0    1966.9152    20.115389    20.141721    20.581021            0            0            0    8338.5771    2823.1079   -281.57129    3359.2091   -458.55137    1236.5291   -43.426424    20.115389    20.141721    20.581021           90           90           90 
   42000    227.53527   -162.97775   -134.41943   -162.97775            0   -42.701001    20.254181    20.067947    20.590206            0            0            0    8369.0914     321.2145    189.43309   -638.75059    466.10258    -2455.799    1175.5083    20.254181    20.067947    20.590206           90           90           90 
   42500    235.93172   -163.21235   -133.60018   -163.21235            0     1386.895    20.227133    20.159252    20.626115            0            0            0     8410.584    1724.4208   -501.33262    2937.5967   -669.05569    3275.3851   -367.26982    20.227133    20.159252    20.626115           90           90           90 
   43000    228.06705      -162.11   -133.48494      -162.11            0    5923.0034     20.14439    20.147661    20.575824            0            0            0     8350.952    7151.8465    4561.1574    6056.0062    689.47315    1253.4517    219.19342     20.14439    20.147661    20.575824           90           90           90 
   43500    227.54877   -162.91125   -134.35124   -162.91125            0    834.44673    20.217543    20.133259    20.612742            0            0            0    8390.3139   -1113.7575    1647.3043    1969.7934    629.95769    1292.9079    2833.6487    20.217543    20.133259    20.612742           90           90           90 
   44000    235.64956    -164.3762   -134.79944    -164.3762            0     2631.365     20.22408    20.004661    20.506724            0            0            0    8296.5257    1350.5462    3074.5943    3468.9544   -495.45198    1101.2642    1774.7069     20.22408    20.004661    20.506724           90           90           90 
   44500    228.80821   -163.43467   -134.71659   -163.43467            0    1237.5582       20.254    20.134259    20.468394            0            0            0    8346.9963    3344.9629   -319.89323    687.60497   -526.84245   -2.6316249    1705.4447       20.254    20.134259    20.468394           90           90           90 
   45000     218.8943   -163.91723   -136.44346   -163.91723            0    2214.3453    20.089578    20.337107     20.49515            0            0            0    8373.5785     3926.916   -1220.6795    3936.7994   -269.91358   -435.52537    2072.2097    20.089578    20.337107     20.49515           90           90           90 
   45500    223.61852   -163.78363   -135.71691   -163.78363            0    711.75326    19.972103    20.279938    20.520991            0            0            0    8311.6791    3378.2715    -1678.973    435.96133   -586.97061   -456.14519    1234.2753    19.972103    20.279938    20.520991           90           90           90 
   46000    223.50059   -163.37702   -135.32511   -163.37702            0    -349.6744    20.239878    20.004425    20.663854            0            0            0    8366.5285    773.51004    943.75196   -2766.2852   -830.32269   -1460.3293   -500.94079    20.239878    20.004425    20.663854           90           90           90 
   46500    232.22696    -163.9693   -134.82212    -163.9693            0    3565.7874    20.349955    19.948596    20.637596            0            0            0    8377.8945    3515.5087    3387.0733    3794.7803   -179.49117     3643.125    265.90231    20.349955    19.948596    20.637596           90           90           90 
   47000    233.80454   -163.60451   -134.25933   -163.60451            0    2061.4418    20.172437    20.306515    20.553992            0            0            0    8419.5707    2844.9423     488.9936    2850.3894   -203.05495   -1628.7868   -4405.9713    20.172437    20.306515    20.553992           90           90           90 
   47500     241.1154    -163.5663   -133.30352    -163.5663            0   -498.26875    19.989371    20.300543    20.427574            0            0            0    8289.4092    860.57153   -1716.9147   -638.46306    770.96016    761.47388   -852.08739    19.989371    20.300543    20.427574           90           90           90 
   48000    232.70906   -163.03003   -133.82234   -163.03003            0    2374.6872    20.176828    20.160917    20.547044            0            0            0    8358.1956    3416.6015    640.33438    3067.1258   -1356.0104    690.61954   -1807.7526    20.176828    20.160917    20.547044           90           90           90 
   48500    229.54941   -163.26464   -134.45353   -163.26464            0     1025.643    20.304107    20.092364    20.659681            0            0            0     8428.272   -1265.8493    5659.6962    -1316.918   -489.41066    261.20368   -2554.3825    20.304107    20.092364    20.659681           90           90           90 
   49000    242.53336   -162.89001   -132.44926   -162.89001            0     1007.857    20.139813    20.153317    20.570529            0            0            0    8349.2493    1855.2775   -391.29112    1559.5845    320.90524    809.85388    1332.8452    20.139813    20.153317    20.570529           90           90           90 
   49500    247.59179   -161.28369   -130.20804   -161.28369            0    1271.1164    20.031327    20.324384    20.566548            0            0            0    8373.1431    2272.7222   -763.28667    2303.9136    410.40483   -91.675145    476.00915    20.031327    20.324384    20.566548           90           90           90 
   50000    236.03535   -162.25611   -132.63094   -162.25611            0     1529.489      20.2172    20.222834    20.600399            0            0            0     8422.454    7672.7154   -4681.1765     1596.928    798.45734    769.24683   -1002.2368      20.2172    20.222834    20.600399           90           90           90 
   50500    235.41466   -163.84683   -134.29956   -163.84683            0    4459.6876    20.354356    19.959545     20.50134            0            0            0    8328.9502    2440.7008    6267.2884    4671.0737   -205.55532   -1595.1293     1670.995    20.354356    19.959545     20.50134           90           90           90 
   51000    232.55621   -162.72444   -133.53594   -162.72444            0     4111.677    20.223973    20.044388    20.381364            0            0            0    8262.1394    3226.5413    4577.6722    4530.8174   -1048.3006     3368.406   -150.83229    20.223973    20.044388    20.381364           90           90           90 
   51500     232.7683   -163.70322    -134.4881   -163.70322            0     1712.902    20.157234    20.519167    20.553369            0            0            0    8501.0716    4155.9918    1052.6608    -69.94669    595.64962   -721.08611    2133.3447    20.157234    20.519167    20.553369           90           90           90 
   52000    235.49639   -165.66672   -136.10919   -165.66672            0    1369.6374    20.025196    20.287239    20.415536            0            0            0    8293.9325    2125.2305    1169.5682    814.11364    598.75793    19.461349   -2032.8496    20.025196    20.287239    20.415536           90           90           90 
   52500    236.60971   -163.60697   -133.90971   -163.60697            0    5512.4744    20.235477    20.087426    20.441264            0            0            0    8308.9373    6058.5047    5514.6766    4964.2419   -576.92725   -2596.0909   -938.93425    20.235477    20.087426    20.441264           90           90           90 
   53000    230.68501   -163.94196   -134.98832   -163.94196            0    2162.1552    20.412798    20.103475     20.55372            0            0            0    8434.5927    699.87608    3893.4169    1893.1725    2395.5341    1082.6045    580.71041    20.412798    20.103475     20.55372           90           90           90 
   53500    232.31521   -163.44784   -134.28959   -163.44784            0    4039.3201      20.2129    20.090631    20.565175            0            0            0    8351.3102    4461.6731    6709.7375    946.54968     1361.262     367.1642   -1800.4926      20.2129    20.090631    20.565175           90           90           90 
   54000    236.06812   -163.42152   -133.79223   -163.42152            0    1896.7344    20.064718    20.205296    20.564352            0            0            0    8337.0674    2878.1398   -556.11354    3368.1768   -162.50496    5031.9237    194.01201    20.064718    20.205296    20.564352           90           90           90 
   54500     227.9712   -165.10684   -136.49381   -165.10684            0   -105.93275    20.149982    20.298658    20.494052            0            0            0    8382.4281    2830.5333   -2770.7951   -377.53641   -461.09383   -506.11943   -2991.0167    20.149982    20.298658    20.494052           90           90           90 
   55000    227.28337   -163.17246   -134.64576   -163.17246            0    3936.8421    20.224729    20.214916    20.347735            0            0            0    8318.9919    3504.4256    4354.9716    3951.1292   -591.30089    258.04345   -2760.0063    20.224729    20.214916    20.347735           90           90           90 
   55500    224.87851   -164.29728   -136.07242   -164.29728            0    1939.9858    20.320215    20.139828    20.410175            0            0            0    8352.7748    6.5401354    2268.1856    3545.2315    821.03884   -332.73638   -426.26164    20.320215    20.139828    20.410175           90           90           90 
   56000    235.97909   -162.89491    -133.2768   -162.89491            0    3622.0093     20.23075    20.097509    20.552774            0            0            0    8356.5049    2661.0935    4838.4953     3366.439    1842.8648    1414.7604    39.311632     20.23075    20.097509    20.552774           90           90           90 
   56500    233.25279   -163.19724   -133.92131   -163.19724            0    2759.1207    20.076347    20.194556    20.623626            0            0            0    8361.4966    1265.7441    5492.6543    1518.9637    819.88314   -1484.9304   -517.49216    20.076347    20.194556    20.623626           90           90           90 
   57000    232.81334   -163.33598    -134.1152   -163.33598            0    5780.4034    20.011741    20.337013    20.537474            0            0            0    8358.3215    7113.6526    5330.7478    4896.8096    132.22528    1493.3822   -1574.4159    20.011741    20.337013    20.537474           90           90           90 
   57500    227.89952   -163.18505   -134.58102   -163.18505            0    1622.5661     20.22718    20.215707    20.355968            0            0            0    8323.6928    -175.7976    3819.5375    1223.9584   -1898.5133    736.62693   -1454.6067     20.22718    20.215707    20.355968           90           90           90 
   58000    226.39638   -163.46267   -135.04729   -163.46267            0    2835.0092    20.326594    20.106953    20.375681            0            0            0    8327.6608    715.27162    4049.1662    3740.5898    2319.5756    972.12248   -1549.5679    20.326594    20.106953    20.375681           90           90           90 
   58500    236.63583   -164.15965   -134.45911   -164.15965            0    977.24868    20.267397      20.1408    20.573524            0            0            0    8398.1451    1984.2954     662.6824    284.76825    774.87834   -532.20998   -1233.2361    20.267397      20.1408    20.573524           90           90           90 
   59000    242.39233   -163.49494   -133.07189   -163.49494            0    2403.0837    20.048598    20.146499    20.699764            0            0            0     8360.822     2061.795    2151.5231    2995.9331   -1453.0406   -1098.5216   -617.65872    20.048598    20.146499    20.699764           90           90           90 
   59500     236.5784   -162.91443    -133.2211   -162.91443            0    3301.5642    20.097265    20.211913    20.700067            0            0            0    8408.4534     2477.045    7310.2834    117.36411   -123.50808   -1941.0983    1817.8679    20.097265    20.211913    20.700067           90           90           90 
   60000    234.17816   -164.40018    -135.0081   -164.40018            0   -772.31013    20.316535    20.125982      20.4549            0            0            0    8363.8087   -1328.7882     333.0697   -1321.2119   -789.46101   -960.17653    -388.0371    20.316535    20.125982      20.4549           90           90           90 
   60500    228.47976   -163.98617   -135.30931   -163.98617            0    1161.7964    20.402272     20.16958    20.241839            0            0            0    8329.6229    -910.8914    1031.2495    3365.0312    730.60085    1474.0389    1622.6641    20.402272     20.16958    20.241839           90           90           90 
   61000     225.0669   -162.80751     -134.559   -162.80751            0   -1217.0564    20.182014    20.331315    20.340501            0            0            0    8346.2545    948.83862   -1989.2581   -2610.7496   -2023.9158    1175.8881   -976.82682    20.182014    20.331315    20.340501           90           90           90 
   61500    234.68905   -163.62284   -134.16664   -163.62284            0   -1725.1429    19.998751    20.270679    20.699161            0            0            0    8391.1973   -4414.7417   -2172.3781    1411.6911    1236.4912   -1362.4969    2114.2098    19.998751    20.270679    20.699161           90           90           90 
   62000    237.28616   -163.22956   -133.44739   -163.22956            0    2620.8793    20.093054    19.954778    20.888037            0            0            0    8375.1096    535.92778    6702.4524    624.25784    880.25645     3294.271   -2892.5162    20.093054    19.954778    20.888037           90           90           90 
   62500    225.53337   -162.85504   -134.54799   -162.85504            0    517.67061    20.277415    20.046359    20.738433            0            0            0    8429.9313    395.05782    3229.7502   -2071.7961    290.88232   -594.27283   -357.61661    20.277415    20.046359    20.738433           90           90           90 
   63000    236.18683   -161.63383   -131.98964   -161.63383            0     3900.986    20.163769    20.162835    20.421563            0            0            0    8302.5647    3327.8573    3341.5636     5033.537   -743.93774    36.663147     2167.342    20.163769    20.162835    20.421563           90           90           90 
   63500    224.09694   -163.00491   -134.87814   -163.00491            0    2445.4837    20.233848    20.267261    20.470686            0            0            0     8394.715    3618.2725    1418.3151    2299.8634    512.35171    67.005567   -132.85996    20.233848    20.267261    20.470686           90           90           90 
   64000    232.09812   -162.67153   -133.54053   -162.67153            0    3526.3357     20.16164    20.106278    20.530035            0            0            0    8322.3738    3050.7225       3891.8    3636.4845   -1299.9919     1643.178    1345.9671     20.16164    20.106278    20.530035           90           90           90 
   64500    228.05031   -163.16341   -134.54046   -163.16341            0    3182.1132    20.192828    20.040697    20.647796            0            0            0    8355.7157    2461.6037     7817.108   -732.37225   -196.84686   -2020.2777    2041.9787    20.192828    20.040697    20.647796           90           90           90 
   65000    219.43731   -164.08396   -136.54203   -164.08396            0    454.44155    20.198239    20.182012    20.579983            0            0            0    8389.2471    721.85335   -849.87116    1491.3424   -1198.6812     806.8096    3177.3101    20.198239    20.182012    20.579983           90           90           90 
   65500    228.47768   -163.96941   -135.29281   -163.96941            0    5372.4011    19.999814    20.200082    20.387666            0            0            0    8236.5739    4609.3689     7848.863    3658.9714   -1752.3507   -397.77594    538.79893    19.999814    20.200082    20.387666           90           90           90 
   66000    238.21749   -162.47429   -132.57523   -162.47429            0    4151.9842    20.159546    20.358894    20.522605            0            0            0    8423.0114    460.33113    5995.6521    5999.9694     578.3949    374.55132    676.53295    20.159546    20.358894    20.522605           90           90           90 
   66500    231.55342   -162.40484   -133.34219   -162.40484            0    1016.8547    20.226772    20.144216    20.479822            0            0            0    8344.5542   -1721.6784    5497.0176   -724.77505    560.86147   -884.22297   -3396.0961    20.226772    20.144216    20.479822           90           90           90 
   67000    227.27012   -163.57119   -135.04615   -163.57119            0    3993.3848     20.25714     20.03712     20.59087            0            0            0    8357.7259     770.0691    6989.6095    4220.4759   -1676.8145    496.68805    1045.1627     20.25714     20.03712     20.59087           90           90           90 
   67500     230.6089   -163.87567   -134.93157   -163.87567            0     1532.403    20.195463    20.068094    20.693112            0            0            0    8386.5964    2435.1894    2667.7965   -505.77693    835.17135    1824.1451   -2734.0396    20.195463    20.068094    20.693112           90           90           90 
   68000    229.22169   -164.20716   -135.43718   -164.20716            0    1479.6784    20.028441    20.160933    20.472873            0            0            0    8266.7836   -848.05367    4279.2603    1007.8287   -772.52397    1054.1342    680.28114    20.028441    20.160933    20.472873           90           90           90 
   68500    231.21158   -163.09851   -134.07878   -163.09851            0   -750.69919    20.203906    20.428801    20.408096            0            0            0    8423.2694   -1599.7793   -2790.8835    2138.5652     628.9248     1937.842   -305.85184    20.203906    20.428801    20.408096           90           90           90 
   69000    230.13239   -164.40894   -135.52465   -164.40894            0    4129.3017    20.171427    20.215192    20.384478            0            0            0    8312.1636    1389.3929    8164.8936    2833.6185    471.92112    1722.8152    870.25921    20.171427    20.215192    20.384478           90           90           90 
   69500    222.27484    -163.9909   -136.09283    -163.9909            0    4270.5656    20.186102    20.030104    20.600136            0            0            0    8329.2474     2131.533    6206.0606    4474.1031   -466.67636   -414.69162    -475.9164    20.186102    20.030104    20.600136           90           90           90 
   70000    223.59103   -163.23886   -135.17559   -163.23886            0    2204.3304    20.262765    20.033276    20.778194            0            0            0    8434.4832    4542.8561    2263.3559   -193.22083   -199.26146    3061.0974    1002.9189    20.262765    20.033276    20.778194           90           90           90 
   70500    230.86292   -164.26192   -135.28595   -164.26192            0    1452.2217    20.163786    20.103052    20.608958            0            0            0     8353.916    202.23023    2122.7321    2031.7029    1.2788402   -1472.4909   -498.80055    20.163786    20.103052    20.608958           90           90           90 
   71000    229.77736   -164.11713    -135.2774   -164.11713            0    2575.5581    20.142141    20.201189    20.447654            0            0            0    8320.0521    5160.9613    770.37887    1795.3342    719.82147    82.947128    2282.9827    20.142141    20.201189    20.447654           90           90           90 
   71500     229.0833   -163.93188   -135.17927   -163.93188            0    -815.8744    20.211035    20.206493    20.326548            0            0            0    8301.2429    5119.3065   -7760.5992    193.66954   -1351.6727   -1767.1411    1630.7951    20.211035    20.206493    20.326548           90           90           90 
   72000    236.89554   -162.27591   -132.54277   -162.27591            0    3360.1649    20.353284    20.330965    20.528829            0            0            0    8494.8686     2845.839    2855.2884    4379.3674    22.547267   -808.13219   -1409.4317    20.353284    20.330965    20.528829           90           90           90 
   72500    235.91159   -163.51795   -133.90831   -163.51795            0    1693.6429    20.078432    20.106396    20.685766            0            0            0    8350.9454    4779.1696   -814.46805    1116.2271   -467.74807   -1388.5086   -979.17351    20.078432    20.106396    20.685766           90           90           90 
   73000      227.685   -163.89893   -135.32182   -163.89893            0    437.04557    20.011844    20.000427    20.781743            0            0            0    8317.7976    1405.8189    2568.4153   -2663.0975    510.63291   -87.441365    1818.4587    20.011844    20.000427    20.781743           90           90           90 
   73500    233.01739   -163.60482   -134.35844   -163.60482            0    4224.1302    20.253238     20.13263    20.574721            0            0            0    8389.3621    3184.3146    5606.8721    3881.2041    1025.9483   -354.04224     81.19899    20.253238     20.13263    20.574721           90           90           90 
   74000     225.7518   -163.50152   -135.16705   -163.50152            0    2041.4021    20.425486    20.251158    20.251014            0            0            0    8376.6239    224.03623     3526.251     2373.919    -177.1365   -364.38866   -1372.5312    20.425486    20.251158    20.251014           90           90           90 
   74500    226.89811    -163.4421   -134.96376    -163.4421            0    2565.0853    20.273521    20.227009    20.175337            0            0            0    8273.3547    3759.8446    551.55111    3383.8602    577.68777    318.44444   -2265.6186    20.273521    20.227009    20.175337           90           90           90 
   75000    235.91979   -163.25429   -133.64362   -163.25429            0    1730.7582    20.121332    20.255266    20.523335            0            0            0    8364.5508    864.81712    2565.4007    1762.0567    368.01312    2038.4371    397.02708    20.121332    20.255266    20.523335           90           90           90 
   75500    225.64561   -164.01103   -135.68989   -164.01103            0    3126.0496    20.023264    20.228267    20.712199            0            0            0    8389.1845    4200.3479    5797.7995   -619.99867    208.13751    -1021.922    1342.5078    20.023264    20.228267    20.712199           90           90           90 
   76000    233.07811   -163.38706   -134.13305   -163.38706            0    2239.3691    20.104026    20.077288    20.582348            0            0            0     8307.742    1133.3676    3959.2588    1625.4809    334.65484    2421.0869    361.60212    20.104026    20.077288    20.582348           90           90           90 
   76500    221.08792   -165.49696   -137.74786   -165.49696            0   -132.63314    20.237772    20.065413    20.474222            0            0            0    8314.1567    1717.6028   -819.70035   -1295.8019   -478.43694   -2076.0779     1338.732    20.237772    20.065413    20.474222           90           90           90 
   77000    221.31333   -165.24962   -137.47223   -165.24962            0    2362.4912    20.330605    20.137628    20.466821            0            0            0    8379.3243    4323.8997    1276.2736    1487.3003   -32.859502    467.27531    1110.9175    20.330605    20.137628    20.466821           90           90           90 
   77500    230.37511   -163.62976   -134.71502   -163.62976            0    1968.7954    20.182877    20.182952    20.555476            0            0            0    8373.2735    1244.1575    2311.0949     2351.134     1157.382   -560.75211   -484.64863    20.182877    20.182952    20.555476           90           90           90 
   78000    236.87475   -161.73329   -132.00276   -161.73329            0    5839.3434    20.032993    20.168596    20.580751            0            0            0     8315.392    7581.9882    4208.1115    5727.9306    980.02036    1827.9477   -345.53545    20.032993    20.168596    20.580751           90           90           90 
   78500    234.56489   -165.28249   -135.84187   -165.28249            0    1992.1173    20.093793    20.253873    20.547928            0            0            0    8362.5371    650.47642    1797.2503    3528.6252    431.86198    839.20363    348.62407    20.093793    20.253873    20.547928           90           90           90 
   79000    225.10853   -164.15071   -135.89698   -164.15071            0    655.87744    20.223426    20.151379    20.410992            0            0            0    8318.0902    -1264.228    1908.2917    1323.5687   -7.4192657    2412.2115     663.4099    20.223426    20.151379    20.410992           90           90           90 
   79500     225.0254   -162.34737   -134.10407   -162.34737            0    4796.2459    20.382049    20.069808    20.437448            0            0            0    8360.2201    3351.5583    6858.7675     4178.412   -188.78894    2127.9442    392.46398    20.382049    20.069808    20.437448           90           90           90 
   80000    221.68564   -161.27556   -133.45144   -161.27556            0    -780.7922    20.321807    20.028042    20.556067            0            0            0     8366.443   -4016.9066    1280.7216     393.8084    -899.1376    3769.3039    418.49089    20.321807    20.028042    20.556067           90           90           90 
   80500    217.22797   -161.93543    -134.6708   -161.93543            0    4952.8013    20.008523     20.14184    20.702769            0            0            0    8343.3907    7054.5332    3640.9375    4162.9333    603.35846    519.04806    932.07077    20.008523     20.14184    20.702769           90           90           90 
   81000    232.80959   -163.79348   -134.57318   -163.79348            0     438.2591    19.932257    20.327414    20.738289            0            0            0    8402.5582    1787.5314    309.79513    -782.5492    1065.4369   -1905.0779    738.35428    19.932257    20.327414    20.738289           90           90           90 
   81500    219.86651   -162.65716   -135.06136   -162.65716            0    3081.4771    20.142955     20.23862    20.421378            0            0            0    8325.0932    2256.9802    1100.5037    5886.9473   -1309.8503    1433.0193   -55.371271    20.142955     20.23862    20.421378           90           90           90 
   82000    226.87227   -164.12491   -135.64981   -164.12491            0     3426.481    20.392003    20.184011    20.362749            0            0            0    8381.1531    1439.6146    6745.1266    2094.7016   -329.56307   -312.91057     2531.098    20.392003    20.184011    20.362749           90           90           90 
   82500    249.08079   -163.96655   -132.70402   -163.96655            0    2391.4058    20.233604    20.013089      20.4159            0            0            0    8267.1515     3228.528    2470.1449    1475.5445    444.35239   -249.39556    1431.0203    20.233604    20.013089      20.4159           90           90           90 
   83000    234.89578   -163.68083   -134.19869   -163.68083            0   -2217.1278    20.301877    20.137451    20.801456            0            0            0    8504.2187   -388.70995   -3482.0506   -2780.6228   -2371.7089   -1345.3053    1578.8415    20.301877    20.137451    20.801456           90           90           90 
   83500    231.32676   -162.91595   -133.88176   -162.91595            0    2779.7387    20.059924    19.976409    20.742159            0            0            0     8311.907    3453.1198    1737.7524     3148.344    933.88081    356.74611   -873.87608    20.059924    19.976409    20.742159           90           90           90 
   84000    233.53411   -162.21865   -132.90741   -162.21865            0    4733.7131    20.130556    20.112117     20.54957            0            0            0    8319.8654    5248.3432    6188.0761      2764.72   -696.32909   -2427.8017    238.30979    20.130556    20.112117     20.54957           90           90           90 
   84500    226.34698   -162.47862   -134.06945   -162.47862            0   -1650.0757    20.221503     20.33351    20.459325            0            0            0    8412.3453     -3802.08   -765.16229   -382.98482   -434.19425    263.93482   -816.43474    20.221503     20.33351    20.459325           90           90           90 
   85000    230.98716   -164.19142   -135.19985   -164.19142            0     3294.671    20.066376     20.24384     20.41247            0            0            0     8291.964    760.07472    3351.4382    5772.5002    309.76974    1484.9614    1018.5995    20.066376     20.24384     20.41247           90           90           90 
   85500     236.6465   -162.96829   -133.26641   -162.96829            0    3122.6372    20.182004    20.159642    20.541414            0            0            0    8357.5202    4443.3808    3120.3284    1804.2025   -344.92394    1064.6571    612.19982    20.182004    20.159642    20.541414           90           90           90 
   86000    239.10346   -164.38615   -134.37589   -164.38615            0   -546.15408     20.20761    19.971887    20.574232            0            0            0     8303.433    1184.3779   -1078.8144   -1744.0258    325.55012    929.82019   -356.30882     20.20761    19.971887    20.574232           90           90           90 
   86500    227.68206    -164.2826   -135.70586    -164.2826            0   -341.20515    20.217313    20.109983    20.651554            0            0            0    8396.2986    4125.4028   -3592.2539   -1556.7644    477.01181    2784.8996    2689.4933    20.217313    20.109983    20.651554           90           90           90 
   87000    223.66707   -164.19348   -136.12067   -164.19348            0    -297.0046    20.149974    20.206195    20.600164            0            0            0    8387.4453   -1041.8993    99.977559    50.907941   -1767.8823   -1025.0751    576.73974    20.149974    20.206195    20.600164           90           90           90 
   87500    227.93345   -163.75546   -135.14717   -163.75546            0   -317.87379    20.017812    20.186978    20.402261            0            0            0    8244.5362     2972.353   -6168.4664     2242.492     1058.023    -559.1236    1886.8371    20.017812    20.186978    20.402261           90           90           90 
   88000     232.9188    -163.5426   -134.30859    -163.5426            0     2010.492    20.195209    20.324522    20.399464            0            0            0    8373.1227    1840.7278    1725.5882    2465.1599    1349.2035   -2792.9098    2331.6765    20.195209    20.324522    20.399464           90           90           90 
   88500    226.40514   -163.42822   -135.01175   -163.42822            0    2345.6967    20.282848    20.249061    20.506906            0            0            0    8422.3629    1780.9309    3650.5502     1605.609    177.14055    1314.5905    1575.4525    20.282848    20.249061    20.506906           90           90           90 
   89000    229.20089   -165.64872   -136.88135   -165.64872            0    3094.9751    20.151146    19.963739    20.544471            0            0            0    8264.8812    2264.8285    4741.6519    2278.4448   -1995.1252    3885.5668   -686.43594    20.151146    19.963739    20.544471           90           90           90 
   89500    222.09889   -164.84567   -136.96968   -164.84567            0    1494.6347    20.132968    19.934122    20.681782            0            0            0    8300.2822    2014.3113    1730.2392    739.35371    1471.5104   -564.60814    742.21608    20.132968    19.934122    20.681782           90           90           90 
   90000    223.34562   -164.80281   -136.77035   -164.80281            0    2401.4382    20.255613    20.247389    20.690339            0            0            0    8485.5893    4949.4873    -1201.301    3456.1282    78.609493    914.00011    857.38395    20.255613    20.247389    20.690339           90           90           90 
   90500    243.10362   -164.68605   -134.17373   -164.68605            0    3157.2207    20.175214     20.26121    20.312002            0            0            0    8303.0235     5756.054    2164.6915    1550.9166   -221.56873    1134.0298   -1196.9171    20.175214     20.26121    20.312002           90           90           90 
   91000    227.42515   -163.51649     -134.972   -163.51649            0    1189.9016    20.197203    20.288324    20.256963            0            0            0     8300.643    1000.6208   -492.24995     3061.334    362.29305    1684.3093   -2271.0549    20.197203    20.288324    20.256963           90           90           90 
   91500    219.75736   -164.99568   -137.41358   -164.99568            0   -1035.0368    20.201971    20.285081    20.545973            0            0            0    8419.7113   -1057.6757   -1903.6643    -143.7702    129.74663    406.77878    134.46222    20.201971    20.285081    20.545973           90           90           90 
   92000    224.86302   -163.79844   -135.57552   -163.79844            0    1486.2328    20.118475    19.977597    20.738069            0            0            0    8335.0194    3240.8212    2192.1637   -974.28669   -1654.4997    240.27211    724.71221    20.118475    19.977597    20.738069           90           90           90 
   92500    225.59129   -163.72624   -135.41192   -163.72624            0    408.68651    20.170544    20.026634    20.739108            0            0            0    8377.5232    1028.5572   -342.03379     539.5361    360.76248   -314.46281   -889.85278    20.170544    20.026634    20.739108           90           90           90 
   93000    224.96018   -162.89898   -134.66387   -162.89898            0    5667.1145    20.237942    20.178771    20.428111            0            0            0    8342.3667    2525.3695    6618.8309     7857.143   -337.72852   -334.35842   -1479.4762    20.237942    20.178771    20.428111           90           90           90 
   93500    232.40945   -164.82721   -135.65713   -164.82721            0   -1115.1147     20.29538    20.315978    20.255051            0            0            0    8351.5727   -2472.3187    657.85884   -1530.8843    828.50422    2241.2126    1961.3763     20.29538    20.315978    20.255051           90           90           90 
   94000    223.65213   -163.64361   -135.57267   -163.64361            0    3674.2441    20.132999    20.272591    20.228951            0            0            0    8256.4072    1565.9765    3688.4054    5768.3503    1751.6336     1285.622    376.41553    20.132999    20.272591    20.228951           90           90           90 
   94500    232.46473   -164.80691   -135.62989   -164.80691            0    2436.6465    20.135254    20.277832     20.71592            0            0            0    8458.2953    4998.3594    882.28786    1429.2921   -1724.1885   -2558.9169    562.57768    20.135254    20.277832     20.71592           90           90           90 
   95000    222.65025   -164.43416   -136.48897   -164.43416            0    1653.3762    20.061202    19.952624    20.879659            0            0            0    8357.5764    2370.7706    3112.3359   -522.97808     484.5745    495.92518    1220.2262    20.061202    19.952624    20.879659           90           90           90 
   95500    224.54735   -162.78008   -134.59679   -162.78008            0    2758.0303    20.179389    19.955886    20.622709            0            0            0    8304.7149    4738.9079     3227.851      307.332    622.92086    570.98316    299.05895    20.179389    19.955886    20.622709           90           90           90 
   96000     243.1765   -164.27196   -133.75049   -164.27196            0    570.67689    20.389736    20.268195     20.37645            0            0            0    8420.8358   -1282.7181    3439.6475   -444.89877    310.34797   -1146.2188   -1824.2183    20.389736    20.268195     20.37645           90           90           90 
   96500    230.56583   -162.74753   -133.80884   -162.74753            0    2249.4359    20.257623     20.25815    20.339115            0            0            0    8346.8058    2617.3449    2191.9145    1939.0482   -680.43836   -1610.8323    786.56856    20.257623     20.25815    20.339115           90           90           90 
   97000    224.12171   -162.70647   -134.57659   -162.70647            0    1217.6682    20.167165    20.145944    20.547744            0            0            0    8348.2729    1597.2002    1398.2044    657.59999    510.18582   -1902.3857   -1316.3135    20.167165    20.145944    20.547744           90           90           90 
   97500    230.96691   -163.68883    -134.6998   -163.68883            0    3380.3532    20.094662     20.07903    20.619044            0            0            0    8319.3991     2286.187    7576.9625    277.91004    533.37663    621.29524    214.10731    20.094662     20.07903    20.619044           90           90           90 
   98000    222.28902   -163.91572   -136.01587   -163.91572            0    -633.7314    20.207689    20.260455     20.65865            0            0            0    8458.0018   -132.88881   -2103.7684    335.46304    165.43982   -869.31096   -589.90651    20.207689    20.260455     20.65865           90           90           90 
   98500    233.23979   -164.36595   -135.09165   -164.36595            0    5396.2799    20.051104    20.149109    20.382682            0            0            0    8234.8459     3321.848    6092.5191    6774.4726    2284.4807     833.0989    754.75941    20.051104    20.149109    20.382682           90           90           90 
   99000    224.31749   -163.41976   -135.26531   -163.41976            0    3975.9521    20.183782     20.18275    20.414087            0            0            0    8315.9687    5623.9469    3934.7666    2369.1428   -859.42213   -2516.5053   -1197.5811    20.183782     20.18275    20.414087           90           90           90 
   99500    235.23275   -162.84505   -133.32061   -162.84505            0    873.64882    20.379762    20.182428    20.555932            0            0            0    8454.9238   -2032.9256    1000.5336    3653.3385    901.79771    46.407503    2686.2978    20.379762    20.182428    20.555932           90           90           90 
  100000    232.01687   -163.40656   -134.28575   -163.40656            0    4374.3401    20.134105     20.10292     20.60219            0            0            0    8338.8246    3423.9241    2601.2916    7097.8046    46.806394    889.61956    813.57985    20.134105     20.10292     20.60219           90           90           90 
  100500    236.78897   -164.00629   -134.28652   -164.00629            0    970.91397    20.045647    20.104292    20.581579            0            0            0    8294.4489    241.06766     3352.114   -680.43972   -906.28969   -968.55085     776.8255    20.045647    20.104292    20.581579           90           90           90 
  101000    223.78941   -163.64418   -135.55602   -163.64418            0    3816.6865    20.199321    20.243896    20.501537            0            0            0    8383.3439    3641.3531    2076.6365    5732.0699   -1089.1305    2924.7819    209.24676    20.199321    20.243896    20.501537           90           90           90 
  101500    229.16127    -164.2627   -135.50031    -164.2627            0    1277.2731    20.310954    20.289507    20.500418            0            0            0    8448.2069    1096.0359    2529.3477    206.43567   -324.67889    1965.5321    387.64937    20.310954    20.289507    20.500418           90           90           90 
  102000    233.98189   -164.53494    -135.1675   -164.53494            0    5545.5651    20.066586    20.056488    20.403913            0            0            0    8211.8658    5261.9561    7025.7846    4348.9546   -565.58827    669.78719   -357.59848    20.066586    20.056488    20.403913           90           90           90 
  102500    232.49495   -164.53361    -135.3528   -164.53361            0    2372.5825    20.166802    20.216189    20.648804            0            0            0    8418.4324    4715.9128    698.90475      1702.93     603.6271    1527.4602    1013.9987    20.166802    20.216189    20.648804           90           90           90 
  103000    232.40264   -163.38403    -134.2148   -163.38403            0    1191.4328    20.178935    20.139078    20.567242            0            0            0    8358.2213   -104.78076    1402.4358    2276.6434   -363.36533    2864.7747    832.41623    20.178935    20.139078    20.567242           90           90           90 
  103500    226.39924   -164.60183    -136.1861   -164.60183            0    4014.7167    20.192078    20.007976    20.434456            0            0            0    8255.5734    3315.1683    6612.6542    2116.3274   -746.81367    44.905413   -279.45978    20.192078    20.007976    20.434456           90           90           90 
  104000    235.86426   -164.28719   -134.68349   -164.28719            0     2331.802    20.306939    20.152268    20.427427            0            0            0    8359.5342    1008.5092    2000.9606    3985.9363    924.20391   -1340.9391    1484.5109    20.306939    20.152268    20.427427           90           90           90 
  104500     224.7987   -163.77584   -135.56099   -163.77584            0    2031.4635    20.210051    20.402306    20.553516            0            0            0    8474.8649   -1700.3366    4830.3151    2964.4121    606.55965    -870.5511   -133.39517    20.210051    20.402306    20.553516           90           90           90 
  105000    232.00657   -162.43347   -133.31395   -162.43347            0    4459.7961    19.820059    20.155436    20.645098            0            0            0    8247.3436    6028.5952    3223.5257    4127.2674    1146.7591   -2982.2151    1739.7335    19.820059    20.155436    20.645098           90           90           90 
  105500    235.35151    -163.2665   -133.72715    -163.2665            0    761.18728    20.095771    20.094056    20.834711            0            0            0     8413.172   -553.58008    2070.8749    766.26705     -1038.41    4206.7198    1136.1487    20.095771    20.094056    20.834711           90           90           90 
  106000    232.19649   -163.40963   -134.26627   -163.40963            0   -819.49953      20.3462    20.045469    20.640294            0            0            0    8418.1257   -2471.6302    -620.3745    633.50606   -412.95949    481.59949    2097.2921      20.3462    20.045469    20.640294           90           90           90 
  106500    226.23735   -162.69095   -134.29553   -162.69095            0    1374.3241    20.302637    20.112877    20.426218            0            0            0    8340.9324   -215.44959    2497.6604    1840.7616   -134.43457   -451.08661   -998.90677    20.302637    20.112877    20.426218           90           90           90 
  107000    223.72206   -163.26924   -135.18953   -163.26924            0    1991.6776    20.098143    20.226738    20.406666            0            0            0    8295.7148    3386.1398    241.01515    2347.8777    62.079346    2601.3736   -188.97456    20.098143    20.226738    20.406666           90           90           90 
  107500    227.58508   -163.14125   -134.57668   -163.14125            0    3010.9845     20.10815    20.218594    20.516846            0            0            0     8341.299    1607.3645    5153.1366    2272.4523     276.3044    745.32834    104.52133     20.10815    20.218594    20.516846           90           90           90 
  108000    221.52269   -161.68862   -133.88495   -161.68862            0    1942.2112    20.290115    20.197724    20.723004            0            0            0    8492.5803    142.87525    4170.4181    1513.3404   -1247.1284   -140.02063   -1169.4962    20.290115    20.197724    20.723004           90           90           90 
  108500    229.29676   -161.89098   -133.11158   -161.89098            0    3880.6993    20.159592    20.003025     20.65614            0            0            0    8329.6468    5664.6331    4017.5439     1959.921    186.91202   -309.87917    1324.5073    20.159592    20.003025     20.65614           90           90           90 
  109000    224.89179   -163.30032   -135.07379   -163.30032            0    1979.7482    20.082547    20.163287    20.582076            0            0            0    8334.3035    2394.6947    2812.2081    732.34189   -274.93846   -453.83999    300.41306    20.082547    20.163287    20.582076           90           90           90 
  109500     228.5268    -163.1703   -134.48753    -163.1703            0    3411.5419    20.231872    20.321426      20.5164            0            0            0    8435.1223    7120.7246    334.59401    2779.3072   -416.51638     648.1986   -1372.4471    20.231872    20.321426      20.5164           90           90           90 
  110000    214.03788   -161.41542   -134.55118   -161.41542            0    3711.1586    20.225575    20.149333    20.389302            0            0            0    8309.2899    3238.9768    4603.8871     3290.612    1118.3025    -2058.007   -2969.1671    20.225575    20.149333    20.389302           90           90           90 
  110500    216.16569   -163.43911   -136.30781   -163.43911            0    1887.5113    20.206187    20.127103     20.39285            0            0            0     8293.609    2321.2601     839.2972    2501.9766     183.0729   -1047.3677    -809.1086    20.206187    20.127103     20.39285           90           90           90 
  111000    230.41005   -163.50874   -134.58961   -163.50874            0    2627.2154    20.167322    20.181209    20.479179            0            0            0    8335.0451   -333.39192    4465.4357    3749.6023    609.35761   -1099.4722   -1229.0549    20.167322    20.181209    20.479179           90           90           90 
  111500    229.23755   -163.44272   -134.67075   -163.44272            0   -506.43737    20.134601    20.172955    20.638854            0            0            0    8382.9738   -1845.2643    685.14843   -359.19624   -701.52635   -194.04952   -1129.6857    20.134601    20.172955    20.638854           90           90           90 
  112000    235.75313   -164.31861   -134.72886   -164.31861            0    3621.4807     20.10016    19.999446    20.684577            0            0            0     8315.036    2342.1218     4873.925    3648.3952   -345.15017    2590.4093    893.49699     20.10016    19.999446    20.684577           90           90           90 
[...]
  373000     217.7586   -164.86322   -137.53199   -164.86322            0    1273.1013    20.039364    20.266518    20.543119            0            0            0    8343.1385    3412.0623   -1772.2666    2179.5083   -228.81061   -127.09207   -2141.0524    20.039364    20.266518    20.543119           90           90           90 
  373500    227.47736   -164.45615   -135.90511   -164.45615            0    5829.7499    20.003746    20.196584    20.624265            0            0            0    8332.3544    9235.8527    4221.6548    4031.7421    414.80059   -460.56161   -2996.3994    20.003746    20.196584    20.624265           90           90           90 
  374000    238.06908   -163.44622   -133.56579   -163.44622            0    3004.8448    20.342797    20.019694    20.550428            0            0            0    8369.2967      3718.45    4219.5434    1076.5409    281.34149    1804.0769   -1487.3479    20.342797    20.019694    20.550428           90           90           90 
  374500    241.98357   -162.44449   -132.07274   -162.44449            0    2140.1955    20.436991    20.052655    20.388822            0            0            0    8355.6638    546.86188    4037.5596    1836.1649   -152.71092    530.38952   -63.220798    20.436991    20.052655    20.388822           90           90           90 
  375000    236.66228   -162.16083   -132.45697   -162.16083            0    1315.9203    20.193523    20.346504    20.480499            0            0            0     8414.773   -2373.2745    2837.6962    3483.3393    1357.7451    539.00433   -1333.5331    20.193523    20.346504    20.480499           90           90           90 
  375500    235.76586   -164.11748   -134.52613   -164.11748            0    1713.9804    19.927717    20.273777    20.533072            0            0            0    8295.5682    4773.0574   -1867.9274    2236.8113     515.5764   -64.018365   -2899.0785    19.927717    20.273777    20.533072           90           90           90 
  376000    226.74643   -162.06681    -133.6075   -162.06681            0   -407.36056    20.211241      20.1399    20.618593            0            0            0    8392.8472   -1088.3997   -2365.3166    2231.6346   -427.92138    2070.5477   -24.425794    20.211241      20.1399    20.618593           90           90           90 
  376500     234.8228   -162.54929    -133.0763   -162.54929            0    5998.4163    20.338533    20.070219    20.544085            0            0            0    8386.0711    5961.5346    8255.4464    3778.2679    1965.7779   -172.46031   -678.76765    20.338533    20.070219    20.544085           90           90           90 
  377000     226.0837   -164.49129   -136.11516   -164.49129            0   -179.46135    20.163398    20.109241    20.437509            0            0            0    8286.8093    3.8191316   -1848.1206    1305.9174   -445.39631   -628.53452   -561.49051    20.163398    20.109241    20.437509           90           90           90 
  377500    226.03606    -164.3458   -135.97565    -164.3458            0     620.1701    20.145799    20.234786    20.479386            0            0            0    8348.3382   -1245.7302    1904.9416     1201.299   -183.86802   -1505.4562    1561.9125    20.145799    20.234786    20.479386           90           90           90 
  378000    230.48805   -163.48288   -134.55396   -163.48288            0    5716.9734    20.232361    20.204722    20.537256            0            0            0     8395.409    3731.6723    9313.4727    4105.7751    862.30357    1506.2819   -2264.2745    20.232361    20.204722    20.537256           90           90           90 
  378500    230.37238   -164.80767   -135.89327   -164.80767            0    3979.8981     20.14692    20.108993    20.483906            0            0            0    8298.7323    6042.7107    2812.9385    3084.0449    -506.2624    1678.4678    2661.7664     20.14692    20.108993    20.483906           90           90           90 
  379000    230.29315   -163.53081   -134.62635   -163.53081            0      939.969    20.125275     20.25614    20.571641            0            0            0     8386.243   -780.15997    2654.9576    945.10934    318.16861    1924.5107    1300.3445    20.125275     20.25614    20.571641           90           90           90 
  379500    227.43999   -163.62642   -135.08006   -163.62642            0    2542.5785    20.102953    20.258666    20.548957            0            0            0    8368.7476    7000.3799   -752.67856    1380.0343   -454.56933    730.58949     649.6415    20.102953    20.258666    20.548957           90           90           90 
  380000    225.02039   -163.76616    -135.5235   -163.76616            0    1316.1797    20.222656    20.013599    20.494227            0            0            0    8294.5899    1725.2514    1798.2694    425.01834    722.59512    4383.7204    667.97861    20.222656    20.013599    20.494227           90           90           90 
  380500    221.98942   -164.00521   -136.14296   -164.00521            0    2175.0732    20.395353    20.019648    20.524258            0            0            0    8380.2145    3243.7818    2166.7845    1114.6531    403.16927   -1585.5968   -1347.9237    20.395353    20.019648    20.524258           90           90           90 
  381000    221.23634   -163.13902    -135.3713   -163.13902            0     4579.636     20.13212    20.227207    20.500973            0            0            0    8348.3358    7241.2497    143.27904    6354.3793    1017.4979   -445.46209   -1483.8976     20.13212    20.227207    20.500973           90           90           90 
  381500    243.21115   -162.57404   -132.04822   -162.57404            0    5173.1172    19.930669    20.378562    20.596284            0            0            0    8365.3528    1463.4543    7464.6771      6591.22   -119.19276   -807.19056    -1300.907    19.930669    20.378562    20.596284           90           90           90 
  382000    232.35302   -163.44122   -134.27822   -163.44122            0    214.69282    20.133508    20.253735    20.656265            0            0            0    8423.1854    343.79949    626.83183   -326.55285    324.54521   -1149.4053   -922.80912    20.133508    20.253735    20.656265           90           90           90 
  382500    238.50587   -162.46495    -132.5297   -162.46495            0    1949.8233    20.420333    20.001312    20.515744            0            0            0    8379.3159   -2281.8355     2973.925    5157.3805   -283.15439    410.65291    1159.1537    20.420333    20.001312    20.515744           90           90           90 
  383000    237.47228   -163.44647   -133.64095   -163.44647            0    3925.3808    20.297804    20.084458    20.443004            0            0            0    8334.0074    4102.4673    4570.3982    3103.2769    539.01127     2311.541    791.28736    20.297804    20.084458    20.443004           90           90           90 
  383500    250.10135   -162.97433   -131.58371   -162.97433            0    2042.6174    20.148523    20.325638    20.594176            0            0            0    8433.9652    2173.1985   -340.30628    4294.9601   -311.77184   -4734.5254    160.55228    20.148523    20.325638    20.594176           90           90           90 
  384000    225.11205   -163.16345   -134.90928   -163.16345            0     3032.082    20.078876    20.101455    20.628435            0            0            0    8325.9383    6914.0343    3278.8066   -1096.5949    486.79324    673.32551    52.307237    20.078876    20.101455    20.628435           90           90           90 
  384500    229.54976   -164.04428   -135.23312   -164.04428            0    3214.5006    20.260172    20.051049    20.667359            0            0            0    8395.8604    1976.6127    4124.8989    3541.9902    224.20833   -1882.5198   -1960.3363    20.260172    20.051049    20.667359           90           90           90 
  385000    226.08448   -164.51969   -136.14346   -164.51969            0    1968.7034    20.178133    20.161799    20.515057            0            0            0    8346.0884    34.596733    4997.0044    874.50893    886.78275    1398.5716   -2389.1187    20.178133    20.161799    20.515057           90           90           90 
  385500    218.97397   -163.30635   -135.82257   -163.30635            0    2019.8308    20.115016    20.282646    20.446654            0            0            0    8341.9435    3983.0896    29.313626    2047.0891   -748.73622   -63.709677   -1440.0096    20.115016    20.282646    20.446654           90           90           90 
  386000    229.41178    -163.8818   -135.08796    -163.8818            0    3988.9182    20.156174    20.209608     20.41732            0            0            0    8316.9619    7026.4975    2624.9468    2315.3104     1094.744    -3000.653   -644.69853    20.156174    20.209608     20.41732           90           90           90 
  386500    230.67239   -162.71019   -133.75813   -162.71019            0   -1767.9099    20.313332    20.186848    20.585567            0            0            0     8441.362    -5211.287    -608.5899    516.14721     171.3825    -1852.674   -945.40188    20.313332    20.186848    20.585567           90           90           90 
  387000    228.64317    -163.2557   -134.55833    -163.2557            0    1566.7574    20.183497    20.019859    20.621462            0            0            0    8332.5299    343.70527     2628.345    1728.2218   -1051.2704   -555.95268   -1002.7502    20.183497    20.019859    20.621462           90           90           90 
  387500    225.06606    -162.3663    -134.1179    -162.3663            0    2729.7026    20.144833    20.057891    20.750517            0            0            0    8384.5136    2819.7751    4054.9172    1314.4155    972.78016   -2949.4756   -283.70107    20.144833    20.057891    20.750517           90           90           90 
  388000    218.63615   -164.10077    -136.6594   -164.10077            0    667.12451    20.173237    20.225299    20.660291            0            0            0    8429.6003   -1068.6545    1316.9813    1753.0467    440.99146   -3015.2917    792.78123    20.173237    20.225299    20.660291           90           90           90 
  388500    215.01961   -163.68021   -136.69276   -163.68021            0    1296.3656    20.133777    20.215937     20.37765            0            0            0    8294.1757    2016.5571    909.87296    962.66683    1486.1753    1457.0407    228.85985    20.133777    20.215937     20.37765           90           90           90 
  389000    221.42262   -164.32286   -136.53175   -164.32286            0    5601.7976    20.211887    20.220922    20.314672            0            0            0    8302.6674     8716.604    2583.1417    5505.6472     717.7767   -2600.9094   -1072.8711    20.211887    20.220922    20.314672           90           90           90 
  389500     220.5679   -164.08352   -136.39969   -164.08352            0    1045.1376     20.27198    20.079594    20.492676            0            0            0    8341.6078    2304.1602     655.6448    175.60786    617.98989   -2951.9911     973.0567     20.27198    20.079594    20.492676           90           90           90 
  390000    223.76952   -164.75991   -136.67424   -164.75991            0    3852.5322    20.254209    20.079197    20.828603            0            0            0     8470.748    3475.9436    4487.4882    3594.1647    38.705298   -348.31269   -1626.6722    20.254209    20.079197    20.828603           90           90           90 
  390500    237.03632   -164.23945   -134.48864   -164.23945            0    5326.1381    20.088189    20.046131    20.817216            0            0            0    8382.8944    5238.6292    5354.9481     5384.837    515.69556    6.5947812    1072.5692    20.088189    20.046131    20.817216           90           90           90 
  391000    232.81851   -162.39956   -133.17814   -162.39956            0   -848.36188    20.098068    20.131895    20.650142            0            0            0    8355.2993   -1840.1311    156.34823   -861.30276   -469.67337    647.92843    246.98494    20.098068    20.131895    20.650142           90           90           90 
  391500    240.13919   -161.64891   -131.50866   -161.64891            0    115.26389    20.350036    20.249394     20.44435            0            0            0    8424.6235   -1930.1319     -75.8328    2351.7564   -317.56621    92.491176    1470.0575    20.350036    20.249394     20.44435           90           90           90 
  392000    216.95188   -164.19299   -136.96301   -164.19299            0    195.12673    20.303578    20.135538    20.275499            0            0            0    8289.0996   -4741.8905    3819.4854    1507.7853    425.16862    1474.2758     686.6184    20.303578    20.135538    20.275499           90           90           90 
  392500    225.18803   -164.85011    -136.5864   -164.85011            0    978.02112    20.188837    20.176885    20.444707            0            0            0    8328.1075     1216.724    2375.4719   -658.13247   -757.70286   -1324.3197    2559.7187    20.188837    20.176885    20.444707           90           90           90 
  393000    230.85314   -162.96644   -133.99169   -162.96644            0    2342.0775    20.075451    20.206308    20.690015            0            0            0    8392.9202    3106.9723    2456.3315    1462.9286    1170.1825    854.16431    1162.2412    20.075451    20.206308    20.690015           90           90           90 
  393500    237.48059   -161.34716   -131.54059   -161.34716            0    3627.4378    20.230946    20.103185    20.835733            0            0            0     8474.027    7365.6681    169.35488    3347.2904    -887.4251   -1523.0977   -2418.6717    20.230946    20.103185    20.835733           90           90           90 
  394000    232.26898   -163.91537   -134.76292   -163.91537            0    3501.1598    20.316962     19.93052    20.620779            0            0            0    8349.9229    4183.9704    2425.0887    3894.4203   -545.24421    1048.1213   -62.153671    20.316962     19.93052    20.620779           90           90           90 
  394500    229.11133   -164.52283    -135.7667   -164.52283            0    2404.4877    20.228573    20.171211    20.363694            0            0            0     8309.096   -1127.5718    5658.4291    2682.6059    491.89096     -185.347   -1477.5644    20.228573    20.171211    20.363694           90           90           90 
  395000    230.89061   -162.92937   -133.94992   -162.92937            0    2540.8464    20.199931    20.371153    20.331332            0            0            0    8366.2594    4349.1799    611.25296    2662.1063     161.6671    757.35722    636.27291    20.199931    20.371153    20.331332           90           90           90 
  395500    225.87758   -164.38826     -136.038   -164.38826            0    3275.9766    20.220265    20.227649    20.454701            0            0            0    8366.1448     2563.039    4045.0304    3219.8605    235.09344    636.16011    1548.7407    20.220265    20.227649    20.454701           90           90           90 
  396000    221.21795   -163.73112    -135.9657   -163.73112            0    3691.8177    20.168424     19.98799    20.558342            0            0            0    8287.6074    4469.1171    3154.2259    3452.1099   -803.41495   -582.03166    435.05551    20.168424     19.98799    20.558342           90           90           90 
  396500    223.24045   -164.65028   -136.63101   -164.65028            0     1998.236    20.197133    20.078865    20.616709            0            0            0    8360.8074    2747.7155    1351.2702    1895.7223     675.4926    2401.0222   -1249.7342    20.197133    20.078865    20.616709           90           90           90 
  397000    224.42409     -163.254   -135.08617     -163.254            0     1284.209    20.247282    20.271694    20.554466            0            0            0    8436.5127   -1191.9587    2566.7608     2477.825    249.45417     685.5418    1013.9259    20.247282    20.271694    20.554466           90           90           90 
  397500    233.79563   -163.87953   -134.53547   -163.87953            0     4763.671    20.148457    20.148105    20.425864            0            0            0    8291.9453    6740.1323     2374.213    5176.6675     1558.347    714.95888    419.76937    20.148457    20.148105    20.425864           90           90           90 
  398000    227.23871   -163.05279    -134.5317   -163.05279            0   -1732.3626    20.211036    20.190087    20.525524            0            0            0    8375.6982   -1479.9478   -1604.0707   -2113.0692   -794.61201   -896.57333    1484.1089    20.211036    20.190087    20.525524           90           90           90 
  398500    232.34277   -163.23714   -134.07543   -163.23714            0    2083.2649    20.148221    20.176081    20.548858            0            0            0    8353.3599    2818.0927    892.03602     2539.666   -181.73112   -2394.6487    48.208229    20.148221    20.176081    20.548858           90           90           90 
  399000    218.57125   -165.26622     -137.833   -165.26622            0    518.47182    20.159477    20.177297    20.823888            0            0            0    8470.4031    -547.5158    3458.0302   -1355.0989   -964.91671    3005.8404    1617.2385    20.159477    20.177297    20.823888           90           90           90 
  399500    224.44813   -163.40839   -135.23754   -163.40839            0    2569.5689    20.037314    20.053701     20.76664            0            0            0    8344.4991    3571.9109    629.05337    3507.7425   0.35465074   -2568.5913   -521.58769    20.037314    20.053701     20.76664           90           90           90 
  400000    222.32295   -164.08266   -136.17855   -164.08266            0    1928.5849     20.18772    20.139983    20.437336            0            0            0    8309.4189    950.95547     292.2712     4542.528   -156.03366    745.88828   -1788.6638     20.18772    20.139983    20.437336           90           90           90 
Loop time of 2402.51 on 1 procs for 400000 steps with 972 atoms

Performance: 7.192 ns/day, 3.337 hours/ns, 166.493 timesteps/s
69.7% CPU use with 1 MPI tasks x 1 OpenMP threads

MPI task timing breakdown:
Section |  min time  |  avg time  |  max time  |%varavg| %total
---------------------------------------------------------------
Pair    | 2135.7     | 2135.7     | 2135.7     |   0.0 | 88.89
Bond    | 0.060569   | 0.060569   | 0.060569   |   0.0 |  0.00
Neigh   | 238.21     | 238.21     | 238.21     |   0.0 |  9.92
Comm    | 9.5844     | 9.5844     | 9.5844     |   0.0 |  0.40
Output  | 2.1336     | 2.1336     | 2.1336     |   0.0 |  0.09
Modify  | 15.492     | 15.492     | 15.492     |   0.0 |  0.64
Other   |            | 1.367      |            |       |  0.06

Nlocal:        972.000 ave         972 max         972 min
Histogram: 1 0 0 0 0 0 0 0 0 0
Nghost:        4603.00 ave        4603 max        4603 min
Histogram: 1 0 0 0 0 0 0 0 0 0
Neighs:         0.00000 ave           0 max           0 min
Histogram: 1 0 0 0 0 0 0 0 0 0
FullNghs:      244550.0 ave      244550 max      244550 min
Histogram: 1 0 0 0 0 0 0 0 0 0

Total # of neighbors = 244550
Ave neighs/atom = 251.59465
Ave special neighs/atom = 0.0000000
Neighbor list builds = 40000
Dangerous builds not checked

unfix		3
unfix		2

write_data	data.final.${pid}
write_data	data.final.0
System init for write_data ...

write_restart   restart.lmp.${pid}
write_restart   restart.lmp.0
System init for write_restart ...
Total wall time: 0:40:05
