LAMMPS data file via write_data, version 23 Jun 2022, timestep = 36280000

2268 atoms
2 atom types

0.6121888696126874 46.83851013036229 xlo xhi
0 20.047001 ylo yhi
0 20.857 zlo zhi

Masses

1 1.008
2 15.999

Atoms # full

8 0 2 0.5897 1.7435866148186534 3.330730218384956 2.7152441562170413 0 -1 0
1994 0 2 0.5897 2.503152109427484 3.1724504587899096 0.32445482226277583 1 0 2
1995 0 2 0.5897 3.7360531442280767 3.7750723546435974 0.9657726506810923 1 0 2
1993 0 1 -1.1794 2.7689633201457524 3.6868376814767645 1.1404060078587197 1 0 2
1773 0 2 0.5897 1.3286839456568171 1.2840277399743758 3.2280838122636326 0 0 1
1771 0 1 -1.1794 1.3777968527602882 0.32450326966880927 3.167314349738631 0 0 1
7 0 1 -1.1794 1.137211073229289 3.052727306811494 3.4076778117524067 0 -1 0
760 0 1 -1.1794 5.340411304825668 3.867228556062135 1.8025549992220578 0 0 1
1317 0 2 0.5897 4.388013021759351 1.7313547985160425 3.5485985882763207 0 1 1
885 0 2 0.5897 5.3907693404217465 0.04604195956904212 2.456604372205552 0 -3 1
135 0 2 0.5897 5.831570368007958 2.773610887606817 0.20557501746208262 0 0 4
1772 0 2 0.5897 1.7110375618553288 0.09433732964074007 2.2710094429187557 0 0 1
762 0 2 0.5897 5.992963967204002 3.612761149631349 2.449376420701214 0 0 1
883 0 1 -1.1794 4.400279249291232 0.14477681559341363 2.740716109468585 0 -3 1
1061 0 2 0.5897 6.107580904116619 0.2433362758384896 0.4747317430235983 0 2 -1
1811 0 2 0.5897 8.762986563810049 3.4517359984965847 2.0294111201354896 0 0 -2
1427 0 2 0.5897 10.791362768783237 1.2585303424369076 3.4055207148335773 0 -2 -1
1168 0 1 -1.1794 7.392515767224303 3.030308438485814 3.308329370488404 0 2 0
1169 0 2 0.5897 7.23333749872739 2.087359731767724 3.5013879710845246 0 2 0
147 0 2 0.5897 11.189245136974034 3.716292446025046 1.814495703851596 0 1 1
1810 0 1 -1.1794 9.436658415599057 3.6054698897063053 1.3389220958643 0 0 -2
1426 0 1 -1.1794 11.063739339902314 0.5324045843068361 2.8680506262509815 0 -2 -1
1812 0 2 0.5897 9.444184107152905 3.0038314284575987 0.5841043013994532 0 0 -2
178 0 1 -1.1794 7.193581116706352 0.4432419241004341 2.8659266362920377 0 0 0
145 0 1 -1.1794 12.066726758425267 3.4628979107355473 2.125620650790931 0 1 1
180 0 2 0.5897 7.938977721974108 0.3503293182270063 2.2529762921942167 0 0 1
294 0 2 0.5897 10.080453837825472 0.22277030297728828 1.444325823009287 0 0 -1
1170 0 2 0.5897 7.5432276467720785 3.50388604155992 4.170606770720387 0 2 0
1428 0 2 0.5897 12.075906443730075 0.4333120156508525 2.8468598991141345 0 -2 -1
146 0 2 0.5897 12.016031882924791 3.07907305760772 3.029830426292793 0 1 1
1989 0 2 0.5897 2.733957972022023 5.44275396829251 1.168170232400117 1 0 1
895 0 1 -1.1794 4.829389174055128 7.0444472916151 2.792438925817438 0 1 1
896 0 2 0.5897 4.203416663777562 6.728376071610689 2.113177404272118 0 1 1
1988 0 2 0.5897 1.9999423515500614 6.616358875553174 1.8249904224295015 1 0 1
1987 0 1 -1.1794 2.687216689209379 6.407218589735987 1.1566147157888056 1 0 1
897 0 2 0.5897 5.708745530097848 6.831813044704932 2.4838066281815068 0 1 1
761 0 2 0.5897 5.670800275888195 4.716724708899877 1.4040190863290563 0 0 1
575 0 2 0.5897 4.550041343541016 5.575299489568578 4.035901521411229 0 1 0
506 0 2 0.5897 0.8391029700650681 7.970225498676657 3.140377318487424 0 1 1
505 0 1 -1.1794 0.7358029517019693 7.037942680245207 3.0337761400877903 0 1 1
642 0 2 0.5897 9.285716837480022 5.612949096933662 0.6508430290243601 0 1 0
1899 0 2 0.5897 8.24440223111349 6.772015020111768 2.3313579504644317 0 1 -3
640 0 1 -1.1794 9.441633519616902 6.475324350905574 1.0177427007315103 0 1 0
1897 0 1 -1.1794 7.534882266014165 6.865459811943483 3.0127794404410353 0 1 -3
282 0 2 0.5897 10.906274934756668 6.698822640173191 2.0467704981321817 0 0 2
280 0 1 -1.1794 11.212255800597301 6.820510632290054 2.959043205952287 0 0 1
1898 0 2 0.5897 7.634327486257261 6.187792931358003 3.6809519438567007 0 1 -3
641 0 2 0.5897 9.173119574819385 7.141278014471858 0.36119527279127417 0 1 0
1287 0 2 0.5897 4.529607673846982 8.300186732497473 3.920539140851372 0 1 1
1148 0 2 0.5897 2.128087617702741 9.934717553370545 2.235675630272458 0 0 1
1562 0 2 0.5897 4.465249174428735 9.959447069195388 1.9143792921026292 0 -1 1
1147 0 1 -1.1794 2.79589858961228 10.199488753974094 1.5680246015076529 0 0 1
1561 0 1 -1.1794 5.441352249631281 10.185897857555863 1.9339326985961387 0 -1 1
1149 0 2 0.5897 2.738672790815093 11.153880627412907 1.4339754032342698 0 0 1
1563 0 2 0.5897 5.873457510087599 9.737513061465211 2.651653469142598 0 -1 1
603 0 2 0.5897 5.898997781519669 9.341758928126955 0.17387656469543492 0 -2 2
2159 0 2 0.5897 5.801571221712419 11.699117066614011 1.0713447405496954 0 0 1
1096 0 1 -1.1794 0.9524004067609287 9.7208845171902 3.427185418437096 0 -1 0
225 0 2 0.5897 2.6825459945237644 9.00118520263086 0.2946149342859856 1 0 1
98 0 2 0.5897 7.674902013060316 8.620651088728566 3.501062453157065 0 3 3
618 0 2 0.5897 9.408546765619912 9.600287052389017 0.9886211925970343 0 0 1
617 0 2 0.5897 9.124631800026206 9.951536656597003 2.476713498802616 0 0 1
616 0 1 -1.1794 9.63506255210746 10.21447859752568 1.6884242547784787 0 0 1
97 0 1 -1.1794 7.647541872487061 9.562621248793958 3.3065363242625057 0 3 3
1425 0 2 0.5897 11.239392297752591 9.793441185581274 1.8889114338695927 0 1 -1
99 0 2 0.5897 7.781951559332428 10.042470098979278 4.137383780289281 0 3 3
95 0 2 0.5897 9.495161201448695 11.826476841225011 1.1074140290639607 0 -1 1
1423 0 1 -1.1794 12.14145829571699 9.648593347307514 1.6865806205258305 0 1 -1
307 0 1 -1.1794 2.8194874291260765 13.072342074052324 1.3766007438147236 0 1 1
2052 0 2 0.5897 4.458341700747306 13.450066797583744 2.3314427606314254 0 0 0
308 0 2 0.5897 2.2554312692198 13.27888637276359 2.1420458261590425 0 1 1
2051 0 2 0.5897 5.780774887919609 13.525623042545748 3.1762439272446414 0 0 0
2050 0 1 -1.1794 4.864585400134347 13.723810861638727 3.187221301622113 0 0 0
309 0 2 0.5897 2.7003534131656903 13.63156345188314 0.6018571002697066 0 1 1
2260 0 1 -1.1794 1.3042490127500863 13.924095265514424 3.9942337008618956 1 0 1
137 0 2 0.5897 4.315805955084758 15.152535015966082 4.148996511024012 0 0 -1
2160 0 2 0.5897 6.101030083120997 13.18936785925401 0.39653256675417975 0 0 1
2158 0 1 -1.1794 6.127822636697622 12.228747657887496 0.2857726389102318 0 0 1
1397 0 2 0.5897 6.531337348828004 15.56082935634946 0.5805397750698049 0 1 1
94 0 1 -1.1794 9.601401086172103 12.785751715382693 1.2754244881802892 0 -1 1
96 0 2 0.5897 10.430224869450397 12.870939670351387 1.7841547342080848 0 -1 1
635 0 2 0.5897 8.0138613091096 13.459581311370535 2.561326302052075 0 1 2
634 0 1 -1.1794 7.558039078909743 13.520422963480913 3.3924967944463815 0 1 1
636 0 2 0.5897 7.932967795044662 12.854302603912329 3.9935567448975853 0 1 1
593 0 2 0.5897 7.526012785457465 15.539416389342655 3.557465460996566 0 -3 -1
582 0 2 0.5897 11.34377382408081 14.016429379165043 3.44074567971377 0 -1 -2
580 0 1 -1.1794 11.463867721886558 13.153984393938618 3.0945578805253593 0 -1 -2
2123 0 2 0.5897 2.9051999650952354 16.09828890024289 0.7320831468089603 0 0 0
132 0 2 0.5897 3.3253035113777822 19.912327907116712 1.3260486886527394 0 -1 2
130 0 1 -1.1794 2.5686780809208662 19.678356366049773 0.8014198620217896 0 -1 2
884 0 2 0.5897 4.269899271289853 19.599663203519825 3.5064908720928134 0 -4 1
2124 0 2 0.5897 2.4776996387007584 16.645826746030394 2.1271473559819554 0 0 0
2122 0 1 -1.1794 3.0866042627980437 16.85508939746586 1.3605094548269514 0 0 0
2042 0 2 0.5897 4.782342439768702 17.156564949219096 2.009871461465698 0 1 1
2041 0 1 -1.1794 5.637184669830816 17.194583864790623 1.6655742580850108 0 1 1
131 0 2 0.5897 2.5278412122792133 18.727259162423177 0.7829751322376206 0 -1 2
1062 0 2 0.5897 6.012212746306106 18.776231919624106 0.7848504002165236 0 1 -1
2143 0 1 -1.1794 1.2972478883308036 16.670767649918982 3.45393446395647 0 1 1
2043 0 2 0.5897 6.287993685147563 16.915296312612742 2.2852370942973232 0 1 1
1060 0 1 -1.1794 6.095922598652795 19.442664220612073 0.10293713562063075 0 1 -1
2145 0 2 0.5897 1.4366622741118231 17.49406570138666 3.984135385211687 0 1 1
2081 0 2 0.5897 9.191586164520642 16.535413357968217 0.5926670392551023 0 0 1
592 0 1 -1.1794 7.5824493544502145 16.41340940985777 3.130904176627104 0 -2 -1
179 0 2 0.5897 7.363892371711532 19.937649096369935 3.6770480507147814 0 -1 0
1379 0 2 0.5897 11.312933852634163 16.944644943184386 1.4472281600925359 0 2 -2
292 0 1 -1.1794 9.34995223627006 19.726817658451676 1.0015380580751096 0 -1 0
2082 0 2 0.5897 8.937288289227975 16.830561128340612 2.128390228419246 0 0 1
2080 0 1 -1.1794 9.50465250570631 17.040173407151762 1.359564902171884 0 0 1
293 0 2 0.5897 9.523114803561189 18.733786737564007 1.0962589634975883 0 -1 0
1031 0 2 0.5897 10.863131464596893 19.040221630413082 3.946813767946432 0 1 -2
594 0 2 0.5897 7.5434920709462645 17.042357001824755 3.885197793515703 0 -2 -1
9 0 2 0.5897 1.2415316098729885 3.638220209167645 4.220452620046723 0 0 0
1316 0 2 0.5897 4.3496546541080345 3.1415999881670285 4.178198366667299 0 0 1
1315 0 1 -1.1794 4.351976203325515 2.2106709067304964 4.401049497869203 0 1 1
516 0 2 0.5897 2.8758129499483243 2.294875756149782 5.289419642060493 0 0 0
515 0 2 0.5897 2.6175631922177605 2.8602307299563314 6.721600382239241 0 -1 0
514 0 1 -1.1794 2.251389944565421 2.2220525850288397 6.048603437194296 0 0 0
600 0 2 0.5897 4.928325157322575 1.9691289830487955 6.091997912583272 0 0 1
598 0 1 -1.1794 5.6167991659686 1.7828173270552963 6.769378407381869 0 0 1
1581 0 2 0.5897 2.774625093174158 0.9814537935032274 7.4397119473171465 0 1 0
1391 0 2 0.5897 5.712624230558068 2.727574294797454 8.230350820181842 0 0 0
1105 0 1 -1.1794 2.903444500506752 3.915789060488886 8.23033873958819 0 0 0
1579 0 1 -1.1794 2.9734043234261454 0.30633485428161755 8.111391561686297 0 1 0
168 0 2 0.5897 10.63843840864477 3.5711944054014744 4.997746524674465 0 0 2
166 0 1 -1.1794 10.574613230065294 2.6451079174920795 4.798397963824547 0 0 2
167 0 2 0.5897 9.63817753330304 2.347383371158013 5.013090000674783 0 0 2
599 0 2 0.5897 6.450995976817907 1.692250409739444 6.276410155314807 0 0 1
665 0 2 0.5897 8.688372866422668 2.5941977371635994 6.74121120487089 0 1 0
664 0 1 -1.1794 8.385464074932587 1.8834508381362376 6.158514132413183 0 1 0
666 0 2 0.5897 8.686476860302804 1.1183606577768561 6.664199886867425 0 1 0
682 0 1 -1.1794 9.29012143653607 3.5189033133878125 8.187544018802797 0 -1 -1
1276 0 1 -1.1794 9.183952183528065 0.10653107433103204 8.03561489647994 0 2 -3
1625 0 2 0.5897 11.78648245976511 2.150025870560903 6.0055991757329155 0 -1 1
1284 0 2 0.5897 1.1172580912480976 6.114296974587957 4.4194873315826255 0 0 0
574 0 1 -1.1794 4.06386694649865 4.99738533693688 4.644337968590832 0 1 0
576 0 2 0.5897 3.084348916743965 5.199645049673942 4.667369388846324 0 1 0
1282 0 1 -1.1794 1.4049261536224664 5.371165497099757 5.030681097943096 0 0 0
1796 0 2 0.5897 4.905560943853878 5.424190878191334 6.160103042127175 0 0 2
1578 0 2 0.5897 2.3313324657867973 7.3247722842091765 7.83332016074021 0 1 0
1797 0 2 0.5897 5.734251020345476 5.0267647526496075 7.5484378382259525 0 0 2
2048 0 2 0.5897 6.254326045712399 7.635239617480881 7.193150580846685 0 0 0
1795 0 1 -1.1794 5.729861238450405 5.579204806563806 6.746791448522482 0 0 2
1106 0 2 0.5897 2.69741166474049 4.842206934129188 8.066792037225795 0 0 0
1283 0 2 0.5897 0.988159712100201 5.469391798880378 5.89229575116678 0 0 0
1794 0 2 0.5897 10.64862719895627 6.069839045394657 4.444771558778201 0 -1 2
1792 0 1 -1.1794 10.490545693729576 5.438689405689385 5.194379630634377 0 -1 2
934 0 1 -1.1794 7.777459749756944 5.0230775404746675 5.307588259830755 0 -2 -1
936 0 2 0.5897 8.697523632499957 5.2851986876511985 5.57140095882957 0 -2 -1
935 0 2 0.5897 7.081417681140119 5.472438278476106 5.9107465665297 0 -2 -1
2105 0 2 0.5897 9.132555052183639 7.633475216797256 6.824287922663486 0 -2 -1
1793 0 2 0.5897 11.091646770778798 5.701948488349904 5.921228090803454 0 -1 2
1803 0 2 0.5897 9.546462434607042 5.25975667933788 7.83270891297015 0 1 0
1801 0 1 -1.1794 9.70549724491892 6.215873500148019 7.859150313062636 0 1 0
2047 0 1 -1.1794 6.288086541636178 8.47502460083368 6.69121300132583 0 0 0
1285 0 1 -1.1794 4.49077605459894 8.908492412940507 4.675413659572779 0 1 1
814 0 1 -1.1794 2.302210390622858 8.474477512974305 6.454632390027841 0 -1 1
815 0 2 0.5897 3.1514616008476746 8.575416479215766 5.95267829391542 0 -1 1
1286 0 2 0.5897 5.159855013404985 8.627766030503238 5.269511589531468 0 1 1
816 0 2 0.5897 2.293638508182076 9.22496610429246 7.085249117091817 0 -1 1
1275 0 2 0.5897 4.044726454047011 10.952991298193337 4.823291100785063 0 1 3
2049 0 2 0.5897 6.069157456042492 9.155169248375785 7.336683793569187 0 0 0
1273 0 1 -1.1794 4.0354527543337 11.835004908806779 5.312815674900706 0 1 3
2036 0 2 0.5897 6.154429459933273 11.720941013862557 7.4882541852409945 0 -1 0
1319 0 2 0.5897 2.263938493703759 11.737728934012413 5.958395597034528 0 0 1
1893 0 2 0.5897 2.246101352740811 11.435433409963624 8.289767320295535 0 0 1
1098 0 2 0.5897 1.1975190538856304 10.162212898638701 4.233220440851119 0 -1 0
1318 0 1 -1.1794 1.3956466556518223 11.582372594248275 5.580936704239305 0 0 1
1320 0 2 0.5897 0.7504733931889045 11.981978972981219 6.182848702135783 0 1 1
1891 0 1 -1.1794 2.5436358837437876 10.5164448814789 8.321852291349016 0 0 1
1851 0 2 0.5897 11.399268355820318 8.204415031659439 4.197496351433751 0 1 -3
2104 0 1 -1.1794 9.150802225522181 8.556809135363146 6.490423750564398 0 -2 -1
2106 0 2 0.5897 8.153488976481947 8.663131747446418 6.299061529703141 0 -1 -1
1849 0 1 -1.1794 11.201096808720278 9.014298581203452 4.78472149870121 0 1 -3
1917 0 2 0.5897 11.052962389678443 10.717882123444067 4.938102946729651 0 -1 1
1850 0 2 0.5897 10.363387628382032 8.838478040856387 5.274250380452872 0 1 -3
758 0 2 0.5897 9.391649042730476 9.801249028696857 7.75105311206003 0 2 0
1915 0 1 -1.1794 10.986119774101079 11.708946756667663 5.174255974053264 0 -1 1
1069 0 1 -1.1794 8.291211414817617 11.605890943244235 5.114387450394332 0 2 1
1070 0 2 0.5897 7.602246596207671 11.88015828143866 5.792312593768822 0 2 1
1071 0 2 0.5897 9.231851722319336 11.768508103921674 5.3531200566079296 0 2 1
339 0 2 0.5897 12.143278305872974 11.850295549034593 6.385847038187721 0 2 -1
2261 0 2 0.5897 1.510596658114912 14.768421102196974 4.499454813440532 1 0 1
2262 0 2 0.5897 1.4694749973835122 13.250576930776683 4.621937460149939 1 0 1
1274 0 2 0.5897 4.140343638908938 12.434407845467184 4.5363668946409135 0 1 3
2037 0 2 0.5897 5.476819542716936 12.096301920099068 6.254492872762729 0 -1 0
136 0 1 -1.1794 4.153406392101409 15.81403969750928 4.8357664218736724 0 0 -1
1080 0 2 0.5897 0.9195253985944163 15.448380493988937 6.601246916012239 0 0 0
2118 0 2 0.5897 5.450467318218505 15.365237969923172 6.052030264315849 0 1 1
1553 0 2 0.5897 2.816935293232724 14.161108509599542 7.607998635017579 0 1 1
1078 0 1 -1.1794 1.930161313104913 15.532888080778495 6.595971998662184 0 0 0
138 0 2 0.5897 3.3543266328777883 15.603423359593178 5.283443449896699 0 1 -1
2035 0 1 -1.1794 6.316995565609982 12.292503866224699 6.761463436938323 0 -1 0
2117 0 2 0.5897 6.077305669781653 14.143097911630406 6.747017724564549 0 1 1
2116 0 1 -1.1794 5.938424121870373 15.103718292937591 6.84682010771433 0 1 1
1552 0 1 -1.1794 2.8207591335808777 13.395782509809065 8.218521278469566 0 1 1
1916 0 2 0.5897 11.085636245066755 12.247191546218282 4.37706737248104 0 -1 1
1788 0 2 0.5897 9.720436644950606 12.201381758791944 7.658509081407689 0 2 4
343 0 1 -1.1794 10.792971006288777 15.704191868546175 4.592679856426862 0 -2 -1
1404 0 2 0.5897 8.921372050700278 14.417862752469153 6.667842189086987 0 0 1
1402 0 1 -1.1794 8.602388331227253 15.287584053191257 6.316525146823583 0 0 1
1403 0 2 0.5897 7.638205624479296 15.270445443037064 6.533701075325616 0 0 1
344 0 2 0.5897 9.873826914910406 15.54090453063447 4.921022810331779 0 -2 -1
1786 0 1 -1.1794 9.66698466407932 13.137843574871127 7.999759777014482 0 2 4
345 0 2 0.5897 11.399553880604767 15.351972234599845 5.3329277028696875 0 -2 -1
305 0 2 0.5897 5.544575613297051 16.22671798392279 8.228756651334079 0 -1 1
1079 0 2 0.5897 2.092371791626663 16.28646065014333 7.128691168266825 0 0 0
540 0 2 0.5897 1.6249957453144515 19.53810587572118 4.469893563525771 0 0 0
1809 0 2 0.5897 5.909426394586308 19.906248918722476 7.3120512270125655 0 -1 1
347 0 2 0.5897 4.4597942942032045 17.513581123662917 4.872843934341484 0 -2 2
346 0 1 -1.1794 4.419279785952028 18.47829358549147 5.065720775157348 0 -2 3
538 0 1 -1.1794 1.817416690561233 18.94252825397046 5.196929799073768 0 0 0
539 0 2 0.5897 2.744000192723588 18.971012204154995 5.3512786585938565 0 0 0
348 0 2 0.5897 5.113124510613547 18.583731820480658 5.693998229578692 0 -2 2
1808 0 2 0.5897 5.984280133214249 18.479095733774507 7.849445674985202 0 -1 1
1807 0 1 -1.1794 6.315576436967444 19.053822829439213 7.170601870331443 0 -1 1
1323 0 2 0.5897 2.5068956540083702 18.254471244146337 8.261405753983839 0 -1 0
578 0 2 0.5897 9.035408244303934 16.508109628433765 7.2219188559183065 0 -1 0
1032 0 2 0.5897 10.87468340284442 17.48880814573184 4.364920057418522 0 2 -2
1030 0 1 -1.1794 10.516519307147597 18.355164673851338 4.507308421312597 0 1 -2
76 0 1 -1.1794 7.935759363771072 18.461945999169874 5.038548020039223 0 1 -1
78 0 2 0.5897 8.928489388432748 18.47129681513064 5.040305425621265 0 1 -1
77 0 2 0.5897 7.573513226911991 18.617920910203562 5.9139484027449365 0 1 -1
1278 0 2 0.5897 9.234517866280894 19.22704927104745 7.7938760040321515 0 1 -3
577 0 1 -1.1794 9.172893291191174 17.191132665455818 7.878965892144698 0 -1 0
1335 0 2 0.5897 11.97271891103145 16.230128907110537 8.062661733197501 0 2 -1
1110 0 2 0.5897 11.596036043954427 18.684636635350984 6.102548838654697 0 4 -4
1109 0 2 0.5897 11.982064690709375 18.385078357169157 7.508193700599306 0 4 -4
1804 0 1 -1.1794 1.144216897560058 0.29922349873541504 10.235840010028577 0 0 0
1390 0 1 -1.1794 5.546336944533063 3.501777075411177 8.784211817982209 0 0 0
1116 0 2 0.5897 2.0251379251294637 3.3524447827063253 9.679050205409812 0 1 -1
1059 0 2 0.5897 4.4169254633182575 1.571584066092162 10.958928267489886 0 -1 0
1057 0 1 -1.1794 4.202742504494996 2.3168997622057996 11.589512437296456 0 -1 0
1058 0 2 0.5897 4.67733069010727 2.1082505116814882 12.392631744162111 0 -1 0
1392 0 2 0.5897 6.3500102964667535 3.536725865653572 9.338505388853905 0 0 0
767 0 2 0.5897 5.823941952837064 0.11438841048200708 9.745170552484232 0 0 0
1107 0 2 0.5897 3.8274149358953315 3.8975255426446185 8.509318956286235 0 0 0
1580 0 2 0.5897 2.1825682692865254 0.26122497354050545 8.625793403318202 0 1 0
766 0 1 -1.1794 4.867096314133587 0.046673184713454365 9.858260386144922 0 0 0
768 0 2 0.5897 4.432375865604444 0.2746578916075495 9.00305541566028 0 0 0
1115 0 2 0.5897 1.2428450282826895 2.1300879239043735 10.153018180586528 0 1 -1
1114 0 1 -1.1794 1.2246097391547437 3.110921514066108 10.121174619417156 0 1 -1
683 0 2 0.5897 10.152497044605186 3.1881337360062996 8.387147093291818 0 -1 -1
1870 0 1 -1.1794 7.605991847124095 3.256196295181897 10.430134104465802 0 2 0
1871 0 2 0.5897 7.554570280390484 2.2755654661345472 10.510987664977058 0 2 0
1295 0 2 0.5897 10.625705811570102 1.450481119652911 11.210126528321469 0 1 1
1296 0 2 0.5897 10.569510426955178 2.922825384391624 11.8237260715335 0 1 1
1294 0 1 -1.1794 10.628970394967322 1.950363066682754 12.014386547797365 0 1 1
684 0 2 0.5897 8.642930062192944 3.4917872437643225 8.92720849284042 0 -1 0
1872 0 2 0.5897 8.12765865837039 3.639265498259234 11.112313808988839 0 2 0
1933 0 1 -1.1794 7.532151710296847 0.5250045888792328 10.270029744575188 0 1 0
1934 0 2 0.5897 8.06626707755263 0.1541863274784183 9.528637917168078 0 1 0
2068 0 1 -1.1794 11.3083076599505 0.2733557144105995 9.954396933599803 0 0 1
1277 0 2 0.5897 10.02219328195646 0.2629419419439825 8.45568384192847 0 2 -3
1513 0 1 -1.1794 12.107443758161175 3.6169091890165697 8.912874053226595 0 1 0
1576 0 1 -1.1794 2.4369468374766097 6.530526366532475 8.34567185720376 0 1 0
29 0 2 0.5897 4.546347855952785 4.142179310627409 11.306758276707043 0 0 0
795 0 2 0.5897 1.3039310703149567 4.276458646211377 11.592640632289138 0 0 1
1577 0 2 0.5897 1.5844584943604596 6.5155854054919065 8.819669631995382 0 1 0
648 0 2 0.5897 4.332750986884864 7.033470312917555 8.885391435998987 0 0 1
646 0 1 -1.1794 4.967991643853118 6.9541436914517 9.618645194010512 0 0 1
647 0 2 0.5897 4.7006421868889 6.194344004436269 10.142041758514091 0 0 2
28 0 1 -1.1794 4.2489549513010925 5.03633391664039 11.550687153330179 0 0 0
30 0 2 0.5897 3.3322768461626033 4.9353684714175605 11.940550335350576 0 0 0
793 0 1 -1.1794 1.5193512729641665 5.068359014698903 12.197400758348312 0 0 1
857 0 2 0.5897 6.878157365596848 6.744350711376168 9.649924769288566 0 2 2
2173 0 1 -1.1794 11.66273315867103 6.751878603366616 9.863374517926399 0 0 0
1802 0 2 0.5897 9.189249940432498 6.420959393206599 8.657613606275778 0 1 0
2162 0 2 0.5897 11.164441844660166 5.328365561485382 11.329722051603374 0 1 1
858 0 2 0.5897 7.876158421739591 6.404755136841442 10.780479625895167 0 2 2
856 0 1 -1.1794 7.7880173113070885 6.809333943834273 9.900399060467537 0 2 2
2174 0 2 0.5897 11.188358308620021 6.625776604839738 9.00369972252049 0 -1 0
1084 0 1 -1.1794 8.384398116415916 5.163557581893084 12.171036163698618 0 1 -3
2161 0 1 -1.1794 11.128775457503233 4.671731247683141 12.057940776204582 0 1 1
2175 0 2 0.5897 11.252586566567286 7.573373126633972 10.281487641810536 0 0 0
1017 0 2 0.5897 0.8423120874676986 8.710490818103347 10.449890367922498 0 0 0
1609 0 1 -1.1794 5.476519358583486 10.44902483211192 8.359725079897096 0 1 0
1611 0 2 0.5897 4.5715253123991895 10.347823144630812 8.659604309534966 0 1 0
1826 0 2 0.5897 4.893397086228944 8.258839512102716 10.761181071595324 0 1 0
1825 0 1 -1.1794 4.687111784338597 8.619902876916507 11.622802939025734 0 1 0
1827 0 2 0.5897 4.826830826280384 9.583470094937134 11.540020781889266 0 1 0
1892 0 2 0.5897 2.0037298026267765 10.118543950755654 9.054003990943482 0 0 1
1575 0 2 0.5897 1.4041879354942075 10.943376494725028 11.156608070564076 0 1 0
1573 0 1 -1.1794 1.4725563353973032 11.66827345928422 11.81375701932596 0 1 0
1574 0 2 0.5897 2.4265479638580816 11.697636395352403 12.046480189059654 0 1 0
769 0 1 -1.1794 4.171854048305063 11.566076551221638 11.584997635738226 0 0 -1
1610 0 2 0.5897 6.075206907656161 10.073989049814626 9.000481367362275 0 1 0
1015 0 1 -1.1794 0.8648343065639623 9.67409669664939 10.201395321348711 0 0 0
770 0 2 0.5897 4.885307722104992 11.740980287705753 12.210148510258792 0 0 -1
1784 0 2 0.5897 2.892451436472118 8.689346367266301 12.327990952784862 1 1 -1
392 0 2 0.5897 11.294901322348654 11.693269968505572 12.275525007209149 0 -4 0
757 0 1 -1.1794 9.62966610475326 10.53001440175725 8.35917829230681 0 2 0
927 0 2 0.5897 11.284154927145776 10.364717609129713 8.813436857970666 0 0 1
591 0 2 0.5897 7.482130257566269 8.641560978173487 10.140851768785911 0 -2 1
759 0 2 0.5897 9.060559268775402 10.449482780905274 9.127284030270035 0 2 0
589 0 1 -1.1794 7.502685288843283 9.584226145154856 9.975312455082587 0 -2 1
590 0 2 0.5897 7.825828877061112 10.015576391789859 10.824076903693998 0 -2 1
1556 0 2 0.5897 11.262173832691913 9.71207890589235 11.704301417558277 0 -3 0
1555 0 1 -1.1794 11.174710990165782 8.777384331614469 11.86425101179184 0 -3 0
391 0 1 -1.1794 10.77524403667396 11.446706654936726 11.53175834104279 0 -4 0
1662 0 2 0.5897 9.085552164473766 11.44230584066563 11.901850769353914 0 -1 1
1660 0 1 -1.1794 8.072446776893777 11.538243278594022 11.736305417095936 0 -1 1
393 0 2 0.5897 11.193411852059752 11.94566667013812 10.819625047865644 0 -4 0
1305 0 2 0.5897 1.1133832865065463 13.12002026417175 10.809677578741047 0 0 -1
771 0 2 0.5897 4.378349068341912 12.106100642306407 10.813119560398656 0 0 -1
1554 0 2 0.5897 2.1192233372667095 13.752794289386244 8.803048074179253 0 1 1
32 0 2 0.5897 4.312044133565292 13.533597415274121 9.106904039085187 0 -1 0
31 0 1 -1.1794 4.993950102176499 13.544304777129899 9.833447227460919 0 -1 0
33 0 2 0.5897 4.8114002400580995 14.340798532917551 10.393759922287737 0 -1 1
548 0 2 0.5897 5.241852221969504 15.56717532685645 12.21260709149985 0 -1 -1
547 0 1 -1.1794 4.546458693683535 15.762931276345748 11.63947444911802 0 -1 -1
1770 0 2 0.5897 1.1493417948447715 15.624769264538344 10.67944579109545 0 1 1
861 0 2 0.5897 2.927015620164204 15.061482516876643 12.490597608245546 0 1 0
1303 0 1 -1.1794 0.7922727582438789 13.86417732969539 10.270707034882463 0 0 -1
1787 0 2 0.5897 8.96039786106748 13.134764594698705 8.69422343991849 0 2 4
68 0 2 0.5897 6.736048627645952 13.574366937768543 9.981196255305187 0 0 -1
69 0 2 0.5897 7.777491890591295 13.021257488241805 10.881538125479487 0 0 -1
1857 0 2 0.5897 11.23751358405303 13.217996703230767 9.18003418072216 0 1 2
67 0 1 -1.1794 7.617688695827958 13.762946692823899 10.210273192826717 0 0 -1
1875 0 2 0.5897 10.933809067153895 14.576925994665562 10.922209681170303 0 0 -2
1855 0 1 -1.1794 11.801048016821715 13.391370209999836 9.914726690650491 0 1 2
1422 0 2 0.5897 7.697487089080058 15.503469974621098 10.310322661764042 0 1 -1
1873 0 1 -1.1794 10.938790596314254 15.301223613626373 11.623769560198069 0 0 -2
1321 0 1 -1.1794 2.5806366843158504 17.35859314534705 8.626312398421703 0 0 0
306 0 2 0.5897 4.522058334285835 17.117605066749128 8.999478577305943 0 -1 1
304 0 1 -1.1794 5.44388320913136 16.99722320378099 8.840049604964902 0 -1 1
1805 0 2 0.5897 1.4371397890231183 19.826179546774444 10.962084097492868 0 -1 0
549 0 2 0.5897 4.382756175725023 16.71406294867753 11.67429063568454 0 -1 -1
1322 0 2 0.5897 1.9851298752566733 17.2326687778239 9.414014843211135 0 0 0
782 0 2 0.5897 4.402570916127319 19.193227004526488 11.194884310633404 0 -1 0
781 0 1 -1.1794 4.237937288532748 18.57070880161155 11.908849639316365 0 -1 0
1769 0 2 0.5897 1.259975589378615 17.09559768141532 11.247740274020087 0 1 1
1768 0 1 -1.1794 0.9394589766284667 16.600262332469494 10.514605536864037 0 1 1
1874 0 2 0.5897 10.928211561858589 16.103157194670537 11.066217749492054 0 0 -2
1333 0 1 -1.1794 11.861707639026823 16.91979488528946 8.787119301921107 0 2 -1
2069 0 2 0.5897 11.439897869944463 19.742087998088866 10.762494909556688 0 -1 1
1935 0 2 0.5897 7.679072410255373 19.96238581276423 11.022113668503744 0 0 -1
1334 0 2 0.5897 11.00812955330782 17.236476398839663 8.570755224461855 0 2 -1
1420 0 1 -1.1794 7.652459460320068 16.487077578288513 10.365382375099045 0 1 -1
1421 0 2 0.5897 6.816270060728296 16.682140507049198 9.879151491072717 0 1 -1
579 0 2 0.5897 8.738592794997366 16.821779828695664 8.672820772881662 0 -1 0
1526 0 2 0.5897 8.051041033736531 17.78243353799819 11.72590829387688 0 -1 1
253 0 1 -1.1794 11.34829559662339 18.476048989155093 11.878141521261147 0 -2 1
255 0 2 0.5897 10.362346892414696 18.462402632166036 12.094569396094116 0 -2 1
1525 0 1 -1.1794 8.353028079664313 18.48111224610708 12.325076384650865 0 -1 1
2079 0 2 0.5897 2.948575353154585 1.7154416440736233 12.762840616733477 0 0 1
2078 0 2 0.5897 1.5405640249229218 1.8348916346940403 13.376411869401359 0 0 1
2077 0 1 -1.1794 2.436743058711781 1.5927161558640357 13.610974574655792 0 0 1
2066 0 2 0.5897 2.5497188594180678 3.0505181093607403 14.66747979793779 0 0 -1
890 0 2 0.5897 5.300791324319733 2.0410231755331107 14.372920345630655 0 1 1
4 0 1 -1.1794 5.33838838892225 3.371415197163696 15.670529505214486 0 1 -5
2067 0 2 0.5897 1.9721173143355353 3.799641951120569 15.914425237751171 0 0 -1
2065 0 1 -1.1794 2.623459071411824 3.8138544156266527 15.227544790445162 0 0 -1
889 0 1 -1.1794 5.300204870114807 1.3665251194698256 13.692848204875867 0 1 1
15 0 2 0.5897 1.3675491363358003 0.07968758105460623 16.255664779039584 0 0 1
5 0 2 0.5897 4.40878880308214 3.6730404682871436 15.732564916971258 0 1 -5
891 0 2 0.5897 6.239708971288491 1.3168692571325116 13.436044610610818 0 1 1
1326 0 2 0.5897 8.910660226913103 1.3450465124385258 12.657196501906448 0 -2 1
331 0 1 -1.1794 11.579660154390293 3.4257791131578776 15.732778867721294 0 1 -3
1325 0 2 0.5897 8.19965996305417 2.125602590720959 13.755678762642487 0 -2 1
1324 0 1 -1.1794 8.123183720966795 1.3633342760699598 13.194586617994986 0 -2 1
1767 0 2 0.5897 8.982895254889511 0.30859503002940225 14.331239321542729 0 0 -1
638 0 2 0.5897 8.35838331830651 3.262509238573471 15.797762397914514 0 -1 1
333 0 2 0.5897 10.690805092665055 3.222951480498822 15.32019761736353 0 1 -3
637 0 1 -1.1794 8.84490124172671 3.442918094569896 14.981611899669529 0 -1 1
299 0 2 0.5897 8.234646099801983 0.24436836883377638 16.3810532201625 0 0 3
2139 0 2 0.5897 11.821153454232403 1.4531925093457296 13.362200096944452 0 1 2
1766 0 2 0.5897 10.201043157661363 0.057410610536024254 15.414142567458693 0 0 -1
332 0 2 0.5897 11.541019943054872 3.2731185623548744 16.67068133311806 0 1 -3
2138 0 2 0.5897 12.12788614787496 2.1510413271994704 14.6526931521147 0 1 2
6 0 2 0.5897 5.694285246298463 4.070481995923149 15.114302362731559 0 1 -5
1076 0 2 0.5897 2.6025449612473723 5.498815813539676 14.622650520246706 0 0 0
429 0 2 0.5897 5.573140279368845 5.315778674632825 13.112372682193206 0 0 0
1075 0 1 -1.1794 2.6162897676266703 6.459842759030813 14.776506329634973 0 0 0
1077 0 2 0.5897 2.634735459408064 6.945819082064583 13.995709316555375 0 0 0
924 0 2 0.5897 4.458667936591841 6.842663396040743 15.679813545110838 0 1 0
564 0 2 0.5897 1.4085308465601154 6.991650472254702 16.30123567512992 0 0 0
427 0 1 -1.1794 6.197619694848657 5.358069581606533 13.831048360842539 0 0 0
428 0 2 0.5897 6.276009760225678 6.3499837175279845 14.014765244586872 0 0 0
922 0 1 -1.1794 4.96994887475887 6.968050941870943 16.44954620657863 0 1 0
923 0 2 0.5897 5.894730821686085 6.839561725112946 16.29632480720752 0 1 0
794 0 2 0.5897 0.7622522736798294 5.24699875223404 12.845914874630909 0 0 1
1085 0 2 0.5897 9.259994233386161 5.090646026983203 12.53450173648814 0 1 -3
2163 0 2 0.5897 11.69848867472023 5.043600417102398 12.713643380906552 0 1 1
1086 0 2 0.5897 7.759448894724774 5.213619580645801 12.866272951976306 0 1 -3