LAMMPS data file via write_data, version 23 Jun 2022, timestep = 15218000

2268 atoms
2 atom types

0.6279522698469542 46.822746730144935 xlo xhi
0 20.047001 ylo yhi
0 20.857 zlo zhi

Masses

1 1.008
2 15.999

Atoms # full

1024 0 1 -1.1794 4.136374583959778 0.6639958692476354 1.0996618760619632 0 0 2
1026 0 2 0.5897 4.499752703204545 1.5180310119519353 0.7088465902415018 0 0 2
514 0 1 -1.1794 2.3549217158139903 0.6367632336796369 3.17333272140882 0 0 0
516 0 2 0.5897 3.0717222077190267 0.8899554472183785 2.5662460187060834 0 0 0
2088 0 2 0.5897 5.250966064994455 0.43626665007965026 2.2809847980964264 0 0 3
574 0 1 -1.1794 4.286409874592694 3.496079777404311 0.9690765543039527 0 1 0
2087 0 2 0.5897 6.029331614473573 0.793402198815815 3.6078095933742556 0 0 3
576 0 2 0.5897 5.004850279521198 3.7892913690154253 1.5812670308277343 0 1 0
1811 0 2 0.5897 6.276041739309032 3.534497823829447 3.8251036628219395 0 -1 -1
575 0 2 0.5897 3.4716449070680437 3.502097829767795 1.5132838547304166 0 1 0
2086 0 1 -1.1794 5.905436261756318 0.1716683940966783 2.9185456861774286 0 0 3
8 0 2 0.5897 1.3062350391162334 2.1645378247767546 0.2821036410092014 0 -1 0
1282 0 1 -1.1794 1.520793414419845 3.6153749183007804 1.4472067496997358 0 0 0
1810 0 1 -1.1794 6.365816553757215 3.998940255054392 2.94792898445307 0 -1 -1
1283 0 2 0.5897 0.8921218387320591 3.803379812274725 2.154157095355542 0 0 0
246 0 2 0.5897 0.6625958699515707 0.6363405211478226 2.653734680750009 1 1 0
585 0 2 0.5897 6.997886774665391 2.8730837332873564 1.3127521702895473 0 -1 1
877 0 1 -1.1794 9.384321081391944 0.5899464045759173 1.299724681177747 0 0 2
583 0 1 -1.1794 7.54812840008211 2.7461335202970143 0.5435629522804637 0 -1 1
879 0 2 0.5897 8.626578373301182 1.1677005207106441 1.0827465724593237 0 0 2
175 0 1 -1.1794 10.530350819056562 1.492003463257901 3.526522559025698 0 2 0
176 0 2 0.5897 10.29315071275719 1.177748195953433 2.619263469422819 0 2 0
636 0 2 0.5897 9.65200284248294 3.6654627260141988 3.5280768996891463 0 2 2
177 0 2 0.5897 11.437878026216701 1.8425147567166604 3.5685418337988426 0 2 0
330 0 2 0.5897 12.001655534341461 3.8345118592031033 1.1698909586519646 0 -3 0
1895 0 2 0.5897 11.40993300295539 1.8487827524617475 0.1004553895301611 0 1 1
1894 0 1 -1.1794 12.043639850727034 2.175422833025904 0.7186766491477313 0 1 1
814 0 1 -1.1794 2.326834743629794 7.429210466785633 2.6556928167577483 0 -1 1
815 0 2 0.5897 2.8389380288084407 7.367957639777019 1.8488258492731764 0 -1 1
1284 0 2 0.5897 1.2574960962513788 4.342887973896169 0.8417536596420939 0 0 0
1578 0 2 0.5897 2.683034573182291 6.054847697795779 4.051245374797842 0 1 0
1285 0 1 -1.1794 4.614436074494931 7.570393485827283 1.1122029379791156 0 1 1
254 0 2 0.5897 6.237995916438784 6.910248493598785 2.1258537110362057 0 -1 1
1287 0 2 0.5897 4.484077495663405 7.065253864143721 0.2998486470326643 0 1 1
392 0 2 0.5897 8.761600766846723 4.24783148930756 1.1032521474103265 0 -2 0
253 0 1 -1.1794 6.825705810563318 6.733211444252559 2.8648377352193095 0 -1 1
1812 0 2 0.5897 6.470139457075602 4.931546250014258 3.1906560660775005 0 -1 -1
328 0 1 -1.1794 12.017379643593069 4.766097384823077 1.3095240511557158 0 -3 0
255 0 2 0.5897 7.711483638599069 7.095639182709979 2.635598415923156 0 -1 1
329 0 2 0.5897 11.074958078803318 5.028245188381923 1.3267544765428272 0 -3 0
393 0 2 0.5897 9.109258926710812 5.444738220450684 1.7637828550843022 0 -2 0
391 0 1 -1.1794 9.35524158117376 4.9916860500260505 0.9720963552826221 0 -2 0
2097 0 2 0.5897 10.08948111588562 7.634949334795346 1.5938411808512738 0 1 2
2096 0 2 0.5897 10.140240938122885 7.2971345062247295 3.0894044152588545 0 1 2
634 0 1 -1.1794 9.539182144976234 4.54168965241989 3.8697552913196764 0 2 2
2095 0 1 -1.1794 9.563553129113778 7.555370315988716 2.384584838998155 0 1 2
1786 0 1 -1.1794 10.537432593333333 7.706010073764071 0.005886949530972416 0 1 2
635 0 2 0.5897 10.442970586873042 4.897980830432507 3.6946587469549907 0 2 3
901 0 1 -1.1794 11.365634332453817 6.5170756755421 4.100697620409792 0 0 -1
816 0 2 0.5897 2.699319996633377 8.123954959639592 3.3052690679938115 0 -1 1
1286 0 2 0.5897 4.637458293254793 8.542074812352423 0.8041808280991762 0 1 1
1319 0 2 0.5897 2.1622250885116765 10.200044477196709 1.8259652034341913 0 0 1
1318 0 1 -1.1794 1.3017020922538851 10.440459354454012 1.4561848085228877 0 0 1
1900 0 1 -1.1794 4.093226924290381 10.269655330688229 1.4329346869490711 0 1 3
1902 0 2 0.5897 4.791487025166777 10.45468428398923 2.072159799612667 0 1 3
1901 0 2 0.5897 4.330829021227714 10.809448663834507 0.6696662735229373 0 1 3
2262 0 2 0.5897 0.9013842299602092 11.549801344733213 0.14336368244429973 1 0 1
1552 0 1 -1.1794 6.228906217978741 10.46294766725457 3.416005829955252 0 1 1
1553 0 2 0.5897 6.136311182284168 9.78702826925776 4.1238208546090025 0 1 1
1320 0 2 0.5897 0.6535985374583719 10.550081588732516 2.195177214771011 0 1 1
1098 0 2 0.5897 0.9827361536258935 9.05203377161746 0.5357085436118384 0 -1 0
1096 0 1 -1.1794 0.7312320949003285 8.304458274495905 0.025437378323513116 0 -1 0
1554 0 2 0.5897 7.10481155784028 10.288122904512642 3.1078701394567587 0 1 1
624 0 2 0.5897 9.149837956937183 9.282491442995262 3.0436548331795805 0 -1 1
623 0 2 0.5897 9.106273839510365 10.684562055554435 3.723599916690572 0 -1 1
622 0 1 -1.1794 8.834673344489087 10.189978379228544 2.9786162815640242 0 -1 1
51 0 2 0.5897 7.631156909947947 9.8097876901579 0.9200346469924128 0 1 3
762 0 2 0.5897 11.875225191439439 9.762081189060313 3.227475801802955 0 0 0
534 0 2 0.5897 9.781707749546275 11.71263298551725 1.162894691005979 0 0 1
532 0 1 -1.1794 10.25804756264904 11.772612733307247 0.33875264130821636 0 0 1
533 0 2 0.5897 10.349525902006135 10.853799157434281 0.02311886184919176 0 0 1
1078 0 1 -1.1794 2.0568845393338835 13.53570554145754 2.704836905659169 0 0 0
1079 0 2 0.5897 2.737101135546108 13.735771705157937 2.034733491178548 0 0 0
632 0 2 0.5897 4.851152078076341 14.07339177172631 2.0699946337770054 0 -1 0
631 0 1 -1.1794 4.3288972701603115 14.303905324564074 1.2959561403013018 0 -1 0
633 0 2 0.5897 4.468268693043088 13.58290078887562 0.6697556937865556 0 -1 0
1080 0 2 0.5897 1.1703580057168526 13.816396979487028 2.3151152425076025 0 0 0
1331 0 2 0.5897 6.207057116733489 12.757752215542379 3.7802321648259234 0 -1 1
1330 0 1 -1.1794 6.226711985762191 13.528672569907346 3.198573943164643 0 -1 1
32 0 2 0.5897 2.6066192933855126 12.258758897765672 3.6901659083927876 0 -1 0
1323 0 2 0.5897 2.763364642601607 15.047904640060967 3.84434036924633 0 -1 0
2145 0 2 0.5897 0.9401177540973312 15.561638069263953 0.5210840704017636 0 1 1
1909 0 1 -1.1794 10.867850209157377 14.504766381868293 0.6689702368077216 0 0 1
1332 0 2 0.5897 7.018168257800784 13.34713410305448 2.6670798366075483 0 -1 1
270 0 2 0.5897 9.083645667612796 13.91053172044325 1.1993962323275456 0 -2 1
268 0 1 -1.1794 8.182177235596642 13.638340478211704 1.2543624739256334 0 -2 1
269 0 2 0.5897 7.951264882571089 13.010613791715016 0.5021287622292065 0 -2 1
828 0 2 0.5897 7.558319762350518 15.082624545607803 0.3734661616593346 0 1 -1
1911 0 2 0.5897 11.23565779553413 14.077397931990838 1.4616162209812231 0 0 1
1025 0 2 0.5897 4.269674743696202 20.029939337402883 0.3997885648685438 0 -1 2
348 0 2 0.5897 4.5311403067686395 16.169446016189735 1.0831583260724884 0 -2 2
515 0 2 0.5897 2.532808896951849 19.81245938321669 3.5291719420296928 0 -2 0
540 0 2 0.5897 1.36271382572843 17.89715037306817 0.45755583050082316 0 0 0
539 0 2 0.5897 2.537858985238074 17.24340562013265 1.1457290375081786 0 0 0
346 0 1 -1.1794 4.522112149680346 17.092059793155254 1.2507883090666425 0 -2 3
347 0 2 0.5897 5.165387585622631 17.15315403360251 2.0100336135486936 0 -2 2
538 0 1 -1.1794 1.5780006093998482 17.265005662687877 1.1408407919963037 0 0 0
598 0 1 -1.1794 6.159130219460843 17.4273154302913 3.3828702639602346 0 -1 1
599 0 2 0.5897 6.008249209728794 18.404882191467767 3.548493371482653 0 -1 1
878 0 2 0.5897 9.00597513299529 19.779181389673344 1.490964592959427 0 -1 2
1589 0 2 0.5897 7.049522003935964 18.827271602684206 1.7819242990614794 0 -1 -1
1588 0 1 -1.1794 7.524267882149617 18.49546422730194 1.029953243007445 0 -1 -1
1668 0 2 0.5897 7.992861839922266 17.115447040555576 3.2465258078704733 0 0 1
1666 0 1 -1.1794 8.91237092127564 16.92674578449707 3.4542270238007213 0 0 1
1667 0 2 0.5897 9.323789921992132 17.10968446690487 2.572323120597834 0 0 1
522 0 2 0.5897 11.664983886157895 18.39525701913734 1.6480582547886138 0 -2 0
520 0 1 -1.1794 11.15051662515643 17.589934750050364 1.5545989519357093 0 -2 0
827 0 2 0.5897 7.368311061593906 16.52991410214974 0.23643252056963704 0 1 -1
1590 0 2 0.5897 7.268518777644443 18.965503322407447 0.1935334599288472 0 -1 0
521 0 2 0.5897 10.756676421383634 17.564165942182292 0.696889997778033 0 -2 0
602 0 2 0.5897 12.012965026822117 16.32125746125434 2.64891673112758 0 -2 2
1107 0 2 0.5897 2.6686253399243713 1.9003354103527905 4.284703920540039 0 0 0
1106 0 2 0.5897 2.6397070966881953 3.4937808434011495 4.682273857767019 0 0 0
1105 0 1 -1.1794 2.745563290635914 2.55156356269703 5.069230936883523 0 0 0
1295 0 2 0.5897 4.94372638498258 2.0723448705205234 5.217555780079194 0 1 1
1294 0 1 -1.1794 5.822186630740437 2.021576957907183 4.864569192115913 0 1 1
1116 0 2 0.5897 1.7363579416440018 2.109985146009955 6.099210816693797 0 1 -1
29 0 2 0.5897 4.033956685000731 2.738140733179818 7.663818203941037 0 0 0
1082 0 2 0.5897 4.078917272650474 0.09761443710016642 7.0678200807045535 0 -1 1
28 0 1 -1.1794 3.961467136126119 3.546735043684069 8.127744652977976 0 0 0
795 0 2 0.5897 0.8487296367004321 3.0068451650551595 8.107942573075373 0 0 1
1115 0 2 0.5897 1.0048810708621667 0.9040238207482592 6.840777273644781 0 1 -1
1296 0 2 0.5897 6.3966344807082 1.930211716942133 5.652562574634387 0 1 1
1081 0 1 -1.1794 4.182737455427777 0.9075189811524192 7.538463632361287 0 -1 1
1083 0 2 0.5897 4.72345477619156 0.8212517564356562 8.341524126195429 0 -1 1
1114 0 1 -1.1794 1.0924592065122836 1.8419874633125264 6.828828717766047 0 1 -1
2073 0 2 0.5897 10.313054523142842 2.508171758420162 5.128949916794895 0 3 -1
2071 0 1 -1.1794 10.28704509728829 2.7900106000720672 6.073390259247425 0 3 -1
1538 0 2 0.5897 7.728656865411027 0.7753214815267291 6.970782004247785 0 -2 1
1537 0 1 -1.1794 7.750606792514094 1.7520677279437256 6.838625194865514 0 -2 1
1539 0 2 0.5897 7.593927702660065 2.0563737664447808 7.719167520202019 0 -2 1
2072 0 2 0.5897 9.464431043325542 2.4881509208646255 6.431266870914883 0 4 -1
1050 0 2 0.5897 11.777272121055788 2.0691647787360785 6.69577089876449 0 1 -1
1576 0 1 -1.1794 2.884957206473804 5.408106262284859 4.7634259619724455 0 1 0
1017 0 2 0.5897 0.8694065183843045 7.590334666325819 6.821238375670352 0 0 0
1577 0 2 0.5897 3.7543512081102675 5.719786182475298 5.156770050558599 0 1 0
648 0 2 0.5897 4.809302980945375 4.809121369465891 6.856741920848278 0 0 1
1551 0 2 0.5897 1.615084680970894 5.714884037339811 6.067991417011768 0 1 0
646 0 1 -1.1794 5.056550430114562 5.525969310614328 6.292272127436117 0 0 1
1827 0 2 0.5897 4.518892452445872 7.006140458845762 7.2200804829128415 0 1 0
1825 0 1 -1.1794 4.434501718018322 7.659271533941465 7.938356076235547 0 1 0
1550 0 2 0.5897 1.3511339198131065 4.979562873201892 7.316674071569546 0 1 1
647 0 2 0.5897 5.9447746650047995 5.692932979316713 6.2401695744082355 0 0 2
1549 0 1 -1.1794 1.1142287418320656 5.786809183403069 6.85167120465064 0 1 1
1610 0 2 0.5897 6.4050863256906325 7.571733836271248 4.455132288319953 0 1 0
1065 0 2 0.5897 11.166721953511054 5.801699344701434 7.108076000700338 0 0 0
1064 0 2 0.5897 10.8423935035029 4.576720185826256 6.273735283880205 0 0 0
902 0 2 0.5897 11.352223631262882 6.164988051520338 4.96168646720051 0 0 -1
1337 0 2 0.5897 8.209493946401977 4.729570480702899 5.58225661670908 0 2 -1
1338 0 2 0.5897 7.726352689018587 4.733618636343099 7.064445756795189 0 2 -1
1336 0 1 -1.1794 7.779291735861776 5.227851872279708 6.256847535093669 0 2 -1
39 0 2 0.5897 8.21024270913665 6.865708944466963 7.003048313762025 0 0 0
1063 0 1 -1.1794 11.497880219688112 5.265902528538139 6.410065991873909 0 0 0
37 0 1 -1.1794 8.141994642541416 7.837166213752497 7.038886927694502 0 0 0
862 0 1 -1.1794 11.133514249427197 7.813454714944211 8.084654637036401 0 1 0
38 0 2 0.5897 7.290106666196776 7.9798652927999845 6.620421546783457 0 0 0
864 0 2 0.5897 12.02912262590174 7.669930891402307 7.6833608384236 0 1 0
1015 0 1 -1.1794 1.122811261436271 8.468601240275405 6.539796274153899 0 0 0
1575 0 2 0.5897 1.2728921455740574 9.674699175505229 7.882294625586923 0 1 0
1893 0 2 0.5897 3.106609885317016 9.80919604170588 4.617462991769353 0 0 1
1826 0 2 0.5897 4.252478660679916 8.510851296362409 7.502046750489645 0 1 0
1891 0 1 -1.1794 3.3738064236761267 8.917141836407303 4.909399512600569 0 0 1
1611 0 2 0.5897 5.213369092797387 8.026977367620637 5.335965322254545 0 1 0
1609 0 1 -1.1794 6.174132921390649 8.019002598435042 5.2566246952338815 0 1 0
1892 0 2 0.5897 2.616230217173695 8.702761459774846 5.512213075684637 0 0 1
1014 0 2 0.5897 4.5913679406227565 11.024279395000473 7.746356494733266 0 -2 1
31 0 1 -1.1794 2.755747092836995 11.512130730834665 4.381540914524371 0 -1 0
3 0 2 0.5897 4.07769965947933 11.838071451230315 5.571197904737889 0 1 0
33 0 2 0.5897 2.2599710875043906 11.83511490691086 5.148657903081905 0 -1 1
1305 0 2 0.5897 0.9018666738574995 11.644211631704572 7.076867601841344 0 0 -1
760 0 1 -1.1794 12.168494111342337 9.69495957052968 4.182759762304726 0 0 0
761 0 2 0.5897 11.37757975097218 9.47703342461211 4.777635645899856 0 0 0
863 0 2 0.5897 10.62934487526132 8.32623003031566 7.467489817517574 0 1 0
545 0 2 0.5897 9.393382295634922 8.837177221799557 6.1219781989551985 0 -1 3
544 0 1 -1.1794 10.085112131551606 9.49771527159861 5.947343927455816 0 -2 3
546 0 2 0.5897 9.614570593216015 10.29731927079991 5.763162845386943 0 -2 3
138 0 2 0.5897 7.8326543595665825 10.51403007487644 7.807417844513618 0 1 -1
1904 0 2 0.5897 6.47497436241873 11.491314483120409 6.150577325739907 0 0 1
1903 0 1 -1.1794 7.359773195338288 10.975176027400643 6.3411192728668135 0 0 1
1905 0 2 0.5897 8.05613585402969 11.52333841463967 5.991289948840102 0 0 1
1777 0 1 -1.1794 9.681391206610522 11.98512576719993 4.770660703429345 0 -2 1
1 0 1 -1.1794 4.801809872888242 12.169781916657096 6.086157951544957 0 1 0
641 0 2 0.5897 6.309571263095202 14.788986677929321 4.6626228065313935 0 0 0
1768 0 1 -1.1794 1.29830174475136 15.302484587787362 6.6208184032963455 0 1 1
1322 0 2 0.5897 4.111333569449714 15.44965803066449 4.603080363596251 0 0 0
2 0 2 0.5897 4.698584933931279 13.112516644129537 6.201548283503795 0 1 0
1769 0 2 0.5897 2.075826698621448 15.299891522847595 6.084559463627476 0 1 1
640 0 1 -1.1794 5.794386162346186 15.421151648461493 5.216565747609768 0 0 0
548 0 2 0.5897 4.459858332070809 15.44774885526195 7.678429787192164 0 -1 -1
1321 0 1 -1.1794 3.1287699092966137 15.616599178072029 4.530989731835139 0 0 0
642 0 2 0.5897 6.084736405496125 15.371761884760048 6.119971175287543 0 0 0
547 0 1 -1.1794 4.699662832614136 14.53389352813357 7.4695830191881605 0 -1 -1
1303 0 1 -1.1794 1.0073366397126207 12.284489057087432 6.343044490029776 0 0 -1
1770 0 2 0.5897 1.088729550599488 14.361858386582107 6.66489194410187 0 1 1
1778 0 2 0.5897 10.606876029797945 12.06205827631965 4.810627284275125 0 -2 1
1779 0 2 0.5897 9.377612898721441 12.91664340096058 4.6097718976908055 0 -2 1
561 0 2 0.5897 8.945840416640973 15.282602449716661 4.2840396187233925 0 0 1
1274 0 2 0.5897 11.733582827211125 13.62641142747857 6.0837454236011945 0 1 1
1865 0 2 0.5897 8.096576757402474 14.301734655534956 7.9913684437670565 0 -1 0
560 0 2 0.5897 8.672071300506442 14.742671399283438 5.733530074438517 0 0 1
1864 0 1 -1.1794 7.856980031732679 14.852798137891568 7.243319996596739 0 -1 0
559 0 1 -1.1794 9.114597549417342 14.522609790306204 4.886223269531499 0 0 1
1866 0 2 0.5897 7.6748265017393535 15.72858043751446 7.682080710458981 0 -1 0
589 0 1 -1.1794 11.361706649431087 14.301058301066174 7.7698783350508265 0 -3 0
590 0 2 0.5897 11.291238272390272 13.38941466386658 8.114993243995574 0 -3 0
1273 0 1 -1.1794 12.125218564970304 13.045306906978805 5.41624031497626 0 1 1
1804 0 1 -1.1794 0.8412664312820173 19.104135476323997 6.157368409138153 0 -1 0
600 0 2 0.5897 6.01389604377757 16.91011666487442 4.236677631247574 0 -1 1
2157 0 2 0.5897 1.2219542381655137 16.522607911503904 7.677964499539183 0 -1 0
1580 0 2 0.5897 2.7207512990884144 17.242466245900793 4.172717051672964 0 0 0
1579 0 1 -1.1794 2.72811761134786 18.1799566107411 4.341880811806571 0 0 0
1581 0 2 0.5897 2.104255096023379 18.414027173188998 5.02314342439454 0 0 0
2136 0 2 0.5897 4.042764978158851 18.524569915989925 5.451282377663618 0 -2 0
2134 0 1 -1.1794 4.6323739329970435 18.682746754463853 6.201251751929477 0 -2 0
2135 0 2 0.5897 4.27500147834774 18.08228225894673 6.894315890430145 0 -2 0
1805 0 2 0.5897 0.9465436868586308 18.450554812556202 6.9251297550556385 0 -1 0
1309 0 1 -1.1794 4.097071143600244 16.993914881033124 8.321869207051982 0 0 1
2155 0 1 -1.1794 1.3598141654278983 17.26887814105227 8.269177635758323 0 -1 0
780 0 2 0.5897 11.837870257896476 18.799084219434334 5.436739890400567 0 -1 2
1514 0 2 0.5897 9.960954255656523 20.004749875733047 4.464350155174674 0 1 2
1850 0 2 0.5897 6.404456501883759 18.94362772655555 6.12331305517289 0 0 -4
2076 0 2 0.5897 11.452090234471264 16.039152585498954 6.182606920343683 0 1 0
1515 0 2 0.5897 9.443360712473334 18.575921238871473 4.207711028259676 0 1 2
786 0 2 0.5897 9.827746228222498 19.183502955511134 6.557195167525671 0 -2 -1
1513 0 1 -1.1794 9.323596944327257 19.346466009403816 4.798440319330576 0 1 2
1849 0 1 -1.1794 7.300044329488998 19.28468819506943 6.295045842896431 0 0 -4
1851 0 2 0.5897 7.787349469258092 19.193601142131286 5.505722228791074 0 0 -4
332 0 2 0.5897 7.5342381232300735 17.946753202320142 7.655890453412819 0 0 -1
784 0 1 -1.1794 10.203958069600706 19.271568929463285 7.4741831005086805 0 -2 -1
785 0 2 0.5897 10.4998895352927 18.456059621033674 7.861133039421266 0 -2 -1
331 0 1 -1.1794 7.741464556273233 17.291982488575847 8.342637078596123 0 0 -1
2074 0 1 -1.1794 11.96713324316795 16.782460096601255 5.812605175264419 0 1 0
30 0 2 0.5897 3.161730532360543 3.455499193527798 8.645881057002406 0 0 0
2078 0 2 0.5897 2.7010055914736086 0.6813758801139023 8.527849084112113 0 0 1
2066 0 2 0.5897 2.517506571985362 1.6376706234918674 10.699291235808055 0 0 -1
2065 0 1 -1.1794 2.829916381217374 2.00714499338974 11.537623429447278 0 0 -1
2067 0 2 0.5897 3.7570821890151267 2.0295495746506647 11.558809793983231 0 0 -1
427 0 1 -1.1794 5.497827843629271 1.9860593261079733 11.764208020157369 0 0 0
428 0 2 0.5897 5.485475523251435 2.899131552391019 11.382106886691707 0 0 0
1392 0 2 0.5897 5.731331865521718 0.8459750847574795 10.501059524581587 0 0 0
2079 0 2 0.5897 1.408525248088193 0.33412047629035546 9.402841651126668 0 0 1
793 0 1 -1.1794 1.1831498906231976 3.5950130722509 8.858253933522999 0 0 1
2077 0 1 -1.1794 2.4092063769929632 0.3944956806389349 9.440692584050355 0 0 1
1390 0 1 -1.1794 6.05687134489087 0.340367698832806 9.75842779670737 0 0 0
1076 0 2 0.5897 2.447130353757128 3.8390049868688263 11.553994144464642 0 0 0
429 0 2 0.5897 6.2751511868972845 1.9491506102681144 12.324736741635187 0 0 0
1350 0 2 0.5897 9.218441292576456 1.8477174858794443 9.49473124459806 0 2 3
1391 0 2 0.5897 7.020502591741834 0.5430881430313567 9.655955371038566 0 0 0
1348 0 1 -1.1794 8.926262624536733 0.9367434268419108 9.331201989356941 0 2 3
1349 0 2 0.5897 9.261168740333495 0.6244687815771324 8.44930502547543 0 2 3
1567 0 1 -1.1794 9.154595683850793 2.961792169977218 11.371776482262868 0 1 -1
1569 0 2 0.5897 10.088248391701768 3.1867327353272277 11.519371661308785 0 1 -1
531 0 2 0.5897 10.492638947885423 0.058036773057325054 11.753166468192617 0 2 1
1568 0 2 0.5897 8.732621168430079 3.816176573934478 11.350858199412913 0 1 -1
858 0 2 0.5897 12.093655590461504 3.8999751047371847 11.192398736695583 0 1 1
1059 0 2 0.5897 5.001195112516 4.2590571766092955 9.443911482928394 0 -1 0
1057 0 1 -1.1794 5.7247676386910245 4.405830311791905 10.092043267743911 0 -1 0
1784 0 2 0.5897 2.7041423034942818 7.232907289550467 8.949077679662333 1 1 -1
1056 0 2 0.5897 5.899439669162943 7.518934918886416 9.075774860521369 0 -1 2
1075 0 1 -1.1794 2.5145755419795095 4.818489210788431 11.530079630999214 0 0 0
1077 0 2 0.5897 2.2899224481437557 5.126876374272393 10.624499516529976 0 0 0
1783 0 1 -1.1794 2.1904680471096762 7.019596065170802 9.746549984160945 0 1 -1
1054 0 1 -1.1794 6.130149466729108 7.285954337014875 9.975691027207864 0 -1 2
1058 0 2 0.5897 5.6665872148214556 5.362490597954335 10.182814572993614 0 -1 0
1605 0 2 0.5897 4.019167825462676 5.184240789222839 12.12191775023836 0 1 1
1785 0 2 0.5897 2.583120836248713 7.5109992493129685 10.458887254119745 0 1 -1
1604 0 2 0.5897 5.5144772144634375 5.265845765304079 12.475751558129677 0 1 1
1254 0 2 0.5897 0.6972384955338395 7.022338820634753 10.101128754172693 1 0 0
556 0 1 -1.1794 8.105837119894504 4.085701898187863 8.583913220990386 0 3 0
557 0 2 0.5897 7.366239672408262 4.199433570682178 9.218389292153008 0 3 0
146 0 2 0.5897 10.563230487819505 6.698456847938397 9.136572717785057 0 0 1
1055 0 2 0.5897 7.070667861812502 7.374638648559556 10.054743805084085 0 -1 2
558 0 2 0.5897 8.745921188769106 4.6251024519836 8.98119641516741 0 3 0
856 0 1 -1.1794 11.349365950302788 4.505564911447965 11.38520135663757 0 1 1
147 0 2 0.5897 10.657062242239409 5.639233205686779 10.215351679575074 0 0 1
145 0 1 -1.1794 10.027534520109091 6.138812964429147 9.7120694772614 0 0 1
134 0 2 0.5897 9.21950079707875 7.0862176778425985 10.769917993925592 0 1 2
133 0 1 -1.1794 8.489718926534959 7.641551775097704 11.159381513461035 0 1 2
1380 0 2 0.5897 7.762120233293427 5.906979692759108 11.601519236300598 0 2 -2
857 0 2 0.5897 11.332117319666173 4.604058194209602 12.367897320357761 0 1 1
1616 0 2 0.5897 11.535771565791148 7.865988832213835 10.67610622886767 0 -3 1
1378 0 1 -1.1794 7.446867873377574 5.119461072188701 12.071460319978517 0 2 -2
68 0 2 0.5897 11.161594622631721 6.558758274261433 12.512004716910008 0 1 -1
1389 0 2 0.5897 5.717026861877838 8.12412824619253 12.071181428261827 0 2 1
1012 0 1 -1.1794 4.048909358282254 10.593189245886702 8.420090812807238 0 -2 1
1573 0 1 -1.1794 1.3137228972280006 10.507053919293496 8.416713379911098 0 1 0
1574 0 2 0.5897 2.264201466313724 10.800089455836 8.413823993477932 0 1 0
1013 0 2 0.5897 4.618179446068381 10.350353786522277 9.149985718561327 1 -2 1
880 0 1 -1.1794 2.845447161012992 8.855799359437233 11.786100914335984 0 0 0
821 0 2 0.5897 2.796346079841597 10.95398202491264 11.16824763769639 0 0 0
882 0 2 0.5897 3.6876837378072045 8.849333598327831 12.280599604722513 0 0 0
1619 0 2 0.5897 6.15414489029412 10.064798297899568 11.073078345996352 0 0 0
820 0 1 -1.1794 3.1406592405263765 11.811775659372845 11.54079440832179 0 0 0
1618 0 1 -1.1794 6.324604753011662 10.869872125778318 10.549979085307545 0 0 0
881 0 2 0.5897 2.1072340711063595 8.513968601523787 12.301035213216908 0 0 0
1387 0 1 -1.1794 5.49047016096652 8.981667642916316 12.383088662619835 0 2 1
822 0 2 0.5897 2.5119325938234667 12.000486405208413 12.237484415907964 0 0 0
137 0 2 0.5897 8.364713675186877 9.377571357272997 8.638032001657525 0 0 -1
136 0 1 -1.1794 8.2559098344696 10.35520903542979 8.707785032568255 0 0 -1
135 0 2 0.5897 8.838205394707522 8.28075668439777 11.736102444894307 0 1 2
2191 0 1 -1.1794 11.671126906569217 11.879469091274583 12.062826844729452 0 1 0
1617 0 2 0.5897 10.997930539775911 8.740788181577368 11.886975248981596 0 -3 1
165 0 2 0.5897 10.144488483309228 11.342283532124538 8.865863826617364 0 1 0
1620 0 2 0.5897 6.907952696058339 10.618536607314597 9.782600726385445 0 0 0
164 0 2 0.5897 11.049222827938518 11.719678013442355 10.021548619902 0 1 0
163 0 1 -1.1794 11.065977298210449 11.504467107385063 9.085417495033681 0 1 0
1037 0 2 0.5897 7.532920092853175 11.433891163161336 11.513435426554247 0 0 -2
1036 0 1 -1.1794 8.247713409903282 11.989023882640065 11.940880562084779 0 0 -2
1615 0 1 -1.1794 11.645357930598962 8.10068426384402 11.612096165929952 0 -3 1
549 0 2 0.5897 5.027313240841084 14.255837410772731 8.366792981427079 0 -1 -1
861 0 2 0.5897 3.0826270935674693 13.825139159745484 8.641593571028809 0 1 0
860 0 2 0.5897 2.819953785650777 13.062964154580012 9.89838437846709 0 1 0
859 0 1 -1.1794 2.5049884330651757 13.799426838933073 9.393629415629428 0 1 0
1340 0 2 0.5897 2.452360890770871 15.02463517058017 10.662067060319067 0 -1 2
2043 0 2 0.5897 5.3731199289957665 14.832085996648944 11.589116686138444 0 1 0
2041 0 1 -1.1794 5.207185184994358 15.439806065242145 12.33014787996334 0 1 0
1881 0 2 0.5897 5.74653172136356 12.934351009076503 10.148859822006228 0 1 0
1339 0 1 -1.1794 2.6356311326702735 15.67559663486196 11.325353232697376 0 -1 2
2042 0 2 0.5897 4.277013071414753 15.663626088514631 12.052034043877603 0 1 0
1341 0 2 0.5897 2.005066029438791 15.553902346813627 12.040776598577878 0 -1 2
1879 0 1 -1.1794 5.689118545270078 13.861684786585874 9.9631963944999 0 1 0
1505 0 2 0.5897 0.8252968371857591 14.130694784164435 9.522360662031792 1 0 0
2018 0 2 0.5897 11.542053358785145 15.249478788960495 11.234766093974523 1 0 -1
618 0 2 0.5897 8.749042710623705 13.108932591060123 10.602220014179544 0 -1 0
616 0 1 -1.1794 8.871181503486778 13.555103606376074 9.742720843997724 0 -1 0
617 0 2 0.5897 9.680697554528118 14.00012662095046 9.931604792475287 0 -1 0
1880 0 2 0.5897 6.556184515965158 14.191149298999205 9.832041395986424 0 1 0
2017 0 1 -1.1794 10.885675484427225 14.580490729671627 11.499004184758693 0 0 -1
825 0 2 0.5897 10.35136828883978 15.683136003274189 8.375593268256177 0 0 2
2019 0 2 0.5897 11.319661580608685 13.788768816374118 11.848282392548139 0 0 -1
1310 0 2 0.5897 3.1303028523662593 16.961945769332385 8.558057338516111 0 0 1
1311 0 2 0.5897 4.656851783343939 17.116262618819004 9.125541044478277 0 0 1
1541 0 2 0.5897 2.723921927784487 19.217949727140088 10.447669674385546 0 -1 0
1542 0 2 0.5897 2.803756339490266 17.730869048814007 11.017941548253578 0 -1 0
1540 0 1 -1.1794 2.8126359467613113 18.661818065910857 11.24217989963098 0 -1 0
41 0 2 0.5897 5.9121968594955 16.945768444671586 11.128598016307087 0 2 0
42 0 2 0.5897 5.750709023630295 18.40276114933851 10.671762191066321 0 2 0
40 0 1 -1.1794 5.8135162741292525 17.494484107367768 10.360900111538651 0 2 0
605 0 2 0.5897 4.214501341902203 19.034438430550516 12.492619257433816 0 -1 0
2156 0 2 0.5897 0.668756722821686 17.30038923166844 8.942297762105833 0 -1 0
530 0 2 0.5897 9.677337572903046 19.67783788915682 10.555704022245239 0 1 1
1775 0 2 0.5897 12.025742265808052 19.715685606660717 9.720819854022336 0 -1 0
529 0 1 -1.1794 10.413711930874422 19.379539897525692 11.09344811073709 0 1 0
824 0 2 0.5897 9.327566387382157 16.848274735937057 8.585269453995059 0 0 2
823 0 1 -1.1794 10.183219004180108 16.534162733287022 8.876611049058864 0 0 3
1490 0 2 0.5897 9.190572177758373 16.163977540368695 11.483564497542828 1 0 -1
1489 0 1 -1.1794 9.034273144239231 16.682795348962664 12.224755418047287 1 0 -1
333 0 2 0.5897 7.1200306554943875 17.444917009289185 9.114222147091612 0 0 -1
1010 0 2 0.5897 11.661194167970033 16.83989275183262 9.85050758000356 0 -1 1
1491 0 2 0.5897 9.965440039693851 16.8157626755053 12.459902458636549 1 0 -1
1328 0 2 0.5897 7.967639145015368 18.126755101695736 12.508854890835588 0 -1 0
1011 0 2 0.5897 11.756624406387317 17.77289790391458 11.056540632374832 0 -1 1
1757 0 2 0.5897 0.8007066838679257 0.16067486064201317 16.612517267991326 1 0 0
1346 0 2 0.5897 1.2937348840573584 2.6449148491917285 14.415786462152623 0 1 -1
1347 0 2 0.5897 1.7202539903423437 1.8210138583416975 13.116006987138316 0 1 -1
1845 0 2 0.5897 4.4432232498595265 1.9933374628025016 14.892555517723856 0 1 -1
1843 0 1 -1.1794 4.669368139585959 0.9808703810126369 15.005022933531668 0 1 -1
312 0 2 0.5897 3.5723521554319553 0.422391145304868 16.087819450530834 0 0 -1
313 0 1 -1.1794 3.979641319402264 3.620490940948609 14.739222205752794 0 -1 0
315 0 2 0.5897 3.0639866283833563 3.756229176326259 15.181710928958667 0 -1 0
1844 0 2 0.5897 4.835449094723629 0.568589505943537 14.183864937820289 0 1 -1
782 0 2 0.5897 5.044527701957052 3.884743877276796 16.040311619513346 0 1 -1
310 0 1 -1.1794 2.8020139067543823 0.2362437626441569 16.64913381234051 0 0 -1
272 0 2 0.5897 6.274920057575962 0.6162208316124135 15.71035891760505 0 0 -2
1345 0 1 -1.1794 1.0450349939318184 1.9022722444850535 13.815137138202342 0 1 -1
1398 0 2 0.5897 8.350720755782623 2.043532686131573 12.86302500177821 0 1 0
287 0 2 0.5897 7.85701748279101 2.5704664249969955 14.886737724236248 0 2 -2
1396 0 1 -1.1794 7.60935927971913 1.655902754233501 13.366553443584388 0 1 0
1397 0 2 0.5897 7.5600023761891935 0.7280154248439266 13.145621010411105 0 1 0
846 0 2 0.5897 10.838176917257362 1.745018439640482 14.144331528649632 0 -1 1
844 0 1 -1.1794 10.950095831990588 0.9134401477603766 13.608326916493555 0 -1 1
1020 0 2 0.5897 9.709828948224311 2.57971154638563 16.2444038723432 0 -2 0
1018 0 1 -1.1794 10.565173604568992 2.468044251066888 15.74167869389842 0 -2 0
286 0 1 -1.1794 7.844750952869694 3.211426346544407 15.619302264478199 0 2 -2
288 0 2 0.5897 6.947526332172463 3.342893509495791 16.005578595345465 0 2 -2
1019 0 2 0.5897 11.17807294119349 2.2133488479219885 16.462355268361936 0 -2 0
273 0 2 0.5897 7.8238942598065435 0.36461668216166687 15.760511675618861 0 0 -2
271 0 1 -1.1794 7.032677410473576 0.35882363030804615 16.3160503505461 0 0 -2
845 0 2 0.5897 11.863963393681573 0.6769540386395477 13.691720609608366 0 -1 1
262 0 1 -1.1794 1.6659931788144853 4.075784782771195 15.663009568178921 0 0 0
314 0 2 0.5897 4.193586255834315 4.1571021716519505 13.980211390714977 0 -1 0
564 0 2 0.5897 1.2881525931276143 5.469909222176884 12.893022398867451 0 0 0
1603 0 1 -1.1794 4.688711285707881 5.320739721634497 12.890930999598313 0 1 1
224 0 2 0.5897 2.1925778586547975 7.128879533378322 15.682963330240963 1 0 0