LAMMPS data file via write_data, version 23 Jun 2022, timestep = 0

2268 atoms
2 atom types

0.5827903442084512 46.86790865578908 xlo xhi
0 20.047001 ylo yhi
0 20.857 zlo zhi

Masses

1 1.008
2 15.999

Atoms # full

1580 0 2 0.5897 2.3492501608637943 1.1093156562783282 2.0588692211699042 0 1 0
1273 0 1 -1.1794 2.3377046530539336 2.768879846850787 1.0376281500865647 0 0 1
1581 0 2 0.5897 1.8572817605441398 0.7077510914246045 3.4605778515013097 0 1 0
1579 0 1 -1.1794 2.4815530552526033 0.43172544716157296 2.744007058904474 0 1 0
1491 0 2 0.5897 3.9578693632798987 1.5146221277962546 3.0357372062842813 1 1 0
1489 0 1 -1.1794 4.75955425319146 1.955028064204797 3.3523625533935872 1 1 0
1274 0 2 0.5897 2.8036022503233626 3.5573082116464607 1.4545550716241225 0 0 1
1490 0 2 0.5897 4.439617480659017 2.5825590240541842 4.040987482719233 1 1 0
2115 0 2 0.5897 5.892466871526907 1.6080878940983416 2.0944132859617897 0 2 0
1275 0 2 0.5897 2.6653633163730284 2.6569091706219328 0.1446615510986892 0 0 1
2113 0 1 -1.1794 6.307725519592195 1.1354790686978158 1.3746682563341825 0 2 0
1272 0 2 0.5897 4.993250518899041 0.2973300268243598 0.20306322754154194 0 1 1
1342 0 1 -1.1794 9.516816407730087 1.308571662843649 2.8687480840413135 0 0 1
1344 0 2 0.5897 10.413550951163648 1.2035053757669825 3.223191399108347 0 0 1
1343 0 2 0.5897 9.64469381390764 2.021356797850248 2.2532836962796283 0 0 1
586 0 1 -1.1794 8.86828327876283 2.4317682001041296 0.36445334458118933 0 -1 -1
1577 0 2 0.5897 6.4033335108070855 3.9444716705479177 3.229275390361768 0 1 0
588 0 2 0.5897 8.978689964414404 3.4332458070732628 0.42433849417424047 0 -1 -1
2114 0 2 0.5897 7.187516849700469 1.6042174305718817 1.286786051002108 0 2 0
2088 0 2 0.5897 12.055667907904192 2.808519371791324 3.8759677055816453 0 -1 1
2127 0 2 0.5897 11.53405245610262 1.6486671417466796 0.2425699683830203 0 1 1
2086 0 1 -1.1794 11.75936934081581 3.2874616041389264 3.048191511758344 0 -1 1
1605 0 2 0.5897 3.1055675217551797 6.77612138761782 2.770046395881622 0 0 1
2076 0 2 0.5897 4.359868907278721 5.089361473271751 2.8428676489689186 0 1 0
2074 0 1 -1.1794 3.9607232750824415 5.090509467251213 1.9829685207490895 0 1 0
2075 0 2 0.5897 4.663109319683901 4.91752303735098 1.34459780337844 0 1 0
1387 0 1 -1.1794 5.795925664328807 4.884780453863304 0.18166912218922343 0 2 1
1603 0 1 -1.1794 3.213533455348948 7.585251589672049 3.294048453181153 0 0 1
1604 0 2 0.5897 4.161421287259563 7.695801764076007 3.1560774547036012 0 0 1
847 0 1 -1.1794 5.897048897706333 7.694738350963449 2.6649645977712315 0 1 0
1283 0 2 0.5897 2.689348926756936 5.5716934021025875 0.46450643591508656 0 0 0
1282 0 1 -1.1794 1.9170518922969384 6.106005940967832 0.29020058563728535 0 0 0
1389 0 2 0.5897 6.525280781282898 4.556352520125391 0.6997262591361878 0 2 1
849 0 2 0.5897 6.37944656950622 6.905203314686197 2.955229157936189 0 1 0
1576 0 1 -1.1794 6.552048073605497 4.9142946623322965 3.273459798658213 0 1 0
50 0 2 0.5897 9.099753688284908 5.662456444954971 1.0825364796263284 0 2 1
598 0 1 -1.1794 8.840155469480317 6.4739617213625404 2.5058681496644044 0 -1 0
599 0 2 0.5897 9.56926441611479 6.36319333479221 3.1849990863572035 0 -1 0
600 0 2 0.5897 8.07941512234288 6.118695962456316 2.9541541619857896 0 -1 0
49 0 1 -1.1794 9.44982560924986 5.182064449981184 0.3009258791755687 0 2 1
2078 0 2 0.5897 11.192873739335294 5.351846234316715 0.2800048752890451 0 0 1
350 0 2 0.5897 11.341799959795852 5.347490406048233 3.8038900982975257 0 -1 1
816 0 2 0.5897 2.034602905282344 10.55161686769142 0.6511800886047071 0 -1 1
814 0 1 -1.1794 2.0173013900047616 9.691888915399971 1.1616648878400437 0 -1 1
1767 0 2 0.5897 6.341747475352224 10.721239462683378 3.8072304559871326 0 -1 1
1295 0 2 0.5897 2.9520814447413857 10.215028361988201 2.722591087767861 0 1 1
815 0 2 0.5897 2.7683353166521942 9.182218641539682 0.7475430643912443 0 -1 1
1765 0 1 -1.1794 5.913488556357783 11.496150909415057 3.3700446075332775 0 -1 1
317 0 2 0.5897 4.992979320791809 8.247369706666024 1.1330501822730876 0 0 1
1294 0 1 -1.1794 3.2415020985884206 10.624132186100864 3.5166763221269024 0 1 1
1766 0 2 0.5897 5.0090606722714375 11.243604620770014 3.3163602841328794 0 -1 1
1296 0 2 0.5897 2.749471525634566 11.437287956469687 3.483428357325201 0 1 1
316 0 1 -1.1794 4.562556912439359 8.69883821304853 0.39368707487589766 0 0 1
848 0 2 0.5897 6.481988501804894 8.302321613880245 3.1475884111332255 0 1 0
1544 0 2 0.5897 11.125790701083082 8.293147733727947 0.24188848624381615 0 -1 1
1512 0 2 0.5897 6.743372499390978 11.823668759015353 1.8646808334363123 0 0 0
1510 0 1 -1.1794 7.354572856309756 11.804138881330095 1.0717282965684218 1 0 0
1596 0 2 0.5897 9.234505125330545 9.403307077864522 0.6256499990023278 0 1 0
1595 0 2 0.5897 8.964231789417465 8.073784359790809 1.5386585619693192 0 1 0
1594 0 1 -1.1794 8.592063080585827 8.870317160352558 1.1490439370579166 0 1 0
2021 0 2 0.5897 10.196176470866956 11.311446135032115 2.984818592165541 0 -1 1
2022 0 2 0.5897 8.796163700818909 11.611450658729638 2.2879260687972467 0 -1 1
2020 0 1 -1.1794 9.547074695351053 12.000069158714867 2.7724298304441124 0 -1 1
1511 0 2 0.5897 7.135233860306574 10.918648157656161 0.6764041086249762 1 0 0
1543 0 1 -1.1794 11.576527583210014 8.776287947909854 0.9790615894688326 0 -1 1
1545 0 2 0.5897 11.568801921006536 8.181674668765822 1.7032312069370181 0 -1 1
1056 0 2 0.5897 4.173227285229048 13.586318731989824 0.37278058528792185 0 -1 2
31 0 1 -1.1794 2.4637246876069954 13.415840764372119 2.717899399832945 0 -1 0
33 0 2 0.5897 2.028387998480751 13.486999931599524 3.585907019352708 0 -1 1
32 0 2 0.5897 2.070445747467283 14.088625851674719 2.1001452433357937 0 -1 0
335 0 2 0.5897 4.3758261957505145 14.142286584802392 2.6549313171782054 0 -1 1
334 0 1 -1.1794 5.009022656796145 14.543379160153009 2.0485788969108567 0 -1 1
336 0 2 0.5897 4.7909915200682 15.491167327981167 1.878617840926004 0 -1 1
1078 0 1 -1.1794 1.833972498472608 15.413015627650925 0.9252828756772569 0 0 0
1079 0 2 0.5897 2.342116202698311 15.653866009025553 0.10759863446260304 0 0 0
1320 0 2 0.5897 0.6103112778991063 12.597011142853708 0.5541779226644448 0 1 1
1080 0 2 0.5897 0.9778313801702347 15.790304849349331 0.9286981346764523 0 0 0
612 0 2 0.5897 6.484925821338598 14.379992133340705 2.9297825998853075 0 0 -1
339 0 2 0.5897 10.177428152635711 14.864193035556921 2.0298112475171526 0 -1 -1
610 0 1 -1.1794 7.352491222054201 14.383125059552803 3.4034748133883617 0 0 -1
337 0 1 -1.1794 10.890494658556868 14.205391603336453 2.0536798473227256 0 -1 -1
338 0 2 0.5897 10.385572536526773 13.380459493051019 2.248183802376145 0 -1 -1
1572 0 2 0.5897 8.128452749104643 15.678211399804052 2.3840245968347493 0 -1 1
1570 0 1 -1.1794 8.54476532660714 16.023917491163783 1.562796194446597 0 -1 1
2036 0 2 0.5897 11.771616499535845 14.907037857545436 3.3902643187958312 0 0 1
2154 0 2 0.5897 6.7986166119353895 13.85954470367459 0.5741647242342471 0 0 1
1788 0 2 0.5897 5.466724999006617 18.0868292707133 0.8778127147351364 0 -1 1
1322 0 2 0.5897 2.6822524064675615 18.53041210317485 2.4182756788140263 0 0 0
1323 0 2 0.5897 2.384623137808897 17.048155518313784 1.9809023769432763 0 -1 0
1321 0 1 -1.1794 2.668296004137423 17.55720099484919 2.7346133036670013 0 0 0
1786 0 1 -1.1794 5.624714464002341 17.141090823646156 1.1490372628719092 0 -1 1
2061 0 2 0.5897 4.474207714590857 17.84264232865898 3.7618271083854324 0 0 2
1769 0 2 0.5897 1.1918514169814833 17.005303614203296 4.140435418264505 0 1 1
1061 0 2 0.5897 8.902744982304688 19.766598157161003 2.256373866369301 0 -1 0
1062 0 2 0.5897 7.509460691771223 19.506112836176804 1.6488671678984756 0 -1 0
1787 0 2 0.5897 6.578566166760738 16.927348514028203 1.1165483379635976 0 -1 1
1060 0 1 -1.1794 8.286786951097927 19.067770324024153 1.914971860953333 0 -1 0
547 0 1 -1.1794 10.685942794969852 17.958789558483986 1.2633197244698664 0 -1 -1
549 0 2 0.5897 11.067026158569028 18.584786226575492 1.9126123981154097 0 -1 -1
548 0 2 0.5897 11.275232533949374 17.18899903381738 1.4984541725129408 0 -1 -1
1571 0 2 0.5897 8.94869843922924 16.899244747883674 1.76337972273039 0 -1 1
1628 0 2 0.5897 7.827343770100971 18.260370877682593 3.5604964994379196 0 -2 1
1052 0 2 0.5897 11.650279224814721 19.376099673137933 3.9941342058990847 0 -1 1
1051 0 1 -1.1794 11.53500735738874 19.576278024473144 3.0402236871636243 0 -1 1
788 0 2 0.5897 1.1865540590749624 3.089540563622047 5.087733652086837 1 0 0
2027 0 2 0.5897 4.103727290259922 2.00151007765652 6.680559298562705 0 0 0
2026 0 1 -1.1794 4.966349142179554 1.6135220286518122 6.602265658710264 0 0 0
67 0 1 -1.1794 2.6808300541234136 2.566153697738266 7.537924720224764 0 1 0
1805 0 2 0.5897 0.876509004265245 0.6639136140137438 5.7446552223661325 0 0 0
1086 0 2 0.5897 5.670789294609459 3.6762848873024385 8.048856767029445 0 1 -1
2028 0 2 0.5897 5.377495743596613 2.0458358952227877 5.8358419417420375 0 0 0
69 0 2 0.5897 2.6965149239575523 1.898723179629277 8.201379177825816 0 1 0
68 0 2 0.5897 2.5939103402955577 3.4041515080912093 8.041072886181425 0 1 0
1804 0 1 -1.1794 0.9492170101901403 1.2331314951059598 4.961946756827297 0 0 0
288 0 2 0.5897 7.449675465769818 1.5100087050002495 4.203855789682206 0 0 -1
6 0 2 0.5897 6.447713265883267 1.0209825155561625 7.484756590452527 0 2 0
286 0 1 -1.1794 7.264677689964387 2.078542004354645 4.968920851910861 0 0 -1
287 0 2 0.5897 8.084095769855415 2.6125952101175627 5.022962702928119 0 0 -1
81 0 2 0.5897 10.2346078671876 2.935369082149239 5.515206782979648 0 1 1
4 0 1 -1.1794 7.335164568800617 0.8009323416968567 7.749003072069002 0 2 0
80 0 2 0.5897 9.180796915665443 3.392882572323421 6.643639700415953 0 1 1
315 0 2 0.5897 11.523183539193735 0.944829066422903 5.6016789721785365 0 0 0
313 0 1 -1.1794 11.7375447567509 1.8855926769489602 5.415333049145533 0 0 0
5 0 2 0.5897 7.753379168339426 0.2645594048046987 7.08690304043266 0 2 0
79 0 1 -1.1794 9.473195030123854 3.5331869980167463 5.707372654792704 0 1 1
1551 0 2 0.5897 1.883415369349626 7.610066261359665 4.353455759299729 0 1 0
515 0 2 0.5897 3.09606197700988 4.489827722275781 4.7303638611013605 0 -1 0
514 0 1 -1.1794 4.059852001165735 4.506186673497787 4.780468104394332 0 0 0
516 0 2 0.5897 4.142761581778977 5.084063069550607 5.570820656811979 0 0 0
1059 0 2 0.5897 4.4339114564213205 7.415796762344521 6.246180009728654 0 0 0
1057 0 1 -1.1794 4.791785916531007 6.557669994101014 6.54472110896854 0 0 0
1116 0 2 0.5897 1.7423043304636614 6.275887879252835 6.2393618034962826 0 1 -1
1114 0 1 -1.1794 1.6242475994025798 5.637540133743064 6.983276741344859 0 1 -1
1115 0 2 0.5897 1.3198605055808925 4.878124336078966 6.467494288993755 0 1 -1
1058 0 2 0.5897 4.748208137954709 6.566769990707618 7.552198489273222 0 0 0
1549 0 1 -1.1794 1.2083304061680835 7.4621954722716035 5.011757038620048 0 1 1
787 0 1 -1.1794 1.0727646590414799 4.052563132239457 5.098433874029875 0 0 0
1548 0 2 0.5897 6.425156724053421 6.470572901032348 5.697188671012805 0 -1 0
349 0 1 -1.1794 10.660799313470802 5.797758643295912 4.3523566647172585 0 -1 1
1578 0 2 0.5897 6.7707603781658925 5.0791975780762 4.197235787207649 0 1 0
351 0 2 0.5897 10.13606257405935 5.057271531703962 4.668271360636722 0 -1 1
1546 0 1 -1.1794 7.289940096583058 6.468632682079879 5.262837435743335 0 -1 0
1547 0 2 0.5897 7.93802182495228 6.432248019100467 6.007574807753867 0 -1 0
126 0 2 0.5897 10.838514591697626 7.55455087390686 4.855054738368286 0 1 1
66 0 2 0.5897 10.501932164414368 4.559413822831046 8.163358010774624 0 1 0
2062 0 1 -1.1794 8.317180159190867 6.325367117263353 7.703709579218043 0 0 -1
2064 0 2 0.5897 7.5524924944795275 6.629007468507635 8.248715145342189 0 0 -1
64 0 1 -1.1794 11.369386883555507 4.939644402453766 8.243358294489937 0 1 0
2063 0 2 0.5897 8.616606663588136 5.454005204493715 8.022533356087536 0 0 -1
21 0 2 0.5897 9.65521255975211 7.37035138599042 8.285398452331442 1 0 -1
1550 0 2 0.5897 0.9903667460739343 8.385402461348704 5.3777912670703145 0 1 1
1893 0 2 0.5897 3.6864868265741424 9.836712868642598 5.367561599281774 0 0 1
1891 0 1 -1.1794 4.072527608615777 9.52625609401937 6.158414484222071 0 0 1
1892 0 2 0.5897 5.005618246675738 9.829215087523579 6.197619598855109 0 0 1
1827 0 2 0.5897 3.093244729044556 9.379471973512732 7.6910109867107765 0 1 0
1119 0 2 0.5897 5.049117855200798 11.655392542387675 7.919569069910826 0 1 0
1017 0 2 0.5897 1.075546185468854 10.510288731665641 5.995797840181631 0 0 0
1574 0 2 0.5897 2.6189039780008785 11.97304006046603 7.488393430940862 0 1 0
1573 0 1 -1.1794 1.687484820163479 11.967493229599349 7.1577248167214265 0 1 0
125 0 2 0.5897 11.327768933958673 8.898432714533842 4.216263432615153 0 1 1
1809 0 2 0.5897 7.56125244653885 8.210828714729312 4.941327926243384 0 0 -1
124 0 1 -1.1794 10.774409203058115 8.526879560349574 4.915092798151508 0 1 1
760 0 1 -1.1794 6.770291872093251 10.794844637564728 6.562276466537688 0 0 1
1808 0 2 0.5897 8.584132019842817 9.183613776677722 4.3865684394897 0 0 -1
1807 0 1 -1.1794 7.653981373667148 9.080933170793605 4.523672595240554 0 0 -1
762 0 2 0.5897 7.356713486600162 10.135621762589837 6.091824441443497 0 0 1
1265 0 2 0.5897 9.685370320193906 10.05760526737724 7.8112257954265765 0 0 0
761 0 2 0.5897 7.35015831271859 11.495215159279843 6.987210210401528 0 0 1
1266 0 2 0.5897 10.273196188238405 9.755182848916032 6.400974344016618 0 0 0
1264 0 1 -1.1794 9.949050850039743 10.442422293192259 6.986332038104031 0 0 0
1100 0 2 0.5897 6.585798695100013 9.36087652263497 8.010730110606463 0 1 0
93 0 2 0.5897 10.953735341432838 11.971657704912193 7.511069078356205 0 0 0
887 0 2 0.5897 5.639400623753 12.648145135307058 4.706510754872419 0 1 0
1117 0 1 -1.1794 4.50708202860171 12.433286296877016 7.86242501919659 0 1 0
1118 0 2 0.5897 4.7918632278409135 12.790940802699716 6.971810181987047 0 1 0
886 0 1 -1.1794 5.247448921275155 13.277471782141303 5.345649284729206 0 1 0
888 0 2 0.5897 4.462910285553971 13.724174537007418 5.048209753205992 0 1 0
646 0 1 -1.1794 3.3892268207435623 15.385843523298623 5.3661975935842285 0 -1 0
648 0 2 0.5897 2.5270905211246433 15.367788418341473 4.955951557813785 0 -1 0
2157 0 2 0.5897 2.8548106950112286 15.666709751561081 7.116710045709937 0 -1 0
1305 0 2 0.5897 1.303580108278623 13.348790019100976 5.900098341464469 0 0 -1
1303 0 1 -1.1794 0.9432929703610478 13.861168120814513 5.156452019796326 0 0 -1
1022 0 2 0.5897 6.061373200997697 15.198923847198635 6.421572125255714 0 0 0
2155 0 1 -1.1794 2.4399809323425026 15.766985766927743 7.954803569252823 0 -1 0
1575 0 2 0.5897 1.108790035307321 12.09448172578489 7.97132178990353 0 1 0
2037 0 2 0.5897 11.650969059361348 15.88288523779287 4.491471875084654 0 0 1
611 0 2 0.5897 7.078351836911783 14.672495294032705 4.290358820784416 0 0 -1
1131 0 2 0.5897 9.646465872594106 12.86246585793669 5.259493566972608 0 0 0
1021 0 1 -1.1794 6.765807372406587 15.714303394402704 6.008578246911268 0 0 0
1776 0 2 0.5897 9.428953781340871 15.427301851535393 4.779043544998619 0 0 0
853 0 1 -1.1794 7.969169146227723 12.993406992636505 7.692503258083281 0 0 1
854 0 2 0.5897 8.435393782312039 13.475292932105916 6.982365427116984 0 0 1
1129 0 1 -1.1794 9.100338593547361 13.597746487438075 5.407789069008926 0 0 0
1130 0 2 0.5897 8.518803301499878 13.443989294369018 4.586099328763765 0 0 0
1341 0 2 0.5897 10.843494676961518 14.421757320738497 7.251142126666024 0 0 1
1339 0 1 -1.1794 10.588920231808583 15.351157201495043 7.332693094166064 0 0 1
91 0 1 -1.1794 11.470058059505353 12.811367474793114 7.432929595111529 0 0 0
1340 0 2 0.5897 10.309378690206024 15.692672270329616 6.470205009691138 0 0 1
92 0 2 0.5897 12.137712120079444 12.811914161621225 8.20832761549217 0 0 0
855 0 2 0.5897 7.407849335252083 13.718429209110527 8.005656116468105 0 0 1
797 0 2 0.5897 9.163225680315517 15.922747804380904 8.15305641842844 0 -1 1
1542 0 2 0.5897 4.187025606983983 19.794245365442247 6.761715104554853 0 -1 0
2059 0 1 -1.1794 5.010590189036747 17.792834323156708 4.615970590959597 0 0 2
647 0 2 0.5897 3.944292208197552 16.078385285587085 4.970384136292701 0 -1 1
1541 0 2 0.5897 2.9946707964689314 18.800818339422207 6.6843635318004555 0 -1 0
1540 0 1 -1.1794 3.9533467291307427 18.85034660979019 6.691862046835919 0 -1 0
1400 0 2 0.5897 0.9157140629806281 18.313381024482307 6.148760313827781 0 0 -1
2060 0 2 0.5897 4.492880979039746 18.208999354283165 5.321527870800772 0 0 2
1399 0 1 -1.1794 1.1951050695225844 19.100256464567124 6.698832061482089 0 0 -1
1071 0 2 0.5897 4.943671918658455 17.875356256171184 7.828686415028209 0 0 1
2156 0 2 0.5897 2.5103088826830775 16.639272962471342 8.295941797700873 0 -1 0
1768 0 1 -1.1794 0.5991708129710105 17.016889669013413 4.874617424624818 0 1 1
1774 0 1 -1.1794 9.763644709251185 16.333625986559806 4.903761135711988 0 0 0
1023 0 2 0.5897 6.410237828060531 16.558309251411167 5.857737244494666 0 0 0
1627 0 1 -1.1794 7.6836031023728 18.28863724999504 4.530857336147858 0 -2 1
1775 0 2 0.5897 9.100553390665782 16.807110246642306 4.4692906904048275 0 -1 0
520 0 1 -1.1794 11.737894195038365 19.317774924453833 5.830416464519347 0 -1 0
1629 0 2 0.5897 6.726930646394838 18.363952030841528 4.612673052719056 0 -2 1
521 0 2 0.5897 10.792333290007315 19.110830574099822 6.001738053280496 0 -1 0
1644 0 2 0.5897 8.742490485394537 18.413813566916374 5.905209207609302 0 1 1
1642 0 1 -1.1794 9.242188855238334 18.7381675780653 6.721345630609715 0 1 1
1643 0 2 0.5897 9.373134503365163 18.00921556736556 7.356197851080739 0 1 1
798 0 2 0.5897 7.825805151818664 16.290110129393668 7.6282006860129155 0 -1 1
1568 0 2 0.5897 3.5985622517467637 0.603181956573317 9.871824245898184 0 0 0
1569 0 2 0.5897 2.25613580823509 0.7353111350326237 10.382464308722213 0 0 0
1831 0 1 -1.1794 5.407650986612612 1.3055331955942666 10.300010605014014 0 0 0
1832 0 2 0.5897 6.0376417571168135 0.5669601698132248 10.290960518172467 0 0 0
1833 0 2 0.5897 5.8731286606099955 2.063216021473426 9.934113525628739 0 0 0
311 0 2 0.5897 4.470418723768196 2.0171239960131246 12.087668807845377 0 0 -1
1084 0 1 -1.1794 6.06182535514066 3.9761250594665647 8.92432732452643 0 1 -1
1567 0 1 -1.1794 2.692269123008925 0.48314097808520856 9.535980051946382 0 0 0
1277 0 2 0.5897 1.1739083007657432 2.001151123132185 12.095881682232601 0 0 -1
1276 0 1 -1.1794 1.1444758011047116 1.0938483084726724 11.686292892772517 0 0 -1
1347 0 2 0.5897 1.720510131245846 3.894583985668817 11.88120382636495 0 1 -1
1001 0 2 0.5897 0.9246399030469581 2.9053808094001514 8.431105521076997 1 1 0
1278 0 2 0.5897 1.2533493309505612 0.4050567308289759 12.414847783075365 0 0 -1
1127 0 2 0.5897 9.98229448288869 0.8155921201646739 9.33572315568157 0 1 0
1313 0 2 0.5897 9.268557694189248 3.121387023171306 8.88614637431707 0 0 0
1128 0 2 0.5897 10.986863807326005 1.9521017403074161 8.940229368922436 0 1 0
329 0 2 0.5897 7.644561058002402 0.5802031172885744 11.712523701927601 0 -1 1
1126 0 1 -1.1794 10.140118120310971 1.7545674194216352 9.382051659548885 0 1 0
127 0 1 -1.1794 10.486611253555724 0.040687517704771636 12.308211246432935 0 0 0
1314 0 2 0.5897 7.8894953497812645 3.666940252005321 8.504621142415665 0 0 0
1378 0 1 -1.1794 9.812812758293676 3.4386215022662094 12.063952902705006 0 3 -1
1379 0 2 0.5897 9.920106299752424 2.5235020884164276 11.784018810718878 0 3 -1
1593 0 2 0.5897 11.7700757111954 0.9096331668497551 11.082246699207301 0 1 0
1312 0 1 -1.1794 8.80702157615252 3.8527169397725687 8.463132934445271 0 0 0
1085 0 2 0.5897 5.849678492332189 4.889270446183731 9.079353102871703 0 1 -1
2041 0 1 -1.1794 4.806155144670478 4.265396807092265 11.55993921474103 0 1 0
2067 0 2 0.5897 3.317790330245506 4.054295003159144 10.536586314263072 0 0 -1
2065 0 1 -1.1794 2.3939137140436726 4.120714587469339 10.211506562060555 0 0 -1
793 0 1 -1.1794 5.100851233228758 6.632994915133339 9.311025039299658 0 0 1
795 0 2 0.5897 4.389280352513461 6.746263010484428 9.915984095967852 0 0 1
2066 0 2 0.5897 2.2636787406127263 5.089935906470848 10.059097175376213 0 0 -1
1075 0 1 -1.1794 2.255996580848387 6.931860878843533 10.125166854471146 0 0 0
1076 0 2 0.5897 1.28639969821035 6.8381150688533845 10.052359963389138 0 0 0
2043 0 2 0.5897 5.721279706065389 4.559742616138722 11.268779053452036 0 1 0
794 0 2 0.5897 5.6200811475085475 7.49301889360841 9.267107115473264 0 0 1
1077 0 2 0.5897 2.4839820840413287 7.339296785292181 9.29477136245501 0 0 0
2042 0 2 0.5897 4.822026466036629 4.628254942532625 12.445469500992742 0 1 0
1083 0 2 0.5897 11.115768772084872 5.938724037367566 11.388823322320704 0 -1 1
1082 0 2 0.5897 10.344739939299075 4.693722859662601 10.859692722205034 0 -1 1
1081 0 1 -1.1794 10.505103969531833 5.662181710257104 10.727040571973713 0 -1 1
1563 0 2 0.5897 8.471660953745484 5.664683217794562 10.572774027636884 0 -1 -1
1561 0 1 -1.1794 7.5701502034911705 5.662573383840845 11.00312427595377 0 -1 -1
1562 0 2 0.5897 7.86706305995362 5.469377372308315 11.90486405354836 0 -1 -1
65 0 2 0.5897 11.297720477752438 5.580409670748223 8.957710296624532 0 1 0
881 0 2 0.5897 6.9187330082657015 7.657463860967014 11.284254313713461 0 0 0
20 0 2 0.5897 11.04980449998341 7.714948839854187 8.610933811373052 0 0 -1
1141 0 1 -1.1794 1.0059602933088483 10.462490275099926 12.027168247219324 0 0 0
1826 0 2 0.5897 1.7107761911426103 9.10474303750854 8.458903186215684 0 1 0
1825 0 1 -1.1794 2.6676124198544184 9.030221859440593 8.485193324191613 0 1 0
524 0 2 0.5897 3.022230534889948 8.065328193420749 11.658518873334936 0 0 0
809 0 2 0.5897 2.830899090942799 10.311189547203693 9.426762446602376 0 1 0
808 0 1 -1.1794 2.562691744549886 11.119871083136328 10.001212774014991 0 1 0
810 0 2 0.5897 1.9260526402565634 10.814531028386025 10.633479524733586 0 1 0
26 0 2 0.5897 4.064252749601059 11.257503208180404 11.20929865959613 0 0 0
27 0 2 0.5897 5.569254073620052 11.52323178346138 11.466243634375783 0 0 0
25 0 1 -1.1794 4.746292126673571 11.423287699393251 11.95150280063761 0 0 0
525 0 2 0.5897 4.493016839543692 8.315220292339374 12.21023543298918 0 0 0
880 0 1 -1.1794 6.328445373491289 8.265682473193985 11.724527846610915 0 0 0
1142 0 2 0.5897 0.7946569677715656 9.519086816180382 12.06097579950796 0 0 0
523 0 1 -1.1794 3.5396122799832614 8.13396633273518 12.476512451207654 0 0 0
2112 0 2 0.5897 11.87610315499057 9.866467684864944 8.418546168797485 0 1 0
1099 0 1 -1.1794 6.761247498035258 8.858426581482203 8.829494482905593 0 1 0
882 0 2 0.5897 6.625240842929435 9.177974675126153 11.409674768424468 0 0 0
19 0 1 -1.1794 10.20209356999888 8.103115704515595 8.671245641124967 0 0 -1
840 0 2 0.5897 10.12072621382454 8.307770698732355 10.591657882385714 0 -1 0
838 0 1 -1.1794 10.308788545068957 8.544943453024278 11.517004697510101 0 -1 0
1101 0 2 0.5897 7.096087719821039 9.609999073587165 9.344083719901546 0 1 0
769 0 1 -1.1794 7.373649821096528 10.973672384224555 10.360850019917342 0 -1 0
770 0 2 0.5897 7.882801300916221 11.636598824460936 9.850304014662449 0 -1 0
771 0 2 0.5897 7.6324766407428 11.226334740060604 11.291989476180891 0 -1 0
589 0 1 -1.1794 10.429796909903294 11.531855980589544 11.900731935548137 0 -2 0
591 0 2 0.5897 11.402781165178208 11.600068416252995 11.943245145878944 0 -2 0
839 0 2 0.5897 10.204974537340478 9.509482567798049 11.540186836121544 0 -1 0
2029 0 1 -1.1794 0.8785707281205946 14.340795988804013 11.451273714695779 0 0 0
1505 0 2 0.5897 0.634913814594634 15.706760962953025 8.353280946007306 1 0 0
340 0 1 -1.1794 5.93192794677496 14.729625822594045 8.433130024168202 0 0 1
822 0 2 0.5897 2.7805448749831805 14.703320795330676 9.204418549063837 0 0 0
821 0 2 0.5897 3.163119999283286 13.208771864545257 9.557247625615712 0 0 0
2031 0 2 0.5897 1.601075166997677 14.032964146285755 10.846769689490682 0 0 0
820 0 1 -1.1794 2.997263500173375 14.10571903042189 9.926647284263042 0 0 0
342 0 2 0.5897 5.195539062295519 14.159927983602772 8.625708181965836 0 0 1
261 0 2 0.5897 3.7192505208985973 14.262588377258288 11.607354393949281 0 0 0
341 0 2 0.5897 5.677883169908878 15.605405231435643 8.756682706729775 0 0 1
259 0 1 -1.1794 4.174002908313439 14.541507255335606 12.452196377433628 0 0 0
2030 0 2 0.5897 1.0331049918160986 15.282333016364266 11.531365321652068 0 0 0
590 0 2 0.5897 10.12595997535214 12.133661742950366 11.15253992733924 0 -2 0
1014 0 2 0.5897 9.044658913603994 13.166319534103033 9.116994741332618 0 -2 1
827 0 2 0.5897 10.294885663890616 14.684123797346261 10.05518355632076 0 -1 0
1012 0 1 -1.1794 9.26528966739755 13.071125847878761 10.08468037093996 0 -2 1
2139 0 2 0.5897 6.473766628738206 14.32190217049715 10.54222881928724 0 -1 1
2137 0 1 -1.1794 7.061044776120526 13.791746507807838 11.126859222501288 0 -1 1
1013 0 2 0.5897 8.487970500378824 13.381509569685566 10.625334680869855 1 -2 1
2138 0 2 0.5897 7.032294219085445 14.217198290586989 11.987140635338502 0 -1 1
826 0 1 -1.1794 10.97773981637177 15.22099613341289 10.385372573401861 0 -1 0
777 0 2 0.5897 11.041396097912791 14.767254914100608 12.112040639396673 0 -2 0
828 0 2 0.5897 11.74606941062019 14.617732520830863 10.230515125035105 0 -1 0
1069 0 1 -1.1794 5.655331816871491 17.50533261646945 8.472306198996916 0 0 1
1823 0 2 0.5897 3.726973145900387 17.480314397328367 10.193887515466454 0 0 -1
84 0 2 0.5897 1.8327245844666014 17.204750548363915 11.26351467768605 0 0 0
1822 0 1 -1.1794 2.7943491890311667 17.610100251700995 9.888409970989128 0 0 -1
1824 0 2 0.5897 2.6207096099944143 18.611822883365267 9.846278782639562 0 0 -1
1816 0 1 -1.1794 5.061962209333044 16.917657084613452 11.301150759108664 0 -1 0
1817 0 2 0.5897 6.047669467094428 16.974578386015708 11.163138891363278 0 -1 0
82 0 1 -1.1794 1.1183887221365527 16.896437273553996 11.842258553691318 0 0 0
1818 0 2 0.5897 4.906430860857056 16.056958231601428 11.79862430456931 0 -1 0
14 0 2 0.5897 4.478324148351501 18.35019446096045 12.36570506589518 0 -1 1
128 0 2 0.5897 9.47753029909293 19.99490149503289 12.283387145162331 0 -1 0
1091 0 2 0.5897 7.6540390696859655 20.016433141270657 9.163855118418574 0 -1 0
1090 0 1 -1.1794 7.8161638545885905 19.695552828989975 10.061076824917999 0 -1 0
1070 0 2 0.5897 6.396597930430382 18.113074051470797 8.347410648045779 0 0 1
1092 0 2 0.5897 7.797185644910569 18.744181169778646 10.103229755116878 0 -1 0
796 0 1 -1.1794 8.424695839438433 16.52411567740877 8.367394108302449 0 -1 1
1861 0 1 -1.1794 7.676375465207906 17.126633957945085 10.989968177488072 0 1 -1
1862 0 2 0.5897 8.131994812047573 16.538022781906847 10.387404160839083 0 1 -1
1863 0 2 0.5897 8.205963822072016 17.017680700772758 11.809273430868998 0 1 -1
294 0 2 0.5897 11.015167978928552 18.296827719899273 11.847770301008538 0 -1 0
293 0 2 0.5897 11.47711281235473 17.080657190957016 11.01972385321973 0 -1 1
624 0 2 0.5897 12.104574547300126 16.53942510424873 8.488826196898454 0 -1 0
292 0 1 -1.1794 11.809782035464561 17.714701318532143 11.658232541495805 0 -1 1
1757 0 2 0.5897 0.6928415351703664 2.805932497876316 15.198140489598893 1 0 0
1345 0 1 -1.1794 1.2119896541615687 3.555593356451581 12.618377275839482 0 1 -1
310 0 1 -1.1794 4.000913707233812 1.648384638031117 12.832487220241998 0 0 -1
312 0 2 0.5897 4.071248876162132 0.6790093198160625 12.718956775112034 0 0 -1
284 0 2 0.5897 3.0012916664978575 2.283354805287522 14.358479281458987 0 1 -1
283 0 1 -1.1794 2.5927336219789603 2.311800265526695 15.229695502128354 0 1 -1
897 0 2 0.5897 2.5246114769089987 0.384664889741325 15.723917931960393 0 1 0
285 0 2 0.5897 3.066503504837688 3.0637601125821146 15.652761167778895 0 1 -1
1994 0 2 0.5897 5.246337045850441 2.002560477358072 14.118367823350674 1 0 1
1995 0 2 0.5897 5.727478362687859 2.13963127835652 15.572940137268423 1 0 1
1993 0 1 -1.1794 6.060072579779355 2.191581080786121 14.696233774992972 1 0 1
129 0 2 0.5897 10.751713486068057 0.3753116847050972 13.162074701121611 0 0 0
328 0 1 -1.1794 7.859314728748111 0.641358918477748 12.608586957081691 0 -1 1
330 0 2 0.5897 7.173283892796518 1.266285834616662 12.976553096981258 0 -1 1
1380 0 2 0.5897 10.635286125761162 3.6285049312462294 12.55964765857597 0 3 -1
359 0 2 0.5897 11.29788342939643 0.3912520489830397 15.45530921454089 0 1 0
360 0 2 0.5897 11.02478963940811 1.8745914677290698 15.315848557705694 0 1 0
1261 0 1 -1.1794 10.545270680070656 3.515910992670071 16.145967332913347 0 2 -1
1262 0 2 0.5897 9.648167634756115 3.43549467295831 15.768432717940549 0 3 -1
358 0 1 -1.1794 11.317993445882864 1.1351348582097291 14.759265668239419 0 1 0
371 0 2 0.5897 7.447511958426913 3.3973344881634318 14.57788563372568 0 -1 0
370 0 1 -1.1794 8.231623766778744 3.968024849037283 14.405748231151886 0 -1 0
372 0 2 0.5897 8.537738468175725 3.610923211610008 13.565063690115228 0 -1 0
564 0 2 0.5897 0.7468327980859698 6.80185415119361 12.755684611462124 0 0 0
1346 0 2 0.5897 1.1691378604949854 4.247898800283045 13.322388204117836 0 1 -1
893 0 2 0.5897 4.0702551441432195 6.654720160325815 13.480095998312839 0 0 0
894 0 2 0.5897 5.158111812707876 6.022877472429462 14.403654796731784 0 1 0
892 0 1 -1.1794 4.333422481311347 5.83263097666033 13.888113575681828 0 0 0
263 0 2 0.5897 2.5080421238656108 5.809012946428454 14.484430480459494 0 0 0
262 0 1 -1.1794 1.55913451531569 5.668423351444436 14.22616864120216 0 0 0
1554 0 2 0.5897 6.114178278154437 5.425050705909846 16.132678109188014 0 1 0
1107 0 2 0.5897 2.8605014128265833 5.463962138789918 16.516443328999046 0 0 -1
1987 0 1 -1.1794 2.6361480729972055 7.5038992078284 16.455505499688286 1 0 0
264 0 2 0.5897 1.0313464611596355 6.124918930218263 14.89001685103289 1 0 0
225 0 2 0.5897 11.601424385487638 4.29146818376683 14.55438468099388 1 0 0
1552 0 1 -1.1794 6.518715479310694 6.089256629213233 15.52421231459332 0 1 0
223 0 1 -1.1794 11.94304951626403 4.49196164648735 13.685556901456325 1 0 0
224 0 2 0.5897 11.856419361752298 5.384035822201451 13.432441169979896 1 0 0
1553 0 2 0.5897 7.095299900055452 5.58677297867284 14.945903270733565 0 1 0
106 0 1 -1.1794 8.532853987036143 7.252197934827106 13.247309990721524 0 -2 0
265 0 1 -1.1794 10.012154501812336 6.660682929422966 15.524435219018338 0 0 0