LAMMPS data file via write_data, version 23 Jun 2022, timestep = 40000000

2268 atoms
2 atom types

0.47213038548927955 46.97856861448305 xlo xhi
0 20.047001 ylo yhi
0 20.857 zlo zhi

Masses

1 1.008
2 15.999

Atoms # full

131 0 2 0.5897 3.1721110292957446 2.337148028606091 2.352949478929457 0 0 2
2122 0 1 -1.1794 2.815637855218778 0.6348528909168744 2.7320985822832182 0 1 0
2042 0 2 0.5897 4.727145555684426 0.2885615784511904 3.235348634868687 0 2 1
2041 0 1 -1.1794 5.589987283891164 0.6839405962184403 3.1752178157676205 0 2 1
1062 0 2 0.5897 5.8763412849849015 2.2569808687720943 1.918436485024192 0 2 -1
130 0 1 -1.1794 3.215843643216638 3.2874229270051556 2.1641381824280064 0 0 2
2043 0 2 0.5897 6.220335934120607 0.3904197986751411 3.8486610779296506 0 2 1
1061 0 2 0.5897 5.993355447526101 3.717713266567647 1.3301406337359325 0 2 -1
132 0 2 0.5897 3.899917990177512 3.701446364746234 2.7188161158452195 0 0 2
1060 0 1 -1.1794 6.148605174620476 2.7423541057762093 1.0980357126124538 0 2 -1
2124 0 2 0.5897 2.1053688723995267 0.570738689934181 3.3531867767947654 0 1 0
2123 0 2 0.5897 2.579725892976441 0.08788351251176378 1.9825631808721949 0 1 0
1772 0 2 0.5897 1.7081837170598138 3.957476530583663 3.174433506668571 0 0 1
1113 0 2 0.5897 0.7794213034788111 2.0281477182283565 0.5582831526524935 0 0 0
293 0 2 0.5897 9.082682627081274 2.39056017530942 1.5304676211021864 0 0 0
2080 0 1 -1.1794 9.511934465728304 0.4577192134053979 2.232922420429192 0 1 1
2082 0 2 0.5897 8.873015461187697 0.25906726067584523 2.9645921754925495 0 1 1
292 0 1 -1.1794 8.994106149123759 3.2765062520668913 1.8874655888608287 0 0 0
1380 0 2 0.5897 11.169473604787747 0.6842555355156044 2.981035696722355 0 3 -2
518 0 2 0.5897 12.048723144515249 1.984419306893176 0.08355880090909637 0 2 1
180 0 2 0.5897 8.026501990123137 3.522268827928278 3.110138683602388 0 0 1
178 0 1 -1.1794 7.6045846149702045 3.9280040400188323 3.9044203292542075 0 0 0
294 0 2 0.5897 9.875020109954319 3.449233205271309 2.332672721287489 0 0 -1
1426 0 1 -1.1794 11.176273755464901 3.9256645752189363 3.294402352013163 0 -2 -1
1427 0 2 0.5897 12.092171562860296 3.7316077141553077 3.4103998595046385 0 -2 -1
885 0 2 0.5897 5.8244968646850515 4.045493475859156 4.058953838195966 0 -3 1
883 0 1 -1.1794 4.824666244532692 4.09456008481033 4.162434897483084 0 -3 1
312 0 2 0.5897 2.3414151075837903 4.676657554946284 1.1869049418267286 0 0 0
1994 0 2 0.5897 2.857255256185571 6.826072380728791 1.6839610848743154 1 0 2
1993 0 1 -1.1794 2.978717708207493 7.592748510852694 2.2294816996040354 1 0 2
1995 0 2 0.5897 3.9404804945759238 7.58180324193908 2.3973147363528575 1 0 2
760 0 1 -1.1794 5.915845509585777 7.533978761000872 2.7585118309506482 0 0 1
8 0 2 0.5897 1.7460511449178053 7.147229888789314 3.5273349613497196 0 -1 0
310 0 1 -1.1794 2.0493316584428367 5.560631555187494 0.8614365697625966 0 0 0
762 0 2 0.5897 5.809258264683025 6.88236725180215 2.072660788294938 0 0 1
133 0 1 -1.1794 5.907350014597199 5.496724638967023 0.9821554179833047 0 0 4
135 0 2 0.5897 5.323220852481226 5.477406936823624 0.21356156333539664 0 0 4
1771 0 1 -1.1794 1.0883630341987716 4.231237035010166 3.879565647049659 0 0 1
1773 0 2 0.5897 1.3407333567557673 5.16883963740536 4.078431942263993 0 0 1
311 0 2 0.5897 2.6299151954887203 5.814194061321294 0.11557835099248166 0 0 0
761 0 2 0.5897 6.5200474672348 7.222895787989154 3.417883040134037 0 0 1
1584 0 2 0.5897 8.867429218058001 4.672267229848237 0.7573991145025318 0 0 0
1812 0 2 0.5897 8.960696289263103 6.577557043521083 1.447423840506852 0 0 -2
1582 0 1 -1.1794 8.565981427482878 5.466183730111932 0.23044049370460074 0 0 0
1811 0 2 0.5897 8.966769541797358 6.938192528535305 2.9864981951179774 0 0 -2
1810 0 1 -1.1794 9.314374161095575 7.173168509230288 2.1378038745002588 0 0 -2
147 0 2 0.5897 10.939330685467272 7.33668315670772 2.082413233738561 0 1 1
134 0 2 0.5897 6.797706574888226 5.3926559340242015 0.6353434965760794 0 0 4
145 0 1 -1.1794 11.900863716198662 7.176882518888584 2.047180932930683 0 1 1
1428 0 2 0.5897 11.123241999546066 4.835365201348273 3.703334539544773 0 -2 -1
1989 0 2 0.5897 2.6730258246372216 9.42226207482659 2.2822180380202344 1 0 1
1987 0 1 -1.1794 2.843621613906084 10.360152183337506 2.24624003507049 1 0 1
1988 0 2 0.5897 2.2093957275138134 10.658232150598394 2.9234396814009656 1 0 1
896 0 2 0.5897 4.288581055552788 10.25912081922599 3.205314774879302 0 1 1
224 0 2 0.5897 1.6641454268291307 11.296572213506028 0.9039131188410897 1 0 1
509 0 2 0.5897 5.816956005948276 9.072781623514055 1.765977060811578 0 0 4
508 0 1 -1.1794 5.546335377566456 9.525245369073769 0.9561771729460106 0 0 4
510 0 2 0.5897 5.807079887465806 10.504977112590456 1.0058475589193605 0 0 4
897 0 2 0.5897 5.744522887467077 10.49864992726053 3.8073352544900145 0 1 1
895 0 1 -1.1794 4.795389938062312 10.74636762425936 3.91872192558816 0 1 1
264 0 2 0.5897 0.8437926947051895 9.134386605674893 0.3566373836809101 1 0 1
642 0 2 0.5897 9.137692532391279 8.99898666041058 1.9583924565474027 0 1 0
640 0 1 -1.1794 8.952521577977864 9.902120796125232 2.221559939389942 0 1 0
282 0 2 0.5897 10.185676025735248 10.272557507763938 3.34662900381532 0 0 2
641 0 2 0.5897 8.789104341812145 10.400789950871557 1.4144961222751928 0 1 0
1899 0 2 0.5897 8.05106671128102 9.993208030586803 3.5869773051536638 0 1 -3
280 0 1 -1.1794 10.885836129119445 10.40358810700926 4.0263895946741854 0 0 1
633 0 2 0.5897 7.160269394697789 9.078823635232997 0.03450209236437802 0 -1 1
1327 0 1 -1.1794 8.709724346490201 11.970252448402597 0.7408547155839974 0 0 -1
281 0 2 0.5897 11.740172812611645 10.263025190827163 3.582182055471077 0 0 1
601 0 1 -1.1794 6.054192206484132 12.432509114349951 0.27209537482924184 0 -2 2
223 0 1 -1.1794 1.5251840943543746 12.114195289574212 0.4513576715817681 1 0 1
1562 0 2 0.5897 4.651205696056339 14.068481401877102 2.8878361206057788 0 -1 1
1148 0 2 0.5897 1.9215523514476882 13.886642538492909 3.0994152109687922 0 0 1
1561 0 1 -1.1794 5.597658372255386 13.904625706797054 2.6824247089903857 0 -1 1
1147 0 1 -1.1794 2.4572563418420383 13.9921131142452 2.306741959644192 0 0 1
1149 0 2 0.5897 2.5267191824380335 14.974373368066201 2.0622737832285214 0 0 1
225 0 2 0.5897 1.8204275377687174 12.763570507787668 1.1435075599608218 1 0 1
603 0 2 0.5897 5.9138629877969136 12.850678367003635 1.1904846989802162 0 -2 2
1563 0 2 0.5897 5.911196970324952 13.611417819156024 3.5484500168615463 0 -1 1
2159 0 2 0.5897 5.883813700200291 15.58195642767812 1.8042649210204915 0 0 1
618 0 2 0.5897 8.999298625737174 13.227238554060301 2.0339413641436637 0 0 1
617 0 2 0.5897 8.724895153593094 13.7015407560603 3.533072023205705 0 0 1
616 0 1 -1.1794 9.218381669190988 13.835403444765552 2.7474783467060915 0 0 1
1424 0 2 0.5897 10.995194723081667 13.889431268542324 3.0699591302695897 0 1 -1
95 0 2 0.5897 9.110863155424374 15.54196627963172 2.519410335668307 0 -1 1
113 0 2 0.5897 11.42841784367363 15.916704040903616 0.7780329153789969 0 1 -2
1329 0 2 0.5897 7.792142188182826 12.084948341684 0.3330832143916613 0 0 -1
1423 0 1 -1.1794 11.961906071359051 13.863531658838738 2.866983577545649 0 1 -1
2158 0 1 -1.1794 5.881168471576746 16.160858837738473 0.9818859477961871 0 0 1
307 0 1 -1.1794 2.3574731870497865 16.644569229265468 2.306409504101432 0 1 1
2052 0 2 0.5897 3.7504757811848966 16.84177469636818 3.3168665457400457 0 0 0
308 0 2 0.5897 1.714670294544258 16.910277854862763 2.978345097630855 0 1 1
309 0 2 0.5897 2.2997524730245775 17.410155147566304 1.6514256223362844 0 1 1
2160 0 2 0.5897 5.881282227269504 17.11805575688603 1.12140513641204 0 0 1
1798 0 1 -1.1794 2.1998208626522757 18.893731433136796 0.7399154991252628 0 -1 0
2051 0 2 0.5897 5.181424476538005 17.126720312090985 3.900057629332218 0 0 0
1800 0 2 0.5897 1.43455517106578 18.77483878422964 0.1810234873226753 0 -1 0
2050 0 1 -1.1794 4.265650626584561 17.018460814242385 4.107582878015458 0 0 0
1397 0 2 0.5897 6.033710453417729 19.698272927183645 1.7431864279752307 0 1 1
1396 0 1 -1.1794 6.042093074253022 19.106583733590764 0.9073207893561226 0 1 1
1799 0 2 0.5897 2.90088685560258 18.84567407977805 0.08731908964390893 0 -1 0
2081 0 2 0.5897 9.243052424697517 19.930020460930496 1.4823821681731653 0 0 1
94 0 1 -1.1794 9.227206949108824 16.547291223139144 2.556138396958632 0 -1 1
96 0 2 0.5897 10.1409194001741 16.628136887788237 2.927185614834936 0 -1 1
635 0 2 0.5897 7.734686640817263 17.077613157579144 3.5845526054179513 0 1 2
318 0 2 0.5897 9.197595290661166 17.848735638396874 1.1424644776535653 0 -2 2
1398 0 2 0.5897 6.9835537912886885 18.988339784757198 0.6965532220391982 0 1 1
316 0 1 -1.1794 9.085202402475684 18.573386937664953 0.5029783004242627 0 -2 2
884 0 2 0.5897 4.5273238166179235 3.25491359885388 4.684096086545084 0 -3 1
538 0 1 -1.1794 1.5611494719548047 2.794067184358182 6.149225840565037 0 1 0
539 0 2 0.5897 2.4539937053267074 2.5462004890883274 6.164164098269363 0 1 0
348 0 2 0.5897 5.073872831963783 2.072517448378243 6.043094787455797 0 -1 2
346 0 1 -1.1794 4.192728206761677 2.006846627735383 5.59387282421089 0 -1 3
347 0 2 0.5897 4.070215420746791 1.1608961941294316 5.213069519449723 0 -1 2
540 0 2 0.5897 1.5306834648455456 3.2231422561050262 5.30371527663356 0 1 0
2145 0 2 0.5897 0.9631598651176305 1.225469169682935 5.229476446364026 0 2 1
1809 0 2 0.5897 6.240971356224822 3.7369740754640772 7.976509151368542 0 0 1
2143 0 1 -1.1794 0.8611618827846367 0.4517763565238825 4.581271177075867 0 2 1
1807 0 1 -1.1794 6.328460100085852 2.7462904360603466 7.84167036934097 0 0 1
1031 0 2 0.5897 11.22779401412035 2.3146900285985215 5.3376292880535 0 2 -2
1032 0 2 0.5897 10.956909603462504 0.8914177837820697 6.0159731108144845 0 3 -2
1030 0 1 -1.1794 10.857498855663811 1.8387371582577667 6.064967507730769 0 2 -2
78 0 2 0.5897 9.071903411502674 2.082606235580553 6.188003981813197 0 2 -1
76 0 1 -1.1794 8.119622538281408 2.225052083244542 5.930444293371781 0 2 -1
77 0 2 0.5897 7.723640292790149 2.5128297458185376 6.782953875585646 0 2 -1
594 0 2 0.5897 7.906932202525787 0.3325820800663107 5.219187818676098 0 -1 -1
179 0 2 0.5897 7.806274625593403 3.3166697444032205 4.652588316813422 0 0 0
1109 0 2 0.5897 12.089262792161813 2.299936400864596 7.259367739275334 0 5 -4
1317 0 2 0.5897 4.603451374437837 5.456016683657433 5.1199290942261175 0 1 1
514 0 1 -1.1794 2.2370691761062327 5.697084439739124 7.4668299361511705 0 0 0
516 0 2 0.5897 2.8241059170749656 5.56675061775641 6.7204425930969 0 0 0
1315 0 1 -1.1794 4.4283196221890595 6.112635497276296 5.850649136127487 0 1 1
1316 0 2 0.5897 4.384306015138812 7.023520093874246 5.509083135619669 0 0 1
600 0 2 0.5897 5.679325561440593 5.754803274959632 6.972697978024964 0 0 1
7 0 1 -1.1794 1.1158466292951508 6.976780793720292 4.245744475546497 0 -1 0
9 0 2 0.5897 1.3718170897942925 7.656222954325003 4.866491114447485 0 0 0
515 0 2 0.5897 2.775781438463114 6.329656073464147 7.9963032958977225 0 -1 0
246 0 2 0.5897 0.6020530749826706 5.479294396297805 7.6117124987412685 1 1 0
1169 0 2 0.5897 8.114739405450882 5.604774682981879 4.593093079592993 0 2 0
1168 0 1 -1.1794 7.911122569732282 6.532786749145479 4.400368398969895 0 2 0
599 0 2 0.5897 7.26998481167504 5.678788902192385 7.219249914668256 0 0 1
166 0 1 -1.1794 11.049109739501384 6.092514752787955 4.99252365259781 0 0 2
664 0 1 -1.1794 9.35400359218757 5.522142794228684 7.0350879222314395 0 1 0
666 0 2 0.5897 10.073735914723239 5.550833363331082 6.397079144460166 0 1 0
167 0 2 0.5897 11.042792616200977 7.027738362053986 5.275363172891407 0 0 2
1170 0 2 0.5897 8.301836004040972 7.0589022916648085 5.149333889938323 0 2 0
598 0 1 -1.1794 6.411754006820436 5.486930192607137 7.583128573160724 0 0 1
665 0 2 0.5897 9.488126136941446 6.27078599880621 7.654543982115221 0 1 0
168 0 2 0.5897 11.972520049520346 5.8930518810591055 5.150344269621762 0 0 2
575 0 2 0.5897 4.389249267911332 9.474432274658493 5.16889320412474 0 1 0
574 0 1 -1.1794 3.9915469101058743 8.969556784619853 5.90286298774664 0 1 0
576 0 2 0.5897 3.028681311874306 8.97833111208945 5.732733538317613 0 1 0
1796 0 2 0.5897 5.113450838604135 8.996539724669416 7.3978700739882015 0 0 2
1282 0 1 -1.1794 1.4539915157912267 9.04018187837313 5.761032434577351 0 0 0
1284 0 2 0.5897 1.2204457149327892 9.73526445217731 5.14823800412634 0 0 0
2048 0 2 0.5897 5.7257689844151205 11.206215260619388 7.686314792078936 0 0 0
1795 0 1 -1.1794 5.817544004392999 9.219598943328988 7.9853488761412414 0 0 2
505 0 1 -1.1794 0.7351843997009475 11.045401300668656 4.235223550338534 0 1 1
506 0 2 0.5897 0.5660764134559038 11.962286531666548 4.479083139504842 0 1 1
1283 0 2 0.5897 0.7744859738784907 9.057769598582288 6.411458511360573 0 0 0
1897 0 1 -1.1794 7.5720355510772865 10.287516248611393 4.367731318969755 0 1 -3
1793 0 2 0.5897 11.504359299694137 8.809256324851072 6.612970890918965 0 -1 2
1792 0 1 -1.1794 10.76038847716637 8.648957112488933 6.013174088714304 0 -1 2
936 0 2 0.5897 9.00179289729741 8.582990070449407 6.771628126087019 0 -2 -1
934 0 1 -1.1794 8.14476159233909 8.339457636886852 6.464896152289955 0 -2 -1
1898 0 2 0.5897 7.689327154876082 9.56908166403423 5.026792595475129 0 1 -3
935 0 2 0.5897 7.457679900076029 8.73125852041172 7.007620862044145 0 -2 -1
1794 0 2 0.5897 10.86377356007668 9.353584862854415 5.3095739347997775 0 -1 2
2105 0 2 0.5897 8.854889875715136 11.041767756343564 7.836244202547017 0 -2 -1
2104 0 1 -1.1794 8.677319771778093 11.949472198378555 7.571226942330906 0 -2 -1
2106 0 2 0.5897 7.670842316031234 11.948576791665227 7.665324125385191 0 -1 -1
1851 0 2 0.5897 10.837510808988176 11.797470008996465 5.061576031842115 0 1 -3
2047 0 1 -1.1794 5.811806982269778 12.176422392350341 7.603798239018017 0 0 0
1096 0 1 -1.1794 0.4826968776340566 13.726553898878587 4.645218120121181 0 -1 0
1287 0 2 0.5897 4.06771700149164 12.2422897610029 5.066635623775895 0 1 1
814 0 1 -1.1794 2.1875227463413056 12.812307306327332 7.5392994505043545 0 -1 1
1286 0 2 0.5897 4.935344455779332 12.69843502410882 6.353419157504962 0 1 1
815 0 2 0.5897 2.8409783303480167 12.921479729167604 6.841391153563905 0 -1 1
1285 0 1 -1.1794 4.301412742751145 13.022452839845295 5.6932242191782585 0 1 1
1275 0 2 0.5897 3.6967777348924513 14.680685452485513 6.1670525536857825 0 1 3
1273 0 1 -1.1794 3.5476971048361126 15.587797040911752 6.323709260479 0 1 3
1318 0 1 -1.1794 0.9645159824267249 16.008256405012833 6.22899215840017 0 0 1
1319 0 2 0.5897 1.7406892599700436 15.712508297059856 6.683567169381002 0 0 1
2037 0 2 0.5897 4.9107419697674235 15.835200682255131 7.4788767395303015 0 -1 0
1274 0 2 0.5897 3.9051175891297243 16.006643116805744 5.553287645526773 0 1 3
1098 0 2 0.5897 0.6210162059380516 14.555208710550813 5.10580539653397 0 -1 0
816 0 2 0.5897 2.379558656025776 13.507720688615453 8.159843306886794 0 -1 1
97 0 1 -1.1794 7.19324805219844 13.047348351792612 4.6974494700649165 0 3 3
98 0 2 0.5897 7.364541595740841 12.124576194382952 4.793067420332773 0 3 3
1850 0 2 0.5897 9.838348516591582 12.089462041637292 6.295243382373139 0 1 -3
1849 0 1 -1.1794 10.508569300932072 12.483489868816013 5.642649093548478 0 1 -3
99 0 2 0.5897 7.3429826323599405 13.524452642802867 5.5048443676816206 0 3 3
1916 0 2 0.5897 10.460821156797754 14.193987489057719 5.842885373375383 0 -1 1
1915 0 1 -1.1794 10.50090374765375 15.119394625377844 6.101743384085988 0 -1 1
1071 0 2 0.5897 8.537722509608862 15.444567248974902 6.3625870857525095 0 2 1
849 0 2 0.5897 11.492274600483046 15.764455519012422 7.631098368568153 0 1 -1
1069 0 1 -1.1794 7.6108253209193935 15.329078913976977 6.219375829087118 0 2 1
1070 0 2 0.5897 7.087774839775333 15.650461222300143 7.003062879818765 0 2 1
1917 0 2 0.5897 10.80499393035681 15.62613861198442 5.3327810501617785 0 -1 1
789 0 2 0.5897 11.855475734638652 12.582313454226153 6.813074038533673 0 -1 0
2035 0 1 -1.1794 5.673462653462089 16.154592262088496 7.989065737083638 0 -1 0
2260 0 1 -1.1794 0.8208790891156207 17.705746491890537 4.339179509813053 1 0 1
1079 0 2 0.5897 1.8435350880841312 19.925578000343926 8.085498155204164 0 0 0
136 0 1 -1.1794 3.806762344831919 19.20893829586193 5.637692446635815 0 0 -1
138 0 2 0.5897 3.0298727435434145 19.229623765260932 6.176374457791156 0 1 -1
137 0 2 0.5897 3.873000335636237 18.401126092595277 5.132642176779225 0 0 -1
2118 0 2 0.5897 5.111106584926422 19.038296269931028 6.821610814550238 0 1 1
1078 0 1 -1.1794 1.647539602200428 19.160285463252695 7.415696232234809 0 0 0
2262 0 2 0.5897 1.0918304196722093 17.24905865485849 5.195996224042678 1 0 1
2116 0 1 -1.1794 5.770903897723268 18.789208899227408 7.491994019962312 0 1 1
2117 0 2 0.5897 5.5913698216772545 17.85985607752585 7.72233352904378 0 1 1
2261 0 2 0.5897 0.9708720721133375 18.672855383360346 4.408620555467382 1 0 1
1080 0 2 0.5897 0.7004143295015995 19.30707728179678 7.212941821862475 0 0 0
580 0 1 -1.1794 11.507276091327707 16.994244518953533 4.261412672568269 0 -1 -2
592 0 1 -1.1794 7.645849321589331 19.831976763838888 4.456080490865535 0 -2 -1
634 0 1 -1.1794 7.093332566850877 17.261651730269207 4.2807494370867945 0 1 1
343 0 1 -1.1794 11.179301906270199 19.18501445650381 5.775471446684214 0 -2 -1
582 0 2 0.5897 11.516558409955278 17.808661943135785 4.806660565762359 0 -1 -2
593 0 2 0.5897 7.717986599406109 18.900112167824666 4.645754171370085 0 -3 -1
344 0 2 0.5897 10.272978078166911 18.91282860797542 6.114553848013624 0 -2 -1
636 0 2 0.5897 7.089048356427934 16.465440354056476 4.836838290687882 0 1 1
1403 0 2 0.5897 7.6531074420535035 19.078543878253797 7.223480197010388 0 0 1
1402 0 1 -1.1794 8.592580319045746 18.86753018297825 7.038836142243623 0 0 1
1404 0 2 0.5897 8.70232533790843 18.028392890063532 7.500357177469102 0 0 1
345 0 2 0.5897 11.795229117409871 19.132110441736014 6.546163862995328 0 -2 -1
1808 0 2 0.5897 6.038642400478214 2.360818403231596 8.694216281137038 0 0 1
1323 0 2 0.5897 2.437783580802508 1.8774239048122594 9.4367589104383 0 0 0
1321 0 1 -1.1794 2.35549336672093 0.9085555438866231 9.40076391046512 0 1 0
306 0 2 0.5897 4.2679343785381665 0.8331146298514959 9.559045552992016 0 0 1
1322 0 2 0.5897 1.873863072827419 0.6873256249051132 10.199419495353318 0 1 0
1579 0 1 -1.1794 2.8110577996560426 3.8415796057203484 9.228518918020596 0 1 0
304 0 1 -1.1794 5.217197430113137 0.73614770349338 9.510555787175136 0 0 1
1769 0 2 0.5897 0.8615537813791598 0.9501837896297902 12.327600915893457 0 2 1
1805 0 2 0.5897 1.0216937163619384 3.6726710796582496 11.954776991546098 0 0 0
782 0 2 0.5897 4.465580132355386 2.661715703961663 12.163219929453092 0 0 0
1768 0 1 -1.1794 0.8066533736400803 0.18521126785030714 11.701019397257197 0 2 1
305 0 2 0.5897 5.299687372642996 0.1828023601059152 8.699598164179964 0 0 1
1421 0 2 0.5897 6.484365914512479 0.14251416973563175 10.931364921866649 0 2 -1
1277 0 2 0.5897 9.152550082926517 2.9855280496108194 8.770873122229975 0 2 -3
579 0 2 0.5897 8.81237266605314 0.7547303823109888 9.781513636163266 0 0 0
577 0 1 -1.1794 9.417121350744457 0.7649325598811145 9.055456588034263 0 0 0
1334 0 2 0.5897 11.199666776438905 0.9028602787493135 9.548556415080052 0 3 -1
1935 0 2 0.5897 7.555271170314986 3.177741508572279 11.876844811554072 0 1 -1
2070 0 2 0.5897 11.043360021135783 2.8910488843925632 11.658724891228903 0 0 1
1276 0 1 -1.1794 9.293221807231575 3.7747055996124788 9.244885879900155 0 2 -3
1934 0 2 0.5897 7.875054411324297 3.883808859053447 10.446617518520089 0 1 0
1933 0 1 -1.1794 7.445681223910261 3.942017448768307 11.297040190910359 0 1 0
2069 0 2 0.5897 10.71002519585568 3.660624717132538 10.303919725413655 0 0 1
2068 0 1 -1.1794 11.304230070313054 3.6231585914472553 11.066754349931012 0 0 1
578 0 2 0.5897 9.191040294089284 0.043954841636484596 8.462197393311698 0 0 0
1420 0 1 -1.1794 7.442459794074811 0.2436908936154366 11.230662552908273 0 2 -1
1874 0 2 0.5897 10.678111680277476 0.2535175305484067 12.431474822519045 0 1 -2
1526 0 2 0.5897 7.6258960833119565 1.0337967331290132 12.511066240548283 0 0 1
768 0 2 0.5897 4.235804084500533 4.242170230686698 10.356215489591658 0 0 0
767 0 2 0.5897 5.666824975347199 4.109478025148163 10.856012417800779 0 0 0
766 0 1 -1.1794 4.762898687389699 4.136728788228489 11.182157434644932 0 0 0
1804 0 1 -1.1794 0.9241187358517542 4.287877632076607 11.19199565134138 0 0 0
1580 0 2 0.5897 2.047365867437149 4.179666482895392 9.74746115690526 0 1 0
1115 0 2 0.5897 1.0189053729783057 6.01545196182172 11.470878630194369 0 1 -1
1581 0 2 0.5897 2.65722335277915 4.3867924815232024 8.398244256945981 0 1 0
1391 0 2 0.5897 6.240915019701633 6.372744572737052 8.96537035488676 0 0 0
1116 0 2 0.5897 1.9224884982155703 7.0675608084231 10.692990455051964 0 1 -1
1390 0 1 -1.1794 5.954700828837111 6.951948942332625 9.730189590951024 0 0 0
1107 0 2 0.5897 4.205200892378654 7.492382011826623 9.828463977211445 0 0 0
1105 0 1 -1.1794 3.265342176849787 7.593886423126809 9.483344830466896 0 0 0
1114 0 1 -1.1794 1.2623772025362454 6.942820084565151 11.408040174443787 0 1 -1
1059 0 2 0.5897 3.9390877026816007 5.504459387711181 12.36090299560486 0 -1 0
1278 0 2 0.5897 9.382430982324587 4.469500362337899 8.53399436318542 0 2 -3
1392 0 2 0.5897 6.547120185586406 6.723172323093339 10.503732826252943 0 0 0
1871 0 2 0.5897 7.388506456323353 5.644335436850218 12.130108336964996 0 2 0
1870 0 1 -1.1794 7.645278512197643 6.5073953403727245 11.807512809516924 0 2 0
684 0 2 0.5897 8.952737598778961 6.632993022594341 10.260482972127512 0 -1 0
682 0 1 -1.1794 9.63337229590101 6.94649862792704 9.67012082702018 0 -1 -1
144 0 2 0.5897 11.417752537036222 6.7161247758783755 10.110678056176877 0 1 -1
1296 0 2 0.5897 10.81687477911869 5.001622280811142 12.379698536336875 0 1 1
1872 0 2 0.5897 7.544831698619699 7.197556076792438 12.468379848102485 0 2 0
683 0 2 0.5897 9.534257236276423 7.8965634477389095 9.70331116549298 0 -1 -1
1549 0 1 -1.1794 0.9168637595706348 11.035853401781878 11.19299484028784 0 1 1
1550 0 2 0.5897 0.9935412666455509 10.35131583720572 11.830012451708201 0 1 1
1578 0 2 0.5897 2.4032887108569865 10.83825251830954 8.461886820633561 0 1 0
1106 0 2 0.5897 3.1943886960242556 8.532669694437697 9.14132347950142 0 0 0
1576 0 1 -1.1794 2.658825962409242 10.349775955348623 9.256786758593805 0 1 0
1577 0 2 0.5897 2.0711591755906436 10.755358774362954 9.957444902985214 0 1 0
647 0 2 0.5897 4.721308765710801 10.040352527328414 11.431964937022762 0 0 2
648 0 2 0.5897 4.101417355051371 10.4245257661879 10.120192782264674 0 0 1
646 0 1 -1.1794 4.915133184162158 10.515151708628109 10.634455241430162 0 0 1
1797 0 2 0.5897 5.91048181268999 8.564826825317793 8.72703951479846 0 0 2
795 0 2 0.5897 1.3066566487144824 8.362367266039834 12.492858209715557 0 0 1
857 0 2 0.5897 6.619624097344624 10.479614016772414 10.772745363235181 0 2 2
925 0 1 -1.1794 11.646412855931057 10.70853575081611 11.035646698793323 0 0 1
1801 0 1 -1.1794 9.333588559861763 9.866796772672455 9.258673157772419 0 1 0
1803 0 2 0.5897 8.620978522579314 10.134783684472408 9.894599430280984 0 1 0
1802 0 2 0.5897 10.149740321671727 10.080150233252834 9.700449148901598 0 1 0
856 0 1 -1.1794 7.514998702533835 10.698107920903032 11.154789221130034 0 2 2
858 0 2 0.5897 7.498331933615389 9.989835068160748 11.840233135983992 0 2 2
927 0 2 0.5897 11.2385395351369 11.549966936137304 11.336303909105494 0 0 1
2162 0 2 0.5897 10.53272119307322 9.308675681153648 11.823536025083254 0 1 1
2161 0 1 -1.1794 10.490361658804893 8.587931257595784 12.473911735368684 0 1 1
1015 0 1 -1.1794 1.0736668121511888 13.817935724105075 11.224844730569156 0 0 0
2049 0 2 0.5897 5.510108407409442 12.541237925929297 8.454964884761312 0 0 0
1826 0 2 0.5897 4.626179749493226 12.286558325494203 11.472970425892003 0 1 0
1017 0 2 0.5897 1.171950367503091 12.831396341595866 11.20238980325961 0 0 0
1891 0 1 -1.1794 2.5263043041172515 14.71228409058192 9.26877386949287 0 0 1
1609 0 1 -1.1794 5.057380603142955 13.985471363127543 9.597675798601585 0 1 0
1611 0 2 0.5897 4.132683484259889 14.257423652175513 9.637749774138975 0 1 0
1892 0 2 0.5897 1.9935574441324313 14.416844840599255 10.029490870005592 0 0 1
1893 0 2 0.5897 2.5010730748795296 15.625768140184945 9.325240755017994 0 0 1
2036 0 2 0.5897 5.675879672381215 15.642464563158349 8.81740863229497 0 -1 0
1610 0 2 0.5897 5.352650286868197 13.768454983893495 10.47139895919334 0 1 0
1827 0 2 0.5897 4.360467669932776 13.472062400443154 12.39875820930355 0 1 0
771 0 2 0.5897 4.469044098039048 15.878036950418497 12.07786129545248 0 0 -1
1825 0 1 -1.1794 4.05173727134967 12.62660524588077 12.137573467833455 0 1 0
171 0 2 0.5897 10.618463496494746 14.056622621673219 9.85927312778365 0 0 1
758 0 2 0.5897 9.008464895808837 13.571640133961665 8.752428322164635 0 2 0
591 0 2 0.5897 7.446275275732879 12.742744237211998 11.497512540408287 0 -2 1
757 0 1 -1.1794 8.877184548963863 14.242804507772666 9.40326101630081 0 2 0
589 0 1 -1.1794 7.180227359792802 13.638009856702949 11.366792874462057 0 -2 1
759 0 2 0.5897 8.113791167405793 14.06197991546815 9.959545312781065 0 2 0
590 0 2 0.5897 7.622454843891605 14.194060098131809 12.033185636778843 0 -2 1
1788 0 2 0.5897 8.868583659563775 15.909809861622342 8.894560063622931 0 2 4
169 0 1 -1.1794 11.532099436803279 13.99542320485135 9.633465938695295 0 0 1
1689 0 2 0.5897 10.463918465142697 13.655103980425611 12.306810584853125 0 1 -1
1687 0 1 -1.1794 10.334417265470709 12.670384310208815 12.398373928138458 0 1 -1
170 0 2 0.5897 11.767795601517767 13.264051246754132 9.0354209115226 0 0 1
848 0 2 0.5897 12.053024944122445 15.425931750216527 8.889105253963347 0 1 -1
1303 0 1 -1.1794 0.7063108909130246 17.583995721481784 11.60169449348053 0 0 -1
1553 0 2 0.5897 1.8952482948322136 17.872681523161468 8.484963394398893 0 1 1
1552 0 1 -1.1794 2.174912420346794 17.36018588298318 9.267071055550009 0 1 1
1554 0 2 0.5897 1.5593001275130165 17.554838029401793 9.948566579566732 0 1 1
32 0 2 0.5897 4.120600003787363 17.50302135570377 10.13889102207759 0 -1 0
31 0 1 -1.1794 4.819129094920289 17.383230893534765 10.746067471255198 0 -1 0
33 0 2 0.5897 4.620373142257473 18.067722529260305 11.421251492479085 0 -1 1
1305 0 2 0.5897 1.0091789414635768 16.904599656871863 12.220581213861792 0 0 -1
1770 0 2 0.5897 1.0392501778268675 19.40447466112381 12.12508817340171 0 1 1
393 0 2 0.5897 11.122449484844106 16.21508796288852 12.251756250562881 0 -4 0
68 0 2 0.5897 6.667698000488863 17.468081957533666 10.82011429540269 0 0 -1
1855 0 1 -1.1794 11.10678811991681 17.243803166612906 10.829535662630738 0 1 2
1857 0 2 0.5897 10.760621496115197 17.042347688883606 9.93364208814481 0 1 2
1422 0 2 0.5897 7.702465331614473 19.3783082285929 11.320006324630892 0 1 -1
1786 0 1 -1.1794 9.204011592378741 16.840988605200597 8.87595395393905 0 2 4
69 0 2 0.5897 7.744850770440059 16.739415720811582 11.679044851555929 0 0 -1
1787 0 2 0.5897 8.672243487237226 17.2749284774297 9.573609790973027 0 2 4
67 0 1 -1.1794 7.627044368949205 17.452946823762005 11.054997365974728 0 0 -1
1875 0 2 0.5897 10.615315089369027 18.815715569245928 11.630078839652054 0 0 -2
1873 0 1 -1.1794 10.659801350191065 19.33134611931904 12.416623828432272 0 0 -2
1856 0 2 0.5897 12.095998984912363 17.362586041901046 10.741529611545955 0 1 2
549 0 2 0.5897 4.390995714627254 0.24337974057911904 12.613963141956653 0 0 -1
2157 0 2 0.5897 0.7044688207440375 2.495909473289062 14.122204324678796 0 0 0
781 0 1 -1.1794 4.10983653820951 2.048282594464164 12.89593541989958 0 0 0
2155 0 1 -1.1794 1.2480046623392886 2.2821045559880804 13.322054979635952 0 0 0
2156 0 2 0.5897 2.2063052990377625 2.3711912879293457 13.479768701773242 0 0 0
783 0 2 0.5897 4.759335555232395 2.0862494352804886 13.634625606188145 0 0 0
1542 0 2 0.5897 2.291668753241251 2.6860107751841173 16.206499757379202 0 0 0
1540 0 1 -1.1794 2.3176168605901464 3.6222868325516484 16.49925938191243 0 0 0
1013 0 2 0.5897 5.556943920878909 1.9432772635157558 15.827989922921258 1 -3 1
1012 0 1 -1.1794 5.634150936009014 2.6054204427049275 15.144041835981044 0 -3 1
1014 0 2 0.5897 5.593993678037544 3.4467998929307595 15.586965996041366 0 -3 1
1339 0 1 -1.1794 2.4641621333254475 0.8559494675856356 16.587232631764735 0 0 2
1340 0 2 0.5897 2.4534637796338057 0.2947647345679845 15.824243518588293 0 0 2
359 0 2 0.5897 11.909441775222756 1.94428642230825 15.737792430050003 0 0 -1
253 0 1 -1.1794 10.699229944030378 1.8715333593626753 12.856664679296422 0 -1 1
255 0 2 0.5897 9.748619069253454 1.910710270850821 13.035172217580858 0 -1 1
1525 0 1 -1.1794 8.030195825212122 1.735866799091851 13.102954360596863 0 0 1
1527 0 2 0.5897 7.526555795325723 1.7326081010422578 13.920693535908237 0 0 1
254 0 2 0.5897 11.058347022617635 1.8709550906166033 13.742192673925738 0 -1 1
86 0 2 0.5897 8.794421748584776 1.671593471316746 16.2228492191175 0 -1 0
1765 0 1 -1.1794 8.95244034874083 3.5031335494022935 16.34606177973021 0 0 -1
85 0 1 -1.1794 8.719431448860483 0.6876258807490727 16.269515635737733 0 -1 0
1541 0 2 0.5897 1.890642856076776 4.1508422633984985 15.730530363637294 0 0 0
1057 0 1 -1.1794 3.77376988906287 6.104373975791376 13.105293987640419 0 -1 0
1058 0 2 0.5897 4.346938902132842 5.671686831706756 13.827441808965506 0 -1 0
2079 0 2 0.5897 2.149971839778251 5.892982010263426 13.94861672903743 0 0 1
2077 0 1 -1.1794 1.4573381960287095 5.444873580920575 14.517283723417039 0 0 1
2066 0 2 0.5897 2.1921314478898415 6.754312785912814 15.852799183549191 0 0 -1
2078 0 2 0.5897 0.5205476894052469 5.592312153852415 14.234757878938453 0 0 1
890 0 2 0.5897 5.3103115224883926 6.006608477050078 16.003306548113386 0 1 1
889 0 1 -1.1794 5.494131191305197 5.407660721019433 15.239477051067315 0 1 1
29 0 2 0.5897 4.249553525716203 7.8225629334406115 12.665673549243664 0 0 0
2065 0 1 -1.1794 2.332788622101625 7.404345397636962 16.54128935485051 0 0 -1
1539 0 2 0.5897 11.787238921359368 6.685869398466508 16.39373978269683 0 -6 1
1295 0 2 0.5897 10.323281420080859 6.544915237915429 12.549811265530547 0 1 1
1294 0 1 -1.1794 10.550633964995797 5.7315595327946 13.011273561251395 0 1 1
1767 0 2 0.5897 8.712707664847047 4.1655341181906955 15.611730110151422 0 0 -1