LAMMPS (23 Jun 2022)
echo both

include		in.partitions
variable        pid world 0
include		in.temp
variable	temperature equal 265.0
variable        tempDamp equal 0.100 # this is 0.1 ps
include		in.pressure
variable        pressure equal 5066.25
variable        pressureDamp equal 1.0 #this is 1ps
include		in.seed
variable        seed world 745823

units           metal
atom_style	full
read_restart	restart.lmp.${pid}
read_restart	restart.lmp.0
Reading restart file ...
  restart file = 23 Jun 2022, LAMMPS = 23 Jun 2022
  restoring atom style full from restart
  orthogonal box = (0.58279034 0 0) to (46.867909 20.047001 20.857)
  4 by 1 by 1 MPI processor grid
Summary of lammps deepmd module ...
  >>> Info of deepmd-kit:
  installed to:       /u/sigbjobo/software/DEEPMD_FROM_SOURCE/deepmd-kit/install
  source:             v2.1.3
  source branch:       master
  source commit:      5a32c49
  source commit at:   2022-07-01 09:52:58 +0800
  surpport model ver.:1.1 
  build float prec:   double
  build with tf inc:  /u/sigbjobo/software/DEEPMD_FROM_SOURCE/tensorflow/install/include;/u/sigbjobo/software/DEEPMD_FROM_SOURCE/tensorflow/install/include
  build with tf lib:  /u/sigbjobo/software/DEEPMD_FROM_SOURCE/tensorflow/install/lib/libtensorflow_cc.so;/u/sigbjobo/software/DEEPMD_FROM_SOURCE/tensorflow/install/lib/libtensorflow_framework.so
  set tf intra_op_parallelism_threads: 0
  set tf inter_op_parallelism_threads: 0
  >>> Info of lammps module:
  use deepmd-kit at:  /u/sigbjobo/software/DEEPMD_FROM_SOURCE/deepmd-kit/install
  source:             v2.1.3
  source branch:      master
  source commit:      5a32c49
  source commit at:   2022-07-01 09:52:58 +0800
  build float prec:   double
  build with tf inc:  /u/sigbjobo/software/DEEPMD_FROM_SOURCE/tensorflow/install/include;/u/sigbjobo/software/DEEPMD_FROM_SOURCE/tensorflow/install/include
  build with tf lib:  /u/sigbjobo/software/DEEPMD_FROM_SOURCE/tensorflow/install/lib/libtensorflow_cc.so;/u/sigbjobo/software/DEEPMD_FROM_SOURCE/tensorflow/install/lib/libtensorflow_framework.so
  restoring pair style deepmd from restart
  2268 atoms
Finding 1-2 1-3 1-4 neighbors ...
  special bond factors lj:    0        0        0       
  special bond factors coul:  0        0        0       
     0 = max # of 1-2 neighbors
     0 = max # of 1-3 neighbors
     0 = max # of 1-4 neighbors
     1 = max # of special neighbors
  special bonds CPU = 0.000 seconds
  read_restart CPU = 0.080 seconds
include 	in.setup
variable	out_freq equal 500
variable	out_freq2 equal 1000
variable	out_freq3 equal 5000

timestep        0.0005

neigh_modify    delay 7 every 1

include         in.deepmd
# This is deepMD model

# create groups ###
#group ox type 2
#group hy type 1

mass 2 15.999
mass 1 1.008

pair_style      deepmd ../graph.pb
pair_coeff      * *

bond_style      none
angle_style     none
dihedral_style  none
improper_style  none
neigh_modify exclude none


neighbor        2.0 bin
neigh_modify    every 10 delay 0 check no

thermo          ${out_freq}
thermo          500
thermo_style 	custom step temp pe etotal epair emol press lx ly lz vol pxx pyy pzz pxy pxz pyz
#thermo_modify	flush yes
restart 	${out_freq} restart.lmp.${pid} restart2.lmp.${pid}
restart 	500 restart.lmp.${pid} restart2.lmp.${pid}
restart 	500 restart.lmp.0 restart2.lmp.${pid}
restart 	500 restart.lmp.0 restart2.lmp.0

include		in.dump
dump            myDump all atom ${out_freq3} dump.water.${pid}
dump            myDump all atom 5000 dump.water.${pid}
dump            myDump all atom 5000 dump.water.0
dump            myDump2 all dcd ${out_freq2} dump.dcd.${pid}
dump            myDump2 all dcd 1000 dump.dcd.${pid}
dump            myDump2 all dcd 1000 dump.dcd.0
dump_modify     myDump append yes
dump_modify     myDump2 append yes


timer           timeout 23:50:00 every 1000
New timer settings: style=normal  mode=nosync  timeout=23:50:00

fix             1 all plumed plumedfile plumed.dat outfile plumed.out
fix             3 all nph x ${pressure} ${pressure} ${pressureDamp}
fix             3 all nph x 5066.25 ${pressure} ${pressureDamp}
fix             3 all nph x 5066.25 5066.25 ${pressureDamp}
fix             3 all nph x 5066.25 5066.25 1
fix             4 all temp/csvr ${temperature} ${temperature} ${tempDamp} ${seed}
fix             4 all temp/csvr 265 ${temperature} ${tempDamp} ${seed}
fix             4 all temp/csvr 265 265 ${tempDamp} ${seed}
fix             4 all temp/csvr 265 265 0.1 ${seed}
fix             4 all temp/csvr 265 265 0.1 745823

run             40000000 upto

CITE-CITE-CITE-CITE-CITE-CITE-CITE-CITE-CITE-CITE-CITE-CITE-CITE

Your simulation uses code contributions which should be cited:

- USER-DEEPMD package:

@article{Wang_ComputPhysCommun_2018_v228_p178,
  author = {Wang, Han and Zhang, Linfeng and Han, Jiequn and E, Weinan},
  doi = {10.1016/j.cpc.2018.03.016},
  url = {https://doi.org/10.1016/j.cpc.2018.03.016},
  year = 2018,
  month = {jul},
  publisher = {Elsevier {BV}},
  volume = 228,
  journal = {Comput. Phys. Commun.},
  title = {{DeePMD-kit: A deep learning package for many-body potential energy representation and molecular dynamics}},
  pages = {178--184}
}

CITE-CITE-CITE-CITE-CITE-CITE-CITE-CITE-CITE-CITE-CITE-CITE-CITE

Generated 0 of 1 mixed pair_coeff terms from geometric mixing rule
Neighbor list info ...
  update every 10 steps, delay 0 steps, check no
  max neighbors/atom: 2000, page size: 100000
  master list distance cutoff = 8
  ghost atom cutoff = 8
  binsize = 4, bins = 12 6 6
  1 neighbor lists, perpetual/occasional/extra = 1 0 0
  (1) pair deepmd, perpetual
      attributes: full, newton on
      pair build: full/bin
      stencil: full/bin/3d
      bin: standard
Per MPI rank memory allocation (min/avg/max) = 7.205 | 7.207 | 7.21 Mbytes
   Step          Temp          PotEng         TotEng         E_pair         E_mol          Press            Lx             Ly             Lz           Volume          Pxx            Pyy            Pzz            Pxy            Pxz            Pyz      
         0   277.47929     -347.65646     -266.34594     -347.65646      0              4127.5579      46.285118      20.047001      20.857         19352.748      6141.9583      1675.7446      4564.971      -423.21063     -868.84402      1629.8582    
       500   271.65049     -346.5529      -266.95041     -346.5529       0              4160.8246      46.314249      20.047001      20.857         19364.927      3863.791       5126.4396      3492.2433      746.30414      725.79373     -407.45669    
      1000   265.07398     -345.88257     -268.20721     -345.88257      0              6215.0586      46.296385      20.047001      20.857         19357.459      9177.6348      4734.6084      4732.9325     -1030.8306     -761.9047      -957.28369    
      1500   262.73012     -346.9951      -270.00657     -346.9951       0              4294.6557      46.48971       20.047001      20.857         19438.291      4358.4341      4196.9569      4328.5761     -1122.5935      352.54933     -3006.5057    
      2000   270.05456     -347.16904     -268.03421     -347.16904      0              5412.7448      46.508769      20.047001      20.857         19446.26       6529.7836      3918.7031      5789.7476      1285.7471     -450.95879      176.87833    
      2500   270.93434     -345.62138     -266.22874     -345.62138      0              4059.8352      46.378216      20.047001      20.857         19391.674      7035.69        2285.4443      2858.3711     -536.79988     -1169.819      -78.600423    
      3000   266.10972     -345.24711     -267.26824     -345.24711      0              5838.4393      46.110771      20.047001      20.857         19279.85       8226.3         4595.8017      4693.2162     -72.443547      1357.8416     -2417.4674    
      3500   261.39647     -347.6819      -271.08417     -347.6819       0              5653.5721      46.26478       20.047001      20.857         19344.244      6103.9522      4103.5896      6753.1745     -366.92356     -788.955       -1440.2592    
      4000   261.625       -348.09769     -271.433       -348.09769      0              3370.3714      46.673134      20.047001      20.857         19514.985      4875.4245      1760.1674      3475.5224     -1080.116       593.94732     -993.23029    
      4500   264.45242     -347.8758      -270.38258     -347.8758       0              4799.1971      46.544793      20.047001      20.857         19461.323      5764.9353      2226.0142      6406.6419     -289.715       -65.099358      1423.6062    
      5000   260.07895     -345.7161      -269.50445     -345.7161       0              5505.0228      46.091019      20.047001      20.857         19271.591      4808.109       6349.5398      5357.4198      1713.0842      1101.7644      961.70197    
      5500   267.18855     -350.32406     -272.02906     -350.32406      0              2654.1592      46.243655      20.047001      20.857         19335.411      4448.394       2767.9069      746.17675      672.70317     -1723.3572     -283.90697    
      6000   258.97338     -346.35551     -270.46783     -346.35551      0              4636.5116      46.52815       20.047001      20.857         19454.364      4011.4537      3692.1134      6205.9676      941.73305      1040.2386      736.71723    
      6500   266.31327     -350.31542     -272.27691     -350.31542      0              4779.6884      46.520769      20.047001      20.857         19451.278      4525.4128      6242.0187      3571.6339      3.5897488      59.253642     -1767.8384    
      7000   264.05056     -346.93529     -269.55983     -346.93529      0              4368.7733      46.174891      20.047001      20.857         19306.659      3699.9831      3599.8967      5806.44        571.74643     -930.17636     -115.29798    
      7500   262.80066     -345.87662     -268.86741     -345.87662      0              6809.9852      45.933814      20.047001      20.857         19205.86       8263.9515      6807.3537      5358.6504     -177.37915      588.86527     -533.8068     
      8000   260.16997     -347.63141     -271.39309     -347.63141      0              4175.5432      46.09807       20.047001      20.857         19274.539      3387.942       4788.9638      4349.7238      81.60447      -902.64475      1353.7782    
      8500   263.06391     -349.34071     -272.25437     -349.34071      0              4876.1789      46.257444      20.047001      20.857         19341.176      5665.5958      6282.3047      2680.6362     -221.83092      575.61164     -1046.6825    
      9000   268.8874      -346.9753      -268.18249     -346.9753       0              5563.2769      46.34034       20.047001      20.857         19375.837      3625.1555      6338.6031      6726.0719     -118.17703      437.75712     -69.735826    
      9500   270.71041     -348.26949     -268.94247     -348.26949      0              2113.9021      46.324121      20.047001      20.857         19369.055      2452.2756      2181.5626      1707.8682     -360.56789      847.76467     -1664.4108    
     10000   269.75918     -347.03552     -267.98725     -347.03552      0              4958.0215      46.313089      20.047001      20.857         19364.443      4266.7887      5231.202       5376.0739      56.090394     -29.359128      605.91611    
     10500   275.06471     -345.32973     -264.72676     -345.32973      0              3714.3767      46.419304      20.047001      20.857         19408.853      5299.9874      2134.0259      3709.1166      1860.1823      906.92782     -222.61001    
     11000   262.75498     -345.14564     -268.14982     -345.14564      0              3524.7544      46.512077      20.047001      20.857         19447.643      3299.3364      3950.2253      3324.7016      1321.5441      665.78808      453.90742    
     11500   267.71728     -348.21738     -269.76745     -348.21738      0              2992.9437      46.444553      20.047001      20.857         19419.41       5228.4563      1547.0912      2203.2835      158.27529     -69.564694     -208.23507    
     12000   262.66482     -345.2866      -268.3172      -345.2866       0              7182.7117      46.19272       20.047001      20.857         19314.114      8350.1761      7195.3586      6002.6006      50.312825     -1456.766       975.0869     
     12500   270.19126     -346.88781     -267.71292     -346.88781      0              4919.485       46.294377      20.047001      20.857         19356.619      4498.4536      7483.4702      2776.5313      210.74367     -70.308662     -387.72272    
     13000   266.31125     -345.18117     -267.14325     -345.18117      0              4500.2833      46.736604      20.047001      20.857         19541.523      4187.4636      6176.0222      3137.3641      194.96197      1026.0663     -1352.4726    
     13500   261.28848     -347.58611     -271.02003     -347.58611      0              4508.3455      46.824453      20.047001      20.857         19578.254      5379.2095      5236.7165      2909.1104     -411.58374     -772.65294     -728.70616    
     14000   258.2235      -348.05063     -272.38269     -348.05063      0              5842.2597      46.437344      20.047001      20.857         19416.396      7414.3524      5455.5047      4656.9221     -422.34841     -1418.2047     -633.08532    
     14500   264.92392     -351.58375     -273.95237     -351.58375      0              6408.9374      46.169319      20.047001      20.857         19304.329      6580.6641      6887.0376      5759.1105     -461.37742     -1264.2215     -1350.743     
     15000   263.3085      -348.03691     -270.8789      -348.03691      0              4443.4181      46.471417      20.047001      20.857         19430.643      5213.8357      4213.097       3903.3216     -1938.1348     -606.43293     -1074.204     
     15500   261.49784     -348.46838     -271.84094     -348.46838      0              5181.3747      46.603988      20.047001      20.857         19486.073      6141.0984      6917.1298      2485.8958     -1050.5452     -1032.5442      1845.9301    
     16000   270.20344     -349.51824     -270.33978     -349.51824      0              2774.5248      46.526746      20.047001      20.857         19453.777      1743.1701      5122.1907      1458.2137     -128.31591      728.95683     -1980.5499    
     16500   269.66195     -350.2961      -271.27632     -350.2961       0              3846.0569      46.549888      20.047001      20.857         19463.453      6871.224       3078.5664      1588.3804     -1536.5956     -404.52716      447.70817    
     17000   266.55733     -350.29836     -272.18833     -350.29836      0              7858.7035      46.62888       20.047001      20.857         19496.481      7664.629       6400.0452      9511.4363     -15.842805      782.72691     -687.26286    
     17500   264.72936     -349.81233     -272.23796     -349.81233      0              3822.7744      46.63344       20.047001      20.857         19498.388      4583.2838      2884.5641      4000.4753     -541.40092     -519.23337     -849.30257    
     18000   257.9127      -350.37996     -274.8031      -350.37996      0              3233.8891      46.564306      20.047001      20.857         19469.482      2880.4747      3548.9347      3272.2579     -1532.2149     -296.07509      1627.0977    
     18500   262.1768      -348.85828     -272.03189     -348.85828      0              5613.8885      46.386845      20.047001      20.857         19395.281      5571.09        6558.038       4712.5375      642.07812      1269.4772      675.52784    
     19000   270.21947     -349.96457     -270.78141     -349.96457      0              7347.428       46.266133      20.047001      20.857         19344.809      8137.3153      6777.8464      7127.1223      625.29933     -1399.3012     -682.91422    
     19500   265.85195     -350.02013     -272.1168      -350.02013      0              3589.3837      46.539903      20.047001      20.857         19459.278      3071.1982      3892.4094      3804.5435     -909.18307      448.50817     -1410.4822    
     20000   262.86089     -350.49625     -273.4694      -350.49625      0              5797.4317      46.63621       20.047001      20.857         19499.546      4444.5734      6384.5193      6563.2022     -1023.5257     -643.89295     -430.79107    
     20500   265.05099     -349.85331     -272.18469     -349.85331      0              3929.9682      46.646936      20.047001      20.857         19504.031      3398.3147      4150.4946      4241.0953     -1603.9981      874.26226     -669.4866     
     21000   261.78448     -351.72367     -275.01224     -351.72367      0              6142.0858      46.553559      20.047001      20.857         19464.988      7889.8017      6909.8494      3626.6063     -1622.8658      1239.3561      233.748      
     21500   259.37972     -351.97373     -275.96698     -351.97373      0              6023.3968      46.52471       20.047001      20.857         19452.926      8648.2475      2640.4525      6781.4904     -2807.6161     -1197.3707     -1055.8516    
     22000   267.02659     -350.85184     -272.6043      -350.85184      0              3845.6761      46.681786      20.047001      20.857         19518.602      6511.7338      4599.0327      426.26186     -897.37806     -99.433766     -861.20063    
     22500   267.30929     -350.33567     -272.00529     -350.33567      0              5757.2671      46.687034      20.047001      20.857         19520.797      8256.3534      4957.275       4058.1729      475.31194     -996.77598      665.26993    
     23000   258.03203     -350.60505     -274.99322     -350.60505      0              4926.9832      46.523009      20.047001      20.857         19452.215      2327.9552      5631.2923      6821.7021     -1132.4106      1305.8446     -108.40661    
     23500   268.99145     -351.10094     -272.27764     -351.10094      0              4095.738       46.326132      20.047001      20.857         19369.896      4378.1217      4520.5383      3388.5541     -979.46579     -883.81249      174.99992    
     24000   265.57212     -348.16645     -270.34512     -348.16645      0              5306.1769      46.64925       20.047001      20.857         19504.998      4664.376       6716.7429      4537.4118     -361.62318      255.76986      571.31174    
     24500   265.26371     -349.17355     -271.44259     -349.17355      0              5669.3629      46.670633      20.047001      20.857         19513.939      6132.5381      2691.7568      8183.7937     -106.93835     -814.33807      346.46738    
     25000   271.39944     -346.76645     -267.23753     -346.76645      0              4956.586       46.277242      20.047001      20.857         19349.454      5698.5679      6367.8766      2803.3135      419.25699     -1111.8363      527.72837    
     25500   269.00307     -348.31187     -269.48516     -348.31187      0              4956.7822      46.08289       20.047001      20.857         19268.192      7663.0829      3294.5204      3912.7433     -1458.1182      1918.1931      883.73089    
     26000   270.76018     -347.28792     -267.94632     -347.28792      0              3891.7415      46.376004      20.047001      20.857         19390.749      4846.4632      3098.7724      3729.9888     -183.03339      60.697569     -175.41879    
     26500   263.51143     -349.743       -272.52552     -349.743        0              4391.2305      46.818616      20.047001      20.857         19575.814      2526.907       5037.8231      5608.9614      328.30872     -1166.301       220.70243    
     27000   265.68528     -347.92789     -270.0734      -347.92789      0              3142.5451      46.673679      20.047001      20.857         19515.213      5126.1956      2396.0655      1905.3741      220.53748     -346.09532     -266.96359    
     27500   268.22692     -350.02898     -271.42971     -350.02898      0              6338.0011      46.205229      20.047001      20.857         19319.344      5488.0651      6112.4553      7413.4828     -758.37074     -157.25515     -356.21173    
     28000   257.79381     -348.74231     -273.20029     -348.74231      0              3456.7424      46.286532      20.047001      20.857         19353.339      4085.8119      2692.5476      3591.8678     -1036.1295      1077.5232      534.04988    
     28500   263.90355     -348.90643     -271.57405     -348.90643      0              5021.4127      46.494433      20.047001      20.857         19440.266      4864.5931      6088.0401      4111.605      -268.54649     -34.537227     -187.95954    
     29000   257.98724     -349.38441     -273.7857      -349.38441      0              3692.1062      46.474296      20.047001      20.857         19431.847      5054.4696      2760.5868      3261.2621      464.4067      -1119.6619      325.50681    
     29500   267.98052     -349.59644     -271.06937     -349.59644      0              4789.9653      46.325671      20.047001      20.857         19369.703      6361.017       4226.5819      3782.2971     -185.71672     -1646.7851      346.03982    
     30000   273.90262     -346.57303     -266.3106      -346.57303      0              5143.2718      46.289149      20.047001      20.857         19354.433      6219.3124      3400.2137      5810.2894      955.64241     -658.29307     -2009.4482    
     30500   269.17782     -348.18521     -269.3073      -348.18521      0              4683.7563      46.271634      20.047001      20.857         19347.109      5874.5723      2734.0513      5442.6454      1424.9659      2215.8712     -302.63062    
     31000   272.52198     -348.19871     -268.34085     -348.19871      0              6145.2128      46.142082      20.047001      20.857         19292.941      5756.6523      7318.9214      5360.0647      438.67423      20.027627      151.5616     
     31500   264.05985     -348.66988     -271.29169     -348.66988      0              5409.3825      46.220414      20.047001      20.857         19325.693      4018.6459      7906.8838      4302.6178     -1358.1144     -209.5443       436.27938    
     32000   263.66262     -349.47306     -272.21128     -349.47306      0              3553.2927      46.351665      20.047001      20.857         19380.572      4978.3194      3413.1945      2268.3642      1517.1299      1075.6545      1106.5544    
     32500   269.47543     -349.04773     -270.0826      -349.04773      0              3062.5377      46.448143      20.047001      20.857         19420.911      3561.1842      3416.3662      2210.0626      9.6595542      271.82069      413.67847    
     33000   272.35813     -350.5405      -270.73065     -350.5405       0              4601.7994      46.260623      20.047001      20.857         19342.506      4035.1952      5246.8347      4523.3682      1325.5303     -520.23491     -860.31518    
     33500   258.92153     -350.58696     -274.71447     -350.58696      0              5380.9322      46.112866      20.047001      20.857         19280.725      6563.9203      5217.1345      4361.7418      259.28959      444.44889      1401.0538    
     34000   262.4844      -352.77222     -275.8557      -352.77222      0              5892.1384      46.134044      20.047001      20.857         19289.58       6253.5973      7340.5035      4082.3145     -325.19765      1683.3456     -1563.9939    
     34500   261.74406     -352.16792     -275.46834     -352.16792      0              5543.2046      46.323444      20.047001      20.857         19368.772      4935.6149      6914.7536      4779.2453     -388.69656     -760.86687     -133.34536    
     35000   262.95489     -351.3803      -274.32591     -351.3803       0              3586.9381      46.168957      20.047001      20.857         19304.178      4543.9931      3059.604       3157.2172      834.27501     -394.67646      674.43128    
     35500   266.35448     -350.21941     -272.16882     -350.21941      0              3556.5201      46.100234      20.047001      20.857         19275.444      4082.2425      4090.8329      2496.4849     -565.78289     -1177.9294      333.77581    
     36000   259.29269     -349.55437     -273.57312     -349.55437      0              3514.54        46.344784      20.047001      20.857         19377.695      3500.4013      4461.0344      2582.1842     -793.84565     -924.71574      473.59203    
     36500   265.56226     -352.14388     -274.32544     -352.14388      0              3877.2204      46.444465      20.047001      20.857         19419.374      4846.8339      2295.6594      4489.1678     -666.51794     -496.46822      1227.1934    
     37000   260.14698     -348.47848     -272.2469      -348.47848      0              4029.1302      46.518726      20.047001      20.857         19450.423      7134.7154      3450.6953      1501.9799     -548.30378      1986.9411      695.17374    
     37500   255.83465     -347.91889     -272.95096     -347.91889      0              4541.237       46.426583      20.047001      20.857         19411.897      4055.8543      3629.6105      5938.2463     -495.80116      1315.8208      588.97128    
     38000   269.58626     -349.02772     -270.03012     -349.02772      0              4984.4097      46.101762      20.047001      20.857         19276.082      6758.0255      2001.5834      6193.6201      426.80022      1175.7752      1792.2006    
     38500   264.86722     -348.62196     -271.00719     -348.62196      0              5105.3127      46.13632       20.047001      20.857         19290.532      4783.2522      4988.8241      5543.8617      610.08905     -1283.0043     -12.186954    
     39000   259.26585     -348.21509     -272.2417      -348.21509      0              3252.9925      46.688036      20.047001      20.857         19521.215      3981.0316      2857.0464      2920.8994     -589.19944      234.31111     -1009.7156    
     39500   262.92668     -344.96624     -267.92011     -344.96624      0              2794.4988      46.646045      20.047001      20.857         19503.658      2793.2979      3491.162       2099.0365     -687.49425      297.22053     -1079.7007    
     40000   260.81145     -348.70791     -272.28162     -348.70791      0              5131.6562      46.216419      20.047001      20.857         19324.023      6543.9765      3878.5814      4972.4108     -1048.1473      773.68359      1018.8893    
     40500   255.56157     -346.62933     -271.74142     -346.62933      0              4863.8884      46.305245      20.047001      20.857         19361.163      5104.4926      4687.2679      4799.9046     -1823.5128     -625.0987      -124.74592    
     41000   259.53063     -349.36516     -273.31418     -349.36516      0              3262.5058      46.754838      20.047001      20.857         19549.147      4689.3405      2078.2414      3019.9355      444.46525      664.7879       641.16458    
     41500   274.23776     -351.23852     -270.87788     -351.23852      0              2182.9413      46.630508      20.047001      20.857         19497.162      3120.5332      2334.9608      1093.3299     -611.19198      1132.5746      218.85469    
     42000   267.28577     -347.68791     -269.36442     -347.68791      0              5075.0048      46.138312      20.047001      20.857         19291.365      5339.8568      4776.8692      5108.2883      489.07376      1122.5122     -492.74495    
     42500   265.57984     -347.80804     -269.98445     -347.80804      0              4149.6071      45.994814      20.047001      20.857         19231.366      5015.7363      4777.9316      2655.1535     -2173.0171      1954.0872      2736.8811    
     43000   266.09289     -348.17278     -270.19885     -348.17278      0              6300.3156      46.389427      20.047001      20.857         19396.361      5492.5261      6926.8717      6481.5491     -288.56098     -17.197562     -979.98879    
     43500   268.43767     -349.02335     -270.36232     -349.02335      0              4381.8908      46.621058      20.047001      20.857         19493.211      3556.0151      5059.826       4529.8313     -1578.8155      196.71641      370.38113    
     44000   262.96069     -349.44054     -272.38445     -349.44054      0              5291.2321      46.31697       20.047001      20.857         19366.065      6754.5464      5519.2154      3599.9345      1695.1402      1029.2697     -692.54612    
     44500   263.95204     -348.95892     -271.61233     -348.95892      0              6238.5512      46.187684      20.047001      20.857         19312.008      5351.2024      6974.1081      6390.3429     -1538.655      -649.59092      1866.0368    
     45000   262.07684     -350.1167      -273.3196      -350.1167       0              3150.3974      46.471062      20.047001      20.857         19430.494      3436.3209      3130.0542      2884.8173     -801.29817     -721.98865      936.99534    
     45500   257.23744     -349.8248      -274.4458      -349.8248       0              5059.9135      46.601168      20.047001      20.857         19484.895      5013.7403      4997.24        5168.7603     -667.64565      1512.2763      1112.2455    
     46000   264.3725      -349.75477     -272.28497     -349.75477      0              6766.8616      46.362848      20.047001      20.857         19385.248      4487.0997      7578.1285      8235.3566      530.99326     -34.613881      159.14973    
     46500   271.62301     -349.48767     -269.89323     -349.48767      0              3837.0677      46.145078      20.047001      20.857         19294.194      3755.5348      2620.2918      5135.3764      41.676761      182.31189      119.69829    
     47000   263.97852     -347.92677     -270.57242     -347.92677      0              6372.7344      46.151032      20.047001      20.857         19296.683      8324.7768      6949.6716      3843.7549     -626.55756      1411.5345     -131.0747     
     47500   264.39763     -346.89092     -269.41376     -346.89092      0              4721.8332      46.468957      20.047001      20.857         19429.614      5026.9828      3783.8621      5354.6546      1004.2177      22.993539      1870.5564    
     48000   259.85957     -348.37713     -272.22976     -348.37713      0              3865.7118      46.442967      20.047001      20.857         19418.747      4115.0868      4902.6003      2579.4483     -1876.4244     -536.12401      1154.8689    
     48500   272.21649     -350.32663     -270.55829     -350.32663      0              5953.4565      46.311068      20.047001      20.857         19363.598      5935.2146      6617.2758      5307.879      -475.02907     -1654.1224      136.6401     
     49000   274.54951     -348.62196     -268.16996     -348.62196      0              6753.2857      46.352859      20.047001      20.857         19381.071      8654.3811      5543.3256      6062.1504     -898.76029      1977.9266     -1224.3989    
     49500   278.10721     -347.2011      -265.70658     -347.2011       0              4673.7955      46.464679      20.047001      20.857         19427.825      5957.9007      4476.5084      3586.9776      654.18119      20.572302     -1044.7653    
     50000   262.21019     -346.44255     -269.60638     -346.44255      0              3902.7816      46.718515      20.047001      20.857         19533.959      2785.9486      3668.0291      5254.3672     -935.24846      1811.723      -1089.3055    
     50500   265.34596     -347.84319     -270.08814     -347.84319      0              3414.9445      46.419644      20.047001      20.857         19408.996      5033.2544      3845.8111      1365.7681     -1883.5934     -1091.4534     -950.94386    
     51000   270.6599      -347.27191     -267.95969     -347.27191      0              1596.5677      46.087337      20.047001      20.857         19270.051      3293.1532      2305.8583     -809.30844     -541.67309     -123.42971      63.314878    
     51500   265.29039     -347.1027      -269.36393     -347.1027       0              6240.7487      46.360278      20.047001      20.857         19384.173      7755.4263      6729.8163      4237.0036      871.14551      782.18011      603.2683     
     52000   261.9722      -348.37941     -271.61298     -348.37941      0              4361.4159      46.650603      20.047001      20.857         19505.564      6972.6224      3655.8882      2455.7372     -509.11042      91.179222     -787.42739    
     52500   270.9808      -348.40599     -268.99974     -348.40599      0              4494.1757      46.540227      20.047001      20.857         19459.414      4744.4824      7965.6883      772.3564       250.38288      1286.1248      2075.8756    
     53000   270.67852     -351.43113     -272.11346     -351.43113      0              3699.3813      46.478942      20.047001      20.857         19433.789      3603.9194      1458.8776      6035.3468     -1153.7468      1179.908      -1584.2922    
     53500   263.89822     -348.1435      -270.81268     -348.1435       0              4590.8388      46.376146      20.047001      20.857         19390.808      6139.2544      4639.0693      2994.1928     -1237.6075     -930.92037     -75.487017    
     54000   266.74894     -347.45289     -269.28672     -347.45289      0              4702.6798      46.48652       20.047001      20.857         19436.958      6129.7469      1905.3995      6072.8929     -558.58723      2206.5446     -270.92045    
     54500   257.53628     -350.48916     -275.0226      -350.48916      0              4900.637       46.746414      20.047001      20.857         19545.625      5795.0535      4538.3466      4368.5108      736.27637     -559.30873     -975.44137    
     55000   273.18997     -350.22402     -270.17042     -350.22402      0              5960.3959      46.637792      20.047001      20.857         19500.208      5377.5178      7071.9808      5431.6891     -318.7014       2689.5181     -238.78018    
     55500   263.0564      -349.31213     -272.22798     -349.31213      0              4334.4199      46.638348      20.047001      20.857         19500.44       4037.6338      5722.4875      3243.1383      1488.7154      1612.2689      559.21037    
     56000   267.45624     -347.14257     -268.76914     -347.14257      0              6589.6236      46.273798      20.047001      20.857         19348.014      8110.9904      5322.6239      6335.2565     -432.91397     -1396.0635     -915.4961     
     56500   266.03902     -349.4164      -271.45825     -349.4164       0              4635.4086      46.3188        20.047001      20.857         19366.831      5709.2808      1975.3045      6221.6406     -310.23316      1182.8833      488.44987    
     57000   260.95364     -350.95644     -274.48848     -350.95644      0              4605.8518      46.571512      20.047001      20.857         19472.495      3209.2727      5999.161       4609.1218      446.17077     -1455.5592     -466.61306    
     57500   264.81044     -349.92667     -272.32854     -349.92667      0              4186.2764      46.608296      20.047001      20.857         19487.875      4430.4975      4318.201       3810.1307      553.55964      884.16354      943.53769    
     58000   264.76108     -350.928       -273.34434     -350.928        0              4006.3323      46.527099      20.047001      20.857         19453.925      4607.3363      4454.876       2956.7847      1726.7361      1750.3999     -364.62852    
     58500   268.97214     -349.0373      -270.21966     -349.0373       0              5927.0833      46.427799      20.047001      20.857         19412.405      7137.9439      5358.944       5284.3621     -251.32383     -841.74636     -1295.2657    
     59000   262.40642     -348.60419     -271.71052     -348.60419      0              5617.5623      46.400021      20.047001      20.857         19400.791      5446.8137      6588.3187      4817.5546      544.06246      224.90748      265.59734    
     59500   270.77083     -350.97136     -271.62664     -350.97136      0              4237.177       46.51865       20.047001      20.857         19450.392      2088.4103      6494.7727      4128.3481     -555.48617     -1044.3558     -191.15157    
     60000   267.44573     -351.99521     -273.62485     -351.99521      0              4193.5964      46.762285      20.047001      20.857         19552.261      4441.4794      3854.0959      4285.2139      342.98808     -1823.0879      698.61791    
     60500   264.63261     -350.23473     -272.68871     -350.23473      0              4004.7921      46.52226       20.047001      20.857         19451.901      4317.9475      4337.6266      3358.8022     -872.14078     -200.20076     -246.86278    
     61000   264.92335     -350.15156     -272.52035     -350.15156      0              6016.2023      46.449904      20.047001      20.857         19421.648      5965.2701      6227.5231      5855.8137     -549.25675     -1587.0519      829.06001    
     61500   270.86802     -349.60708     -270.23388     -349.60708      0              7617.1167      46.546021      20.047001      20.857         19461.836      12160.655      5380.7393      5309.956      -2001.0354     -973.12665     -552.86594    
     62000   266.31336     -348.05281     -270.01428     -348.05281      0              4069.2116      46.564894      20.047001      20.857         19469.727      5158.6959      6249.9034      799.0355      -1035.339      -12.150555     -1063.1972    
     62500   261.91256     -349.31091     -272.56195     -349.31091      0              5584.5963      46.69321       20.047001      20.857         19523.379      8941.1233      3829.3578      3983.3079     -439.47802     -283.01173      836.54661    
     63000   270.38257     -345.9075      -266.67655     -345.9075       0              4843.3001      46.544169      20.047001      20.857         19461.062      7306.8674      4660.0977      2562.9352      660.66189     -55.391014     -348.00672    
     63500   263.24782     -348.70776     -271.56753     -348.70776      0              4680.0297      46.432044      20.047001      20.857         19414.18       6426.662       3479.4853      4133.9419      1181.8272     -889.27809      150.02862    
     64000   270.29814     -347.73897     -268.53276     -347.73897      0              4870.7604      46.470951      20.047001      20.857         19430.448      4964.6279      3451.3081      6196.3451      305.12339      38.116726     -906.64531    
     64500   261.36342     -350.03168     -273.44364     -350.03168      0              3812.8198      46.407434      20.047001      20.857         19403.89       5233.6322      3030.403       3174.4242      126.74167     -361.43304     -616.70241    
     65000   261.02724     -352.23356     -275.74403     -352.23356      0              5700.0406      46.177158      20.047001      20.857         19307.607      4189.9953      6528.3876      6381.739      -288.22038      380.25373      1249.5575    
     65500   258.8751      -350.42998     -274.5711      -350.42998      0              5929.2266      46.146667      20.047001      20.857         19294.858      7403.5424      4351.6711      6032.4663      2423.397      -419.20138      475.44708    
     66000   272.49735     -349.54119     -269.69055     -349.54119      0              2762.1358      46.381955      20.047001      20.857         19393.237      2617.1857      2531.4831      3137.7386     -678.5759      -547.82801     -512.02932    
     66500   267.58188     -347.16488     -268.75462     -347.16488      0              3880.0507      46.384558      20.047001      20.857         19394.325      4677.7224      4041.688       2920.7418     -384.4629      -453.9698      -1347.3337    
     67000   264.007       -350.74642     -273.38372     -350.74642      0              6358.8529      46.091691      20.047001      20.857         19271.872      6416.1806      5798.3159      6862.0621      500.41368     -642.28998     -334.17151    
     67500   263.62876     -351.64511     -274.39325     -351.64511      0              3075.0727      46.266533      20.047001      20.857         19344.977      4406.467       4162.0732      656.67803     -940.92933      1132.4256      1223.211     
     68000   261.30837     -351.54895     -274.97704     -351.54895      0              2718.5271      46.503326      20.047001      20.857         19443.985      3517.5704      2779.0272      1858.9837     -1332.6932     -548.47695      1513.44      
     68500   268.42031     -349.67574     -271.0198      -349.67574      0              3265.4516      46.494889      20.047001      20.857         19440.457      3111.6736      3488.7564      3195.9247      1495.1459      594.08674     -1376.8923    
     69000   266.12335     -352.66947     -274.68661     -352.66947      0              3679.8559      46.184321      20.047001      20.857         19310.602      4736.107       3712.3451      2591.1156     -166.88826     -1167.5792      767.08507    
     69500   270.04707     -353.26986     -274.13722     -353.26986      0              4504.542       46.097934      20.047001      20.857         19274.482      5269.5454      3858.1437      4385.937       358.15461      1024.6234     -599.74855    
     70000   260.9759      -350.98406     -274.50957     -350.98406      0              1834.4437      46.204584      20.047001      20.857         19319.074      1385.1505      1852.8295      2265.3511     -1058.8897     -880.44792     -313.19421    
     70500   260.40214     -350.84775     -274.54139     -350.84775      0              5069.8695      46.260698      20.047001      20.857         19342.537      5973.6168      4962.2381      4273.7535     -172.66731      1396.128      -677.19945    
     71000   261.49556     -350.89648     -274.26971     -350.89648      0              4459.474       46.254225      20.047001      20.857         19339.831      3796.5762      5084.5616      4497.2843     -386.81023     -289.48709     -1320.3718    
     71500   256.61336     -347.50699     -272.31087     -347.50699      0              4179.5537      46.158916      20.047001      20.857         19299.98       3537.8084      5310.7288      3690.124      -870.65385     -534.87578     -1026.1747    
     72000   270.22504     -347.83456     -268.64977     -347.83456      0              5807.0513      46.170915      20.047001      20.857         19304.997      7926.6707      5349.7736      4144.7094     -346.68962      940.40553      389.59369    
     72500   258.59253     -348.2154      -272.43932     -348.2154       0              2470.4081      46.695937      20.047001      20.857         19524.519      4476.1604      1513.0923      1421.9716     -755.96265     -1090.0513     -1299.4362    
     73000   269.25669     -351.89169     -272.99066     -351.89169      0              5969.5504      46.620715      20.047001      20.857         19493.068      6153.9768      5482.4786      6272.1957     -820.39999      1899.8074     -315.98442    
     73500   266.894       -347.87401     -269.66533     -347.87401      0              6715.5823      46.149269      20.047001      20.857         19295.946      8354.8614      4451.8737      7340.0118     -48.181706     -815.33061     -401.15493    
     74000   273.24314     -351.90719     -271.838       -351.90719      0              5485.38        46.134955      20.047001      20.857         19289.961      7249.699       5093.9588      4112.4821      457.93722     -441.81409     -1193.6489    
     74500   269.12864     -351.54888     -272.68538     -351.54888      0              3996.5939      46.409535      20.047001      20.857         19404.769      5728.4109      3574.0507      2687.3201     -88.007241     -623.09933      2038.7034    
     75000   262.18413     -348.75854     -271.93        -348.75854      0              3487.2735      46.447457      20.047001      20.857         19420.625      5733.5136      2268.1522      2460.1547      555.74335     -1618.1429      452.09208    
     75500   267.42196     -350.23815     -271.87476     -350.23815      0              5899.8737      46.219533      20.047001      20.857         19325.325      5174.1678      7837.1287      4688.3247     -1553.3227      140.75568      674.49889    
     76000   261.28314     -349.21123     -272.64671     -349.21123      0              3422.1229      46.164868      20.047001      20.857         19302.468      6903.5227      1381.6006      1981.2455      426.8739       1379.5741     -258.09489    
     76500   262.99554     -355.34267     -278.27636     -355.34267      0              2647.6446      46.356168      20.047001      20.857         19382.455      4375.846      -94.103123      3661.191      -470.84479      560.154        1187.0474    
     77000   253.9579      -351.94475     -277.52677     -351.94475      0              6273.0287      46.31027       20.047001      20.857         19363.264      5115.3373      7946.1399      5757.6091      910.85585      1319.8429     -305.93472    
     77500   266.70921     -351.94831     -273.79378     -351.94831      0              6207.7775      46.278433      20.047001      20.857         19349.952      8154.9197      6030.2714      4438.1416      1545.3423      704.43127     -106.8177     
     78000   266.154       -347.36862     -269.37678     -347.36862      0              4283.3393      46.451395      20.047001      20.857         19422.271      5613.688       3317.7708      3918.5591     -814.70411     -1594.1248      314.45533    
     78500   260.0953      -350.94276     -274.72632     -350.94276      0              3828.9727      46.602795      20.047001      20.857         19485.574      3013.023       5837.8138      2636.0812     -1164.2948     -684.16507      351.71307    
     79000   253.98972     -350.86638     -276.43907     -350.86638      0              3514.7979      46.626303      20.047001      20.857         19495.404      4135.6623      3576.9839      2831.7476      889.02521     -714.81674      928.96524    
     79500   261.75576     -348.96531     -272.2623      -348.96531      0              3595.4427      46.452454      20.047001      20.857         19422.714      3840.143       3545.8483      3400.3367      111.68149      1004.7605      519.51021    
     80000   258.27875     -348.55652     -272.87239     -348.55652      0              5710.9092      46.193855      20.047001      20.857         19314.588      8876.8573      3930.9829      4324.8874      743.81508     -2412.1715     -371.9348     
     80500   257.53508     -349.73036     -274.26415     -349.73036      0              5778.3752      46.20732       20.047001      20.857         19320.218      5174.6682      7419.2281      4741.2294     -1089.9657      1170.9806     -1762.2987    
     81000   267.22618     -351.81611     -273.51009     -351.81611      0              2077.3038      46.110342      20.047001      20.857         19279.67       3154.5066      2858.5208      218.88408      936.18167     -28.968386     -450.34268    
     81500   262.53609     -351.06538     -274.1337      -351.06538      0              4410.5922      46.119701      20.047001      20.857         19283.583      3871.7565      4237.9481      5122.072      -610.05689     -454.61956     -741.50539    
     82000   264.56584     -351.63208     -274.10563     -351.63208      0              4458.7437      46.336397      20.047001      20.857         19374.188      7122.1167      4272.5278      1981.5867     -218.67913     -38.297148     -819.91873    
     82500   275.29619     -349.94497     -269.27417     -349.94497      0              2427.4746      46.480763      20.047001      20.857         19434.551      1785.1698      3293.1391      2204.115       587.23189     -742.16089     -2003.3096    
     83000   272.05309     -350.87383     -271.15337     -350.87383      0              6106.4141      46.148302      20.047001      20.857         19295.542      6877.9892      5554.7606      5886.4925      729.73201     -365.67113      144.56844    
     83500   261.73512     -349.19957     -272.5026      -349.19957      0              3711.1719      46.129919      20.047001      20.857         19287.855      5723.818       3809.3726      1600.3251     -2339.8571      72.564377     -765.49953    
     84000   269.84148     -347.25257     -268.18018     -347.25257      0              3558.7543      46.274007      20.047001      20.857         19348.102      5092.5277      1930.2359      3653.4993      817.36543      204.95675     -160.52653    
     84500   260.68138     -349.91363     -273.52545     -349.91363      0              3492.4854      46.118234      20.047001      20.857         19282.97       3648.2821      3636.7188      3192.4554      895.4804      -1833.5928      249.84543    
     85000   261.08172     -350.20887     -273.70338     -350.20887      0              4138.7962      46.225811      20.047001      20.857         19327.95       4803.3369      4142.2504      3470.8014      231.84734      879.6912       2116.5331    
     85500   271.18801     -349.08817     -269.6212      -349.08817      0              5526.9842      46.424521      20.047001      20.857         19411.035      4602.9593      6368.7291      5609.2644     -1243.4759      117.29402      1269.3926    
     86000   268.48344     -349.17101     -270.49657     -349.17101      0              2738.5828      46.207437      20.047001      20.857         19320.267      3562.3886      1037.4172      3615.9426      881.69536     -411.9708       52.764805    
     86500   264.66357     -351.87032     -274.31523     -351.87032      0              2308.2189      46.172872      20.047001      20.857         19305.815      1150.3041      2153.0604      3621.2922     -686.24383      636.14862      1023.5505    
     87000   263.6522      -349.64687     -272.38814     -349.64687      0              5140.4991      46.259098      20.047001      20.857         19341.868      5254.214       5430.3588      4736.9244     -9.3772108      477.21453      1030.3911    
     87500   265.41263     -349.63544     -271.86085     -349.63544      0              2010.0288      46.446084      20.047001      20.857         19420.051      1479.8063      2333.4808      2216.7991      305.84644      31.207123      29.861418    
     88000   266.38566     -348.61248     -270.55276     -348.61248      0              5487.0818      46.533766      20.047001      20.857         19456.712      8685.4448      3611.9651      4163.8353      932.69445      1132.7128     -582.16531    
     88500   269.39814     -350.70262     -271.76015     -350.70262      0              4278.1165      46.372505      20.047001      20.857         19389.286      4932.758       1922.9352      5978.6563     -34.80471       1691.3714     -824.87113    
     89000   260.0242      -352.02607     -275.83047     -352.02607      0              2648.0439      46.062176      20.047001      20.857         19259.531      5745.0017      863.54724      1335.5828     -898.83919      472.10572      293.92624    
     89500   256.72351     -351.53518     -276.30678     -351.53518      0              5243.2933      45.892504      20.047001      20.857         19188.588      9145.8728      4002.5866      2581.4204      1173.5663     -245.48536      1768.5752    
     90000   259.33458     -352.1027      -276.10918     -352.1027       0              2957.1315      46.169508      20.047001      20.857         19304.408      4144.8053      1847.0667      2879.5225      899.01749      269.3446      -805.13515    
     90500   264.53118     -350.17605     -272.65975     -350.17605      0              4474.2189      46.325111      20.047001      20.857         19369.47       7222.1465      1875.2923      4325.2181     -64.768731      363.47559     -493.6078     
     91000   261.72143     -350.0393      -273.34635     -350.0393       0              5133.2695      46.320641      20.047001      20.857         19367.6        6767.4768      5194.2822      3438.0494      381.17509     -936.55072      990.60615    
     91500   264.74483     -351.95462     -274.37572     -351.95462      0              5193.1802      46.05041       20.047001      20.857         19254.611      5892.3992      4580.1053      5107.0361     -682.93484      82.195913      1517.0268    
     92000   264.77908     -349.46378     -271.87484     -349.46378      0              6660.9673      45.781453      20.047001      20.857         19142.155      6913.0648      6976.5958      6093.2412      122.69879      938.61571     -1986.5283    
     92500   264.43457     -349.45016     -271.96218     -349.45016      0              5799.8288      46.277363      20.047001      20.857         19349.505      3507.0532      6887.7878      7004.6453     -1568.8929     -340.96862     -753.04685    
     93000   262.16193     -348.50511     -271.68308     -348.50511      0             -32.091481      46.608066      20.047001      20.857         19487.779     -717.90328     -58.374859      680.0037       54.884543      1006.1768     -1449.0473    
     93500   262.43715     -350.69679     -273.79411     -350.69679      0              5842.3183      46.332544      20.047001      20.857         19372.577      7784.5419      4116.9837      5625.4292     -122.36695      502.83556      1082.2004    
     94000   268.08565     -351.09527     -272.5374      -351.09527      0              5353.8336      46.1089        20.047001      20.857         19279.067      7013.6964      4465.9177      4581.8867      657.22545     -255.7646      -566.95544    
     94500   259.40058     -349.33273     -273.31986     -349.33273      0              4202.3934      46.414836      20.047001      20.857         19406.985      5482.9144      3698.4253      3425.8406     -610.79945     -180.98532      363.17577    
     95000   263.23179     -350.90645     -273.77092     -350.90645      0              4228.2962      46.631112      20.047001      20.857         19497.415      3909.5247      2954.6586      5820.7053      2178.0168      219.7442       950.81483    
     95500   261.71061     -349.58787     -272.8981      -349.58787      0              7771.2383      46.35183       20.047001      20.857         19380.641      7322.2236      7834.3429      8157.1483      326.8976      -166.97497     -366.44557    
     96000   256.73243     -349.3208      -274.08979     -349.3208       0              4574.5787      46.56292       20.047001      20.857         19468.902      3872.0819      5873.3484      3978.3058      1085.1973     -338.00278     -2037.6644    
     96500   257.24625     -349.08156     -273.69998     -349.08156      0              6424.6901      46.498804      20.047001      20.857         19442.094      4849.8777      6667.8702      7756.3224     -456.00031     -551.40157     -382.42773    
     97000   264.78786     -351.12905     -273.53753     -351.12905      0              4432.1469      46.248733      20.047001      20.857         19337.534      5559.6784      5035.1661      2701.5962      521.76708     -887.71165      1041.1143    
     97500   262.6835      -351.29459     -274.31973     -351.29459      0              4067.9455      46.096044      20.047001      20.857         19273.692      6800.7608      3358.5896      2044.486      -1216.926       0.22967894     746.24956    
     98000   265.7638      -351.92596     -274.04846     -351.92596      0              2571.5125      46.340381      20.047001      20.857         19375.854      2769.4432      2033.4249      2911.6694      345.29947     -1217.3596      588.08575    
     98500   259.1513      -351.07101     -275.13119     -351.07101      0              2997.7599      46.538985      20.047001      20.857         19458.894      1833.813       4402.2317      2757.2349      510.438        1351.8061      1852.8252    
     99000   267.22793     -350.2611      -271.95457     -350.2611       0              3592.5219      46.509574      20.047001      20.857         19446.597      4551.8134      2030.0568      4195.6954     -469.82627     -686.66255     -2035.6262    
     99500   265.30456     -347.18652     -269.4436      -347.18652      0              5523.4043      46.404056      20.047001      20.857         19402.478      7109.6765      5910.3521      3550.1842      172.87873      2204.5859      671.79893    
    100000   272.45893     -349.94944     -270.11005     -349.94944      0              2062.7284      46.364252      20.047001      20.857         19385.835      4391.3962      2107.2811     -310.49192     -649.39957      623.22926     -17.566051    
    100500   263.96738     -349.56749     -272.2164      -349.56749      0              5013.2652      46.387572      20.047001      20.857         19395.585      5410.083       3009.2086      6620.504       511.10592      1760.7199      305.47338    
    101000   261.16508     -349.42112     -272.8912      -349.42112      0              5009.5785      46.357513      20.047001      20.857         19383.017      4237.0407      5867.3431      4924.3517      556.80143     -1371.9937      33.9425      
    101500   256.88412     -348.17475     -272.89929     -348.17475      0              3851.7475      46.321473      20.047001      20.857         19367.948      2378.0928      6414.5865      2762.5631     -372.69447      376.64182     -303.19687    
    102000   263.78995     -349.30095     -272.00185     -349.30095      0              6130.4099      46.320503      20.047001      20.857         19367.543      7340.8331      4760.9052      6289.4912      794.22741      1581.6867      416.37018    
    102500   266.95145     -351.66399     -273.43847     -351.66399      0              3712.2155      46.158487      20.047001      20.857         19299.801      3685.295       5307.5201      2143.8313     -625.07084      901.38558     -626.85724    
    103000   262.13143     -350.45457     -273.64148     -350.45457      0              6176.363       46.223114      20.047001      20.857         19326.822      5074.1031      6983.2652      6471.7206      266.89569      999.58191     -1103.1975    
    103500   260.03864     -349.39739     -273.19755     -349.39739      0              4442.0919      46.562945      20.047001      20.857         19468.913      2642.1617      5720.3253      4963.7888     -273.45505      770.29889      167.51121    
    104000   264.82561     -349.31439     -271.71182     -349.31439      0              5713.9728      46.474657      20.047001      20.857         19431.998      6273.8728      6865.0103      4003.0353     -821.23069      1511.4539      455.33221    
    104500   267.43404     -351.74817     -273.38124     -351.74817      0              5157.7368      46.240754      20.047001      20.857         19334.198      5015.6258      5776.3873      4681.1972      1999.4769      746.48257      427.73784    
    105000   264.97876     -349.18683     -271.53938     -349.18683      0              5800.6227      46.436189      20.047001      20.857         19415.913      4274.6069      6919.0046      6208.2566     -73.259883      948.46495     -981.137      
    105500   268.53692     -347.09696     -268.40685     -347.09696      0              4887.3433      46.730318      20.047001      20.857         19538.894      5504.2568      5397.6336      3760.1396      785.6396       1191.1186      2228.2227    
    106000   261.66052     -347.37662     -270.70152     -347.37662      0              5044.5469      46.642264      20.047001      20.857         19502.078      5222.0962      2494.4848      7417.0597     -1971.3993      176.01145      37.995644    
    106500   272.42749     -347.85798     -268.02781     -347.85798      0              5530.2628      46.35555       20.047001      20.857         19382.196      5416.015       6434.7716      4740.0018     -537.86825      22.381793      1659.1683    
    107000   269.73237     -349.36456     -270.32414     -349.36456      0              6395.4774      46.253616      20.047001      20.857         19339.576      8971.4551      3757.9313      6457.0459     -499.65051      1271.2117      465.89483    
    107500   268.67334     -347.88297     -269.15288     -347.88297      0              5248.6205      46.409172      20.047001      20.857         19404.617      4872.6146      4574.2897      6298.9571     -2157.6619      106.7042      -308.97533    
    108000   272.7319      -349.33071     -269.41133     -349.33071      0              5012.5082      46.498856      20.047001      20.857         19442.116      6095.5581      3468.7236      5473.2429      515.03178      454.23384     -611.57127    
    108500   269.69607     -349.29733     -270.26755     -349.29733      0              5615.8575      46.430881      20.047001      20.857         19413.694      5867.5536      6036.5754      4943.4435      263.50599      2182.3655     -1875.7569    
    109000   260.93695     -347.43219     -270.96912     -347.43219      0              5462.5955      46.43829       20.047001      20.857         19416.792      5631.5322      6958.5005      3797.7538     -395.48204     -27.8029        83.988904    
    109500   269.76517     -349.28738     -270.23735     -349.28738      0              4618.9149      46.518068      20.047001      20.857         19450.149      7162.0601      3128.5121      3566.1725     -873.73439      1892.7996      521.7972     
    110000   269.10808     -350.28329     -271.42581     -350.28329      0              4673.8654      46.641282      20.047001      20.857         19501.667      6164.7766      4224.6714      3632.1481     -53.486119      506.89657     -773.50986    
    110500   265.70825     -352.65653     -274.79531     -352.65653      0              4195.4002      46.698899      20.047001      20.857         19525.758      4198.626       3204.2517      5183.3229      198.02468      865.68619     -1676.1237    
    111000   267.24568     -349.63983     -271.3281      -349.63983      0              5269.6003      46.634235      20.047001      20.857         19498.72       6178.1412      5614.3416      4016.318      -1298.4409      1337.8694     -379.76472    
    111500   263.91373     -349.84558     -272.51021     -349.84558      0              4150.0881      46.223044      20.047001      20.857         19326.793      5207.7353      4194.2222      3048.3067     -660.76288     -929.81527      467.88259    
    112000   263.60936     -351.05319     -273.80702     -351.05319      0              5722.3071      46.065353      20.047001      20.857         19260.859      8151.9364      3891.0159      5123.9689     -211.16776      689.21636     -1943.2307    
    112500   259.17613     -351.08966     -275.14257     -351.08966      0              4477.2576      46.456049      20.047001      20.857         19424.217      5463.429       3876.3401      4092.0038      98.272956      156.49832     -2147.8033    
    113000   263.4675      -350.14516     -272.94055     -350.14516      0              2938.4025      46.684399      20.047001      20.857         19519.695      5691.7697      1449.8966      1673.5411     -129.81678     -1085.8019     -904.54226    
    113500   264.11315     -348.86852     -271.47472     -348.86852      0              3541.66        46.533836      20.047001      20.857         19456.741      4110.2814      3661.0248      2853.6736     -473.07723     -808.95076      277.33084    
    114000   264.01889     -349.30639     -271.94021     -349.30639      0              5997.9527      46.259444      20.047001      20.857         19342.013      7820.6814      6087.2522      4085.9247     -61.289211      619.36853      1042.824     
    114500   265.48504     -348.36269     -270.56687     -348.36269      0              5349.9275      46.157874      20.047001      20.857         19299.544      6275.3539      5365.1946      4409.234       96.379549      1044.3018     -46.131943    
    115000   264.17312     -345.78908     -268.3777      -345.78908      0              4171.2054      46.325276      20.047001      20.857         19369.538      3970.937       4182.8871      4359.7919      467.77972     -366.32414     -66.849018    
    115500   270.56762     -349.94734     -270.66217     -349.94734      0              4673.971       46.498562      20.047001      20.857         19441.993      4362.3555      5304.3349      4355.2226     -1769.0801     -129.87476     -845.96344    
    116000   257.29181     -349.34859     -273.95366     -349.34859      0              2820.8767      46.498723      20.047001      20.857         19442.06       2923.024       2486.3221      3053.284      -1660.8804     -2124.6775     -94.626708    
    116500   259.52746     -346.52078     -270.47073     -346.52078      0              4561.9351      46.304661      20.047001      20.857         19360.919      4146.4181      6337.0757      3202.3116      528.94677      1499.3538     -73.025163    
    117000   263.74323     -350.14843     -272.86302     -350.14843      0              5673.3996      46.16835       20.047001      20.857         19303.924      5903.8884      5001.2637      6115.0467     -1256.3669      1702.3165     -324.19824    
    117500   257.31385     -350.85148     -275.4501      -350.85148      0              6272.3216      46.397608      20.047001      20.857         19399.782      7019.1459      6724.2263      5073.5926     -615.89888      404.78631      290.78989    
    118000   262.5389      -349.84589     -272.91339     -349.84589      0              5079.9821      46.554346      20.047001      20.857         19465.317      4141.1836      7096.757       4002.0056      704.91493     -913.95234      717.12427    
    118500   266.44052     -348.1279      -270.05211     -348.1279       0              5595.2268      46.395543      20.047001      20.857         19398.919      4289.3057      7323.3146      5173.0602     -397.64436     -2792.4978     -2412.0561    
    119000   275.23089     -349.63885     -268.98718     -349.63885      0              7280.1445      46.261194      20.047001      20.857         19342.744      9249.6508      5531.2583      7059.5245      61.889206      575.5594      -461.43872    
    119500   264.56514     -348.36979     -270.84354     -348.36979      0              2947.4365      46.434526      20.047001      20.857         19415.218      824.84301      5368.9924      2648.4741     -519.26873     -1135.799       468.04871    
    120000   263.28353     -349.36553     -272.21483     -349.36553      0              3683.3871      46.656949      20.047001      20.857         19508.218      1888.8329      4043.5063      5117.8221     -293.90458      1191.827       1084.1348    
    120500   260.24384     -347.82424     -271.56427     -347.82424      0              6742.1013      46.153397      20.047001      20.857         19297.672      9441.054       6224.2201      4561.0298     -184.35162      1851.1778     -652.6799     
    121000   264.41424     -349.93552     -272.45349     -349.93552      0              4744.4513      45.942391      20.047001      20.857         19209.447      3478.6909      6133.1365      4621.5263     -1112.2187      256.13577      570.08339    
    121500   265.29068     -348.73776     -270.99891     -348.73776      0              3903.7866      46.469019      20.047001      20.857         19429.64       5756.7109      4121.9449      1832.7038     -694.08028      523.87028     -536.0359     
    122000   266.84922     -350.64767     -272.45211     -350.64767      0              6033.8455      46.640593      20.047001      20.857         19501.379      5705.3478      6748.4977      5647.691      -684.97605      1025.8345     -1566.8986    
    122500   264.66789     -348.6765      -271.12014     -348.6765       0              5188.5053      46.514835      20.047001      20.857         19448.797      5768.4929      4023.4882      5773.5348      49.119608      151.56415      383.08198    
    123000   264.53615     -351.20966     -273.69191     -351.20966      0              4663.6464      46.414181      20.047001      20.857         19406.711      3800.4106      3717.4073      6473.1212      124.62437     -50.144145     -409.28442    
    123500   266.59048     -350.14251     -272.02277     -350.14251      0              3063.1322      46.404514      20.047001      20.857         19402.669      4144.9273      3048.1051      1996.3642     -2079.7473      22.07838       845.72984    
    124000   268.64134     -348.62301     -269.9023      -348.62301      0              5988.9664      46.466641      20.047001      20.857         19428.646      6126.2959      6096.8458      5743.7576     -749.70372     -1194.7924      63.340261    
    124500   267.57276     -349.26054     -270.85296     -349.26054      0              4725.3447      46.46182       20.047001      20.857         19426.63       5968.4384      5530.5447      2677.051      -1100.3974      1329.1865     -403.25683    
    125000   266.62391     -346.03092     -267.90138     -346.03092      0              5047.4106      46.374953      20.047001      20.857         19390.309      4902.9802      5396.1786      4843.0731     -963.49853      19.665902      1314.7536    
    125500   269.16826     -350.14286     -271.26775     -350.14286      0              4349.3699      46.151201      20.047001      20.857         19296.754      4672.9295      4746.9263      3628.2541     -2068.3974      36.89898       235.20485    
    126000   266.54118     -347.42788     -269.32259     -347.42788      0              5587.4118      45.954168      20.047001      20.857         19214.371      6745.923       5753.5611      4262.7513      1966.3836      909.72706      1787.482     
    126500   261.67566     -349.93481     -273.25527     -349.93481      0              2961.3058      45.895804      20.047001      20.857         19189.967      4217.3474      2068.5305      2598.0396     -499.21006     -472.31576      34.962637    
    127000   266.50219     -350.38203     -272.28816     -350.38203      0              5276.6854      46.285798      20.047001      20.857         19353.032      6893.1448      3393.2818      5543.6294      176.73664      2446.6352      1299.1351    
    127500   262.41322     -349.37678     -272.48112     -349.37678      0              2124.0688      46.776713      20.047001      20.857         19558.293      196.4787       2710.824       3464.9038     -96.9561        1368.9232      938.48891    
    128000   266.17529     -350.73968     -272.7416      -350.73968      0              7111.2935      46.360865      20.047001      20.857         19384.419      7669.9958      6786.0417      6877.843       387.17905      1898.6353      625.02885    
    128500   267.40376     -349.19148     -270.83342     -349.19148      0              4615.1607      45.980118      20.047001      20.857         19225.221      5858.5697      4409.4679      3577.4446      44.035953      2163.7415      999.21553    
    129000   261.54426     -348.34243     -271.70139     -348.34243      0              3523.3089      46.319626      20.047001      20.857         19367.176      4116.1274      2432.2221      4021.5771      700.52917     -1137.8263     -1543.4224    
    129500   264.27775     -347.62499     -270.18296     -347.62499      0              3521.7522      46.644006      20.047001      20.857         19502.806      5206.8213      3273.9577      2084.4777     -692.21803      334.14162      75.867741    
    130000   264.21182     -349.38601     -271.9633      -349.38601      0              3952.6541      46.462573      20.047001      20.857         19426.945      1619.1561      5131.3827      5107.4236      794.39955      270.20356     -1729.2779    
    130500   266.76154     -348.96298     -270.79311     -348.96298      0              7922.475       46.135684      20.047001      20.857         19290.266      8227.8551      6993.4198      8546.1502     -830.77141     -443.42382     -1021.7056    
    131000   258.58393     -350.312       -274.53844     -350.312        0              5611.8167      46.126241      20.047001      20.857         19286.318      5211.0672      6066.2363      5558.1464      390.88581     -935.16228      722.63002    
    131500   257.72514     -351.10994     -275.58803     -351.10994      0              5869.1458      46.155221      20.047001      20.857         19298.435      6062.2363      6313.2181      5231.9831     -1843.3937      645.86509     -229.41917    
    132000   261.17844     -348.71356     -272.17973     -348.71356      0              5509.713       46.119277      20.047001      20.857         19283.406      6117.0411      5166.6441      5245.4539      1166.0856     -683.61499     -1758.6091    
    132500   271.41685     -348.86614     -269.33212     -348.86614      0              5747.9976      46.363445      20.047001      20.857         19385.497      6326.8939      4913.8154      6003.2836     -871.8857      -122.29321      1145.6218    
    133000   268.26113     -347.65224     -269.04295     -347.65224      0              3372.3441      46.466704      20.047001      20.857         19428.672      2591.378       3882.1086      3643.5457      51.875294      1755.1512      32.737496    
    133500   262.56923     -347.20328     -270.2619      -347.20328      0              3158.1101      46.276793      20.047001      20.857         19349.267      4618.1204      1808.3557      3047.8543     -483.25953      2289.0998     -1992.7026    
    134000   263.31465     -349.38848     -272.22866     -349.38848      0              7366.9919      45.914373      20.047001      20.857         19197.731      8296.3228      7076.2475      6728.4054     -824.68247      1651.088      -398.50403    
    134500   271.18752     -348.67695     -269.21013     -348.67695      0              4891.7195      46.037117      20.047001      20.857         19249.053      3808.6554      5268.3291      5598.1741     -605.22848      61.072391     -1593.0406    
    135000   261.60768     -351.0297      -274.37009     -351.0297       0              5934.9531      46.121652      20.047001      20.857         19284.399      7484.3947      5911.9562      4408.5083     -760.82458      864.99626     -420.07241    
    135500   262.46654     -349.82228     -272.91099     -349.82228      0              3109.4792      46.178286      20.047001      20.857         19308.079      5226.3825      1027.1101      3074.9449     -617.17308      74.384966     -2338.6408    
    136000   271.07098     -350.73296     -271.30029     -350.73296      0              3629.8256      46.277478      20.047001      20.857         19349.553      4265.6164      2385.3325      4238.5278      571.59857     -0.25468585    -16.973804    
    136500   268.48874     -349.43642     -270.76042     -349.43642      0              5016.2074      46.10464       20.047001      20.857         19277.286      7128.9407      5887.1839      2032.4977      1573.9669     -846.12869      1325.2642    
    137000   267.49218     -348.73825     -270.35428     -348.73825      0              4420.7724      46.148376      20.047001      20.857         19295.573      3329.2188      4168.6529      5764.4455      196.2776       1340.1416      380.9962     
    137500   267.24173     -346.98855     -268.67797     -346.98855      0              1620.7304      46.341188      20.047001      20.857         19376.192      1663.4989      2154.6856      1044.0067      1201.2262      402.09563      1780.5666    
    138000   271.85427     -349.89886     -270.23666     -349.89886      0              4808.6344      46.12414       20.047001      20.857         19285.439      4599.9354      4065.8174      5760.1503      766.41389      95.151774      280.00698    
    138500   271.72442     -351.73672     -272.11257     -351.73672      0              5384.5938      45.93088       20.047001      20.857         19204.633      6656.6097      5790.0223      3707.1492     -841.47068      1619.313      -497.87565    
    139000   253.42115     -350.99878     -276.73809     -350.99878      0              6428.4079      46.334496      20.047001      20.857         19373.393      7455.3833      6218.7926      5611.0478      149.70174      986.84682      945.74799    
    139500   266.3946      -349.8508      -271.78845     -349.8508       0              5363.4462      46.539315      20.047001      20.857         19459.032      4995.8334      6596.3259      4498.1792     -3184.7309      170.02387     -974.73566    
    140000   269.84588     -348.67277     -269.59909     -348.67277      0              6593.9726      46.019208      20.047001      20.857         19241.565      7317.7693      6513.4676      5950.681       530.60193     -1282.5024      1474.5966    
    140500   270.22843     -348.43826     -269.25248     -348.43826      0              5802.1069      45.801036      20.047001      20.857         19150.343      8039.3113      4215.4007      5151.6087      904.66495      666.42219     -2571.4991    
    141000   269.25464     -350.42883     -271.5284      -350.42883      0              3381.8716      46.202257      20.047001      20.857         19318.102      5268.2351      2774.705       2102.6747     -1610.6116     -330.19928     -1001.4787    
    141500   264.33419     -350.0966      -272.63802     -350.0966       0              5891.6877      46.379004      20.047001      20.857         19392.003      4875.7237      8163.5189      4635.8206     -100.40501     -283.22525      938.84556    
    142000   265.17118     -349.03261     -271.32877     -349.03261      0              5626.2732      46.150624      20.047001      20.857         19296.513      6374.2581      4551.1456      5953.4159      252.08207      1051.6013     -722.67726    
    142500   264.48491     -346.35485     -268.85211     -346.35485      0              6467.7929      46.171357      20.047001      20.857         19305.182      9229.1254      5632.4267      4541.8266     -588.11901     -424.51144      230.23798    
    143000   263.06093     -348.22387     -271.13841     -348.22387      0              3860.8663      46.288016      20.047001      20.857         19353.959      3518.5488      2214.709       5849.3411      891.924        866.19773      1216.9031    
    143500   263.70699     -347.30036     -270.02558     -347.30036      0              6576.3616      46.304413      20.047001      20.857         19360.815      7395.7674      8188.3644      4144.9529      791.8627       1460.481       318.85406    
    144000   263.85648     -348.81052     -271.49192     -348.81052      0              4874.7602      46.441306      20.047001      20.857         19418.053      4863.5732      6159.7657      3600.9416     -1827.8781      1394.9288     -1135.6516    
    144500   265.38382     -348.11762     -270.35147     -348.11762      0              2352.0831      46.542074      20.047001      20.857         19460.186      1263.5314      3949.1036      1843.6142     -432.48028      233.53185     -1153.4271    
    145000   253.80244     -345.74746     -271.37503     -345.74746      0              5991.1385      46.330169      20.047001      20.857         19371.584      6679.2359      6377.6956      4916.484       404.88658     -425.73248     -1371.8942    
    145500   260.25701     -347.07252     -270.8087      -347.07252      0              6842.7279      46.246839      20.047001      20.857         19336.742      7689.8813      5443.15        7395.1524     -58.646388      272.63658      605.537      
    146000   262.20573     -349.18804     -272.35317     -349.18804      0              4734.1419      46.270654      20.047001      20.857         19346.7        4951.8676      5363.0293      3887.5289      222.6687       961.42782      1812.7867    
[...]
   3763500   272.73641     -347.2414      -267.3207      -347.24268      0              4372.7546      46.517167      20.047001      20.857         19449.772      4704.9631      5004.9924      3408.3084     -554.76006     -236.07178      1651.0155    
   3764000   262.77196     -348.80034     -271.79955     -348.78365      0              3748.5957      46.324521      20.047001      20.857         19369.223      6449.4427      2206.3639      2589.9803     -392.57662      1562.3057      283.39886    
   3764500   265.7568      -348.64796     -270.77252     -348.66332      0              4181.9783      46.331321      20.047001      20.857         19372.066      4497.5376      3686.6002      4361.7971      2.6785405      1933.2692     -932.50527    
   3765000   262.39033     -348.04942     -271.16046     -348.07         0              5448.4369      46.465895      20.047001      20.857         19428.334      6129.6438      4477.2594      5738.4074      1483.1916      309.49763     -272.47091    
   3765500   269.83874     -347.8077      -268.73611     -347.83001      0              3337.7948      46.436335      20.047001      20.857         19415.974      6777.1528      1928.7729      1307.4587      870.65961      964.00577     -586.3084     
   3766000   274.21569     -349.7623      -269.40813     -349.74892      0              5697.76        46.085037      20.047001      20.857         19269.089      7528.6548      5482.1265      4082.4987     -1547.1963     -390.26719      1112.9799    
   3766500   270.07631     -349.70205     -270.56085     -349.69334      0              6326.7473      46.074815      20.047001      20.857         19264.816      5581.7035      6159.1031      7239.4354      398.46406     -1473.3873      30.108138    
   3767000   259.45821     -348.26051     -272.23076     -348.28493      0              4704.4631      46.343276      20.047001      20.857         19377.065      5017.2389      3297.6457      5798.5047      1340.3347     -159.38518      21.9526      
   3767500   266.11585     -349.91578     -271.93512     -349.92763      0              4836.6167      46.199216      20.047001      20.857         19316.83       7821.6449      856.85172      5831.3536     -1329.4154      1185.4624     -289.56581    
   3768000   274.73099     -348.81524     -268.31007     -348.80847      0              3599.6553      46.134269      20.047001      20.857         19289.674      3717.2867      3150.7899      3930.8894     -1493.5044     -341.41241      567.63701    
   3768500   263.90937     -346.43492     -269.10083     -346.45261      0              4410.2284      46.528363      20.047001      20.857         19454.453      3882.5514      4695.3885      4652.7453     -678.50338      645.2544       690.05992    
   3769000   263.07911     -349.83785     -272.74706     -349.82767      0              2723.2678      46.356495      20.047001      20.857         19382.591      5552.6928     -685.18866      3302.2992     -16.055287      191.57451      188.12214    
   3769500   257.42657     -348.95023     -273.51581     -348.9492       0              4126.3798      46.058261      20.047001      20.857         19257.894      5052.3944      5099.3014      2227.4434      56.724807      242.53727      619.14527    
   3770000   256.18471     -349.0953      -274.0248      -349.07511      0              4468.2998      46.057828      20.047001      20.857         19257.713      6343.3906      2698.8261      4362.6827     -850.6851       740.09168      279.4274     
   3770500   263.63912     -350.54341     -273.28851     -350.54785      0              4832.3133      46.299437      20.047001      20.857         19358.735      4252.8336      5165.0706      5079.0357      593.50028      1169.6382      665.01145    
   3771000   260.58426     -350.07792     -273.7182      -350.07078      0              4111.3412      46.313317      20.047001      20.857         19364.538      3020.1089      3516.6673      5797.2474      1931.1062      452.16928      1427.2963    
   3771500   259.67619     -350.88233     -274.7887      -350.90174      0              2749.8525      45.916434      20.047001      20.857         19198.593      3531.8847      2384.7681      2332.9047     -1473.5256      749.53259      633.1695     
   3772000   270.4116      -349.84256     -270.6031      -349.82624      0              5860.7964      45.723797      20.047001      20.857         19118.048      6693.5982      5433.9968      5454.7941      21.518966      56.526033     -1269.5789    
   3772500   268.6645      -347.34388     -268.61638     -347.3384       0              4751.9716      46.229272      20.047001      20.857         19329.397      4946.23        5815.119       3494.5658     -1799.4993     -154.47725      2022.9807    
   3773000   273.20751     -349.1466      -269.08785     -349.16301      0              4519.5339      46.374273      20.047001      20.857         19390.025      6910.4646      2893.9754      3754.1616      210.46082      1393.7852      36.957085    
   3773500   259.87124     -349.39007     -273.23929     -349.40735      0              5447.4118      46.228096      20.047001      20.857         19328.905      6499.7335      4928.6863      4913.8156     -1652.7247      158.33933      554.20979    
   3774000   271.79259     -351.72398     -272.07985     -351.74606      0              4138.8571      46.086412      20.047001      20.857         19269.665      5519.4959      3706.832       3190.2433     -914.74764     -288.26722     -2351.9827    
   3774500   266.18088     -348.96158     -270.96186     -348.97769      0              2586.7968      45.953841      20.047001      20.857         19214.234      3840.1926      561.33115      3358.8668     -467.57803      2110.6271      94.455286    
   3775000   267.17261     -349.93036     -271.64004     -349.95113      0              4370.5718      46.035532      20.047001      20.857         19248.39       5461.8199      3803.9669      3845.9286      111.60102     -1635.0284     -256.76425    
   3775500   270.70971     -347.34781     -268.021       -347.36738      0              3822.15        46.05827       20.047001      20.857         19257.898      3976.6272      3797.5965      3692.2262      339.17214     -1564.9399     -1544.6987    
   3776000   266.69878     -348.63445     -270.48297     -348.65356      0              7015.0077      46.241995      20.047001      20.857         19334.717      5286.3806      7433.126       8325.5165     -170.4156      -1038.3066      1118.7957    
   3776500   265.19687     -347.43178     -269.72041     -347.46093      0              2585.5494      46.401805      20.047001      20.857         19401.537      4002.5556      2242.5479      1511.5446      389.12607      819.56872      1435.7733    
   3777000   265.78215     -351.73954     -273.85666     -351.76107      0              5279.7123      46.101102      20.047001      20.857         19275.807      3925.4844      4250.0224      7663.6303     -1884.6082      842.44731      306.32281    
   3777500   266.60279     -349.86717     -271.74382     -349.85476      0              6480.779       45.782217      20.047001      20.857         19142.474      6931.4387      6014.2793      6496.6189     -1384.2592      78.916604      1216.4211    
   3778000   263.5016      -349.18        -271.9654      -349.17779      0              3258.4075      46.23333       20.047001      20.857         19331.094      1819.5546      4348.8972      3606.7707     -663.82285     -1234.7481     -1786.7145    
   3778500   261.26551     -350.83394     -274.27458     -350.85368      0              2782.535       46.54849       20.047001      20.857         19462.869      1761.263       2551.5683      4034.7737      886.29766     -732.1957      -1467.2063    
   3779000   254.09089     -350.97933     -276.52238     -350.98603      0              4967.1826      46.207348      20.047001      20.857         19320.23       5952.3016      6161.1466      2788.0996     -409.61823     -387.15205      1811.7045    
   3779500   262.37659     -350.42928     -273.54435     -350.44113      0              3992.5511      45.947556      20.047001      20.857         19211.606      3398.5925      5299.2122      3279.8486      766.25644     -1115.0334      683.01685    
   3780000   271.65312     -348.83977     -269.23651     -348.84208      0              4623.4815      45.894212      20.047001      20.857         19189.302      5744.6045      2787.6358      5338.2042      1113.9453     -2066.8087      764.29932    
   3780500   263.55993     -348.5265      -271.29481     -348.53369      0              2487.3972      46.183997      20.047001      20.857         19310.467      4760.8263      1430.5374      1270.8278     -711.45596      542.57438      1139.2082    
   3781000   266.49171     -348.10314     -270.01234     -348.12022      0              4901.6578      46.171473      20.047001      20.857         19305.23       6572.5343      4442.7758      3689.6633     -727.12177     -1329.8701     -845.80173    
   3781500   274.44687     -348.09778     -267.67586     -348.11286      0              3490.1676      45.953363      20.047001      20.857         19214.034      4063.0851      2278.0498      4129.3678     -1301.0359     -477.01398     -413.67972    
   3782000   267.77597     -347.30525     -268.83813     -347.32159      0              6458.2854      46.009974      20.047001      20.857         19237.704      6679.041       6409.0386      6286.7766      1039.9383     -633.84218      119.81158    
   3782500   261.56291     -345.75251     -269.10601     -345.77624      0              4812.3765      46.34602       20.047001      20.857         19378.212      6391.2498      4984.0226      3061.8572     -664.83392     -457.73663      1066.4638    
   3783000   272.94786     -348.89412     -268.91145     -348.88065      0              5914.1197      46.25395       20.047001      20.857         19339.715      5025.3641      5198.0051      7518.9898      527.82271     -284.90589     -211.40212    
   3783500   264.61872     -351.59255     -274.0506      -351.61479      0              4881.5754      46.049918      20.047001      20.857         19254.406      5568.076       5068.2784      4008.3718      43.881194     -342.86162     -501.49357    
   3784000   260.55606     -349.8855      -273.53405     -349.89827      0              3254.4993      45.958666      20.047001      20.857         19216.251      4776.3832      2214.7507      2772.364       936.23478     -998.04281     -638.26969    
   3784500   263.03047     -350.78958     -273.71304     -350.79255      0              5948.5817      46.025228      20.047001      20.857         19244.082      6812.5468      3722.2236      7310.9748     -498.5945      -452.33101      1516.7153    
   3785000   260.43847     -350.4564      -274.13939     -350.47667      0              4817.1449      46.053898      20.047001      20.857         19256.07       4174.7984      5039.3146      5237.3219     -388.23531     -373.05603     -410.31199    
   3785500   263.69844     -348.77957     -271.50729     -348.79303      0              3808.8765      46.071742      20.047001      20.857         19263.53       7834.5528      1896.4         1695.6766     -706.61637     -613.54569      582.75357    
   3786000   265.92701     -349.08981     -271.16448     -349.11388      0              4698.0841      46.120622      20.047001      20.857         19283.968      4763.9161      4839.0305      4491.3056     -63.288034      195.5875       903.62636    
   3786500   268.28536     -347.31419     -268.69779     -347.35252      0              3822.3182      46.085881      20.047001      20.857         19269.443      3810.0493      2911.1312      4745.774      -838.57623      435.20346      674.71587    
   3787000   267.91245     -349.82367     -271.31655     -349.84782      0              4434.9945      45.882307      20.047001      20.857         19184.324      6763.5128      4436.3975      2105.0731     -1802.7092      158.00874     -386.08519    
   3787500   276.6184      -348.68246     -267.62421     -348.69257      0              4996.5255      45.920904      20.047001      20.857         19200.462      4834.7388      5171.0996      4983.738      -358.60821      55.162448     -1726.3184    
   3788000   260.36655     -348.13043     -271.8345      -348.12127      0              5147.5036      46.166253      20.047001      20.857         19303.048      6396.7674      4168.1859      4877.5574     -1748.444       764.13826      4.161774     
   3788500   267.01692     -350.12327     -271.87857     -350.13984      0              4435.1711      46.106017      20.047001      20.857         19277.861      5488.1652      3172.4043      4644.9438     -102.55909     -952.69678     -70.802428    
   3789000   267.23893     -348.3713      -270.06155     -348.3662       0              5785.5163      45.582236      20.047001      20.857         19058.858      5340.3835      5265.2457      6750.9197      76.769535      1636.9959      1426.1848    
   3789500   260.39607     -347.23554     -270.93096     -347.22187      0              5447.5369      45.53061       20.047001      20.857         19037.272      6822.044       5161.5548      4359.0118      928.69228     -835.04375      1358.9713    
   3790000   269.56715     -351.33818     -272.34618     -351.31526      0              3079.6694      46.247316      20.047001      20.857         19336.942      3345.04        2758.4401      3135.528      -614.344        230.58758      1345.7601    
   3790500   264.15783     -345.54126     -268.13436     -345.56351      0              3731.8579      46.461077      20.047001      20.857         19426.319      4502.453       4451.1833      2241.9375     -692.32677      172.28311     -1086.0458    
   3791000   259.60431     -347.93208     -271.85951     -347.9482       0              4815.8975      46.368682      20.047001      20.857         19387.687      4839.8397      4544.9886      5062.8641      1395.6526      651.65548     -157.15195    
   3791500   268.78291     -349.60028     -270.83809     -349.61512      0              4268.8319      46.207073      20.047001      20.857         19320.115      6576.3603      4275.4297      1954.7057     -239.09178     -850.08699      146.1252     
   3792000   262.78143     -348.58784     -271.58427     -348.60776      0              4101.6623      46.170792      20.047001      20.857         19304.945      3500.3477      4003.2811      4801.358       736.82484     -615.81518      1658.9378    
   3792500   261.06909     -351.28634     -274.78455     -351.28984      0              5964.0132      46.307421      20.047001      20.857         19362.073      8423.7745      6264.6173      3203.6477     -249.31498      1027.2513     -668.36055    
   3793000   261.7455      -349.13697     -272.43697     -349.15945      0              3858.4703      46.378792      20.047001      20.857         19391.914      4624.9924      3908.1674      3042.2511     -385.41647      1805.8193     -353.5572     
   3793500   271.95823     -348.57567     -268.883       -348.56924      0              5635.8961      45.954551      20.047001      20.857         19214.531      4983.2695      6665.8239      5258.595       243.71422     -59.904329      1422.0954    
   3794000   263.63651     -351.02124     -273.76711     -351.01414      0              4332.1874      45.906856      20.047001      20.857         19194.589      6174.4018      2736.176       4085.9844     -350.17274      693.10412     -3101.6133    
   3794500   258.99435     -349.1624      -273.26858     -349.13927      0              5266.7271      46.192571      20.047001      20.857         19314.051      6886.2971      6059.61        2854.2743      542.81686      1291.2833      1750.3876    
   3795000   266.87764     -350.08435     -271.88046     -350.0798       0              5228.2233      46.219318      20.047001      20.857         19325.235      5708.9967      5247.7894      4727.884       243.75898     -1018.131      -1377.916     
   3795500   263.89372     -350.63464     -273.30514     -350.63022      0              5061.5504      46.252366      20.047001      20.857         19339.053      3872.6962      5703.7288      5608.2261     -152.82588      2196.1894      271.45227    
   3796000   263.84997     -349.84319     -272.52651     -349.84098      0              5690.7525      46.166751      20.047001      20.857         19303.256      6599.8677      3946.919       6525.4706     -377.45917      1129.05        1774.1522    
   3796500   267.10639     -349.2916      -271.02068     -349.2905       0              4614.5166      46.104315      20.047001      20.857         19277.15       4341.215       5265.5893      4236.7456      586.5733       544.96838     -494.27729    
   3797000   260.81798     -348.60925     -272.18103     -348.6175       0              3162.978       46.097858      20.047001      20.857         19274.45       3672.9963      3294.5348      2521.403       537.999       -106.19557      2343.0899    
   3797500   267.96493     -348.47533     -269.95282     -348.4748       0              4185.3715      46.033576      20.047001      20.857         19247.573      4636.8756      4603.4178      3315.821      -924.61561     -1106.7957     -487.29581    
   3798000   264.02214     -349.86004     -272.49291     -349.84911      0              4898.5332      46.233887      20.047001      20.857         19331.327      4344.8257      5503.0211      4847.7528     -15.922346      1193.4774      2167.4361    
   3798500   265.25609     -347.7682      -270.03948     -347.74481      0              6498.2434      46.11365       20.047001      20.857         19281.053      6417.1332      5805.0619      7272.535      -746.51581      717.52677     -852.09527    
   3799000   272.50085     -349.4755      -269.62382     -349.45985      0              4270.0533      45.907092      20.047001      20.857         19194.687      3185.3863      5323.8571      4300.9164      755.88801      830.67952     -479.30657    
WARNING: Wall time limit reached (../timer.cpp:193)
Loop time of 85796.9 on 4 procs for 3799000 steps with 2268 atoms

Performance: 1.913 ns/day, 12.547 hours/ns, 44.279 timesteps/s
960.9% CPU use with 4 MPI tasks x no OpenMP threads

MPI task timing breakdown:
Section |  min time  |  avg time  |  max time  |%varavg| %total
---------------------------------------------------------------
Pair    | 47505      | 48115      | 48539      | 179.9 | 56.08
Bond    | 0.42705    | 0.46022    | 0.48206    |   3.3 |  0.00
Neigh   | 1243.6     | 1255.8     | 1279.5     |  40.1 |  1.46
Comm    | 4515.9     | 5037.2     | 5641.6     | 616.0 |  5.87
Output  | 1836.1     | 1836.1     | 1836.2     |   0.1 |  2.14
Modify  | 29406      | 29541      | 29649      |  50.6 | 34.43
Other   |            | 10.83      |            |       |  0.01

Nlocal:            567 ave         586 max         551 min
Histogram: 1 0 1 0 0 1 0 0 0 1
Nghost:           3722 ave        3762 max        3671 min
Histogram: 1 0 0 1 0 0 0 0 1 1
Neighs:              0 ave           0 max           0 min
Histogram: 4 0 0 0 0 0 0 0 0 0
FullNghs:       143588 ave      148586 max      139617 min
Histogram: 1 1 0 0 0 1 0 0 0 1

Total # of neighbors = 574354
Ave neighs/atom = 253.2425
Ave special neighs/atom = 0
Neighbor list builds = 379900
Dangerous builds not checked

unfix		4
unfix		3
unfix		1

write_data	data.final.${pid}
write_data	data.final.0
System init for write_data ...
Generated 0 of 1 mixed pair_coeff terms from geometric mixing rule
write_restart	restart.lmp.${pid}
write_restart	restart.lmp.0
System init for write_restart ...
Generated 0 of 1 mixed pair_coeff terms from geometric mixing rule
Total wall time: 23:50:17
