LAMMPS (23 Jun 2022)
echo both

include		in.partitions
variable        pid world 0
include		in.temp
variable	temperature equal 265.0
variable        tempDamp equal 0.100 # this is 0.1 ps
include		in.pressure
variable        pressure equal 5066.25
variable        pressureDamp equal 1.0 #this is 1ps
include		in.seed
variable        seed world 745823

units           metal
atom_style	full
read_restart	restart.lmp.${pid}
read_restart	restart.lmp.0
Reading restart file ...
  restart file = 23 Jun 2022, LAMMPS = 23 Jun 2022
  restoring atom style full from restart
  orthogonal box = (0.66594597 0 0) to (46.784753 20.047001 20.857)
  4 by 1 by 1 MPI processor grid
Summary of lammps deepmd module ...
  >>> Info of deepmd-kit:
  installed to:       /u/sigbjobo/software/DEEPMD_FROM_SOURCE/deepmd-kit/install
  source:             v2.1.3
  source branch:       master
  source commit:      5a32c49
  source commit at:   2022-07-01 09:52:58 +0800
  surpport model ver.:1.1 
  build float prec:   double
  build with tf inc:  /u/sigbjobo/software/DEEPMD_FROM_SOURCE/tensorflow/install/include;/u/sigbjobo/software/DEEPMD_FROM_SOURCE/tensorflow/install/include
  build with tf lib:  /u/sigbjobo/software/DEEPMD_FROM_SOURCE/tensorflow/install/lib/libtensorflow_cc.so;/u/sigbjobo/software/DEEPMD_FROM_SOURCE/tensorflow/install/lib/libtensorflow_framework.so
  set tf intra_op_parallelism_threads: 0
  set tf inter_op_parallelism_threads: 0
  >>> Info of lammps module:
  use deepmd-kit at:  /u/sigbjobo/software/DEEPMD_FROM_SOURCE/deepmd-kit/install
  source:             v2.1.3
  source branch:      master
  source commit:      5a32c49
  source commit at:   2022-07-01 09:52:58 +0800
  build float prec:   double
  build with tf inc:  /u/sigbjobo/software/DEEPMD_FROM_SOURCE/tensorflow/install/include;/u/sigbjobo/software/DEEPMD_FROM_SOURCE/tensorflow/install/include
  build with tf lib:  /u/sigbjobo/software/DEEPMD_FROM_SOURCE/tensorflow/install/lib/libtensorflow_cc.so;/u/sigbjobo/software/DEEPMD_FROM_SOURCE/tensorflow/install/lib/libtensorflow_framework.so
  restoring pair style deepmd from restart
  2268 atoms
Finding 1-2 1-3 1-4 neighbors ...
  special bond factors lj:    0        0        0       
  special bond factors coul:  0        0        0       
     0 = max # of 1-2 neighbors
     0 = max # of 1-3 neighbors
     0 = max # of 1-4 neighbors
     1 = max # of special neighbors
  special bonds CPU = 0.000 seconds
  read_restart CPU = 0.005 seconds
include 	in.setup
variable	out_freq equal 500
variable	out_freq2 equal 1000
variable	out_freq3 equal 5000

timestep        0.0005

neigh_modify    delay 7 every 1

include         in.deepmd
# This is deepMD model

# create groups ###
#group ox type 2
#group hy type 1

mass 2 15.999
mass 1 1.008

pair_style      deepmd ../graph.pb
pair_coeff      * *

bond_style      none
angle_style     none
dihedral_style  none
improper_style  none
neigh_modify exclude none


neighbor        2.0 bin
neigh_modify    every 10 delay 0 check no

thermo          ${out_freq}
thermo          500
thermo_style 	custom step temp pe etotal epair emol press lx ly lz vol pxx pyy pzz pxy pxz pyz
#thermo_modify	flush yes
restart 	${out_freq} restart.lmp.${pid} restart2.lmp.${pid}
restart 	500 restart.lmp.${pid} restart2.lmp.${pid}
restart 	500 restart.lmp.0 restart2.lmp.${pid}
restart 	500 restart.lmp.0 restart2.lmp.0

include		in.dump
dump            myDump all atom ${out_freq3} dump.water.${pid}
dump            myDump all atom 5000 dump.water.${pid}
dump            myDump all atom 5000 dump.water.0
dump            myDump2 all dcd ${out_freq2} dump.dcd.${pid}
dump            myDump2 all dcd 1000 dump.dcd.${pid}
dump            myDump2 all dcd 1000 dump.dcd.0
dump_modify     myDump append yes
dump_modify     myDump2 append yes


timer           timeout 23:50:00 every 1000
New timer settings: style=normal  mode=nosync  timeout=23:50:00

fix             1 all plumed plumedfile plumed.dat outfile plumed.out
fix             3 all nph x ${pressure} ${pressure} ${pressureDamp}
fix             3 all nph x 5066.25 ${pressure} ${pressureDamp}
fix             3 all nph x 5066.25 5066.25 ${pressureDamp}
fix             3 all nph x 5066.25 5066.25 1
Resetting global fix info from restart file:
  fix style: nph, fix ID: 3
fix             4 all temp/csvr ${temperature} ${temperature} ${tempDamp} ${seed}
fix             4 all temp/csvr 265 ${temperature} ${tempDamp} ${seed}
fix             4 all temp/csvr 265 265 ${tempDamp} ${seed}
fix             4 all temp/csvr 265 265 0.1 ${seed}
fix             4 all temp/csvr 265 265 0.1 745823
Resetting global fix info from restart file:
  fix style: temp/csvr, fix ID: 4

run             40000000 upto

CITE-CITE-CITE-CITE-CITE-CITE-CITE-CITE-CITE-CITE-CITE-CITE-CITE

Your simulation uses code contributions which should be cited:

- USER-DEEPMD package:

@article{Wang_ComputPhysCommun_2018_v228_p178,
  author = {Wang, Han and Zhang, Linfeng and Han, Jiequn and E, Weinan},
  doi = {10.1016/j.cpc.2018.03.016},
  url = {https://doi.org/10.1016/j.cpc.2018.03.016},
  year = 2018,
  month = {jul},
  publisher = {Elsevier {BV}},
  volume = 228,
  journal = {Comput. Phys. Commun.},
  title = {{DeePMD-kit: A deep learning package for many-body potential energy representation and molecular dynamics}},
  pages = {178--184}
}

CITE-CITE-CITE-CITE-CITE-CITE-CITE-CITE-CITE-CITE-CITE-CITE-CITE

Generated 0 of 1 mixed pair_coeff terms from geometric mixing rule
All restart file global fix info was re-assigned
Neighbor list info ...
  update every 10 steps, delay 0 steps, check no
  max neighbors/atom: 2000, page size: 100000
  master list distance cutoff = 8
  ghost atom cutoff = 8
  binsize = 4, bins = 12 6 6
  1 neighbor lists, perpetual/occasional/extra = 1 0 0
  (1) pair deepmd, perpetual
      attributes: full, newton on
      pair build: full/bin
      stencil: full/bin/3d
      bin: standard
Per MPI rank memory allocation (min/avg/max) = 6.184 | 6.187 | 6.19 Mbytes
   Step          Temp          PotEng         TotEng         E_pair         E_mol          Press            Lx             Ly             Lz           Volume          Pxx            Pyy            Pzz            Pxy            Pxz            Pyz      
  25661000   270.50356     -353.11182     -273.84542     -353.11182      0              4723.9687      46.118807      20.047001      20.857         19283.209      3047.4586      3735.858       7388.5896      1367.8552      10.392945      1889.9487    
  25661500   268.65535     -354.4411      -275.71629     -354.36295      0              4606.071       45.983543      20.047001      20.857         19226.653      5454.018       4151.2906      4212.9044      311.2945       1876.8725      1432.1273    
  25662000   259.42693     -353.14471     -277.12412     -353.07807      0              5426.5085      46.040587      20.047001      20.857         19250.504      3616.6682      5406.3357      7256.5217      725.23089      810.55218      1476.2001    
  25662500   258.95089     -353.34941     -277.46832     -353.28878      0              5115.4218      46.105445      20.047001      20.857         19277.622      6039.1794      4719.6843      4587.4018     -387.35922     -0.43402868    -1000.3089    
  25663000   259.31005     -353.66376     -277.67742     -353.59569      0              4694.354       45.978353      20.047001      20.857         19224.483      6088.4173      5998.349       1996.2957     -1148.0206      964.33337     -22.036949    
  25663500   263.20506     -354.79585     -277.66815     -354.6901       0              3455.3791      45.99685       20.047001      20.857         19232.217      3747.7235      3425.4905      3192.9231      896.03707      1571.1638     -395.34665    
  25664000   264.71288     -352.783       -275.21346     -352.72904      0              7025.0783      45.803289      20.047001      20.857         19151.285      8081.8498      4999.9423      7993.4428     -423.92093     -1546.8264     -1948.6386    
  25664500   259.68533     -350.99574     -274.89943     -350.93395      0              3252.3867      45.888256      20.047001      20.857         19186.811      3388.9275      2985.0761      3383.1564     -872.39177      1397.0348     -1208.9245    
  25665000   264.12196     -352.8075      -275.41111     -352.72423      0              4429.3367      46.138693      20.047001      20.857         19291.524      5207.8188      4735.9676      3344.2237     -887.95266     -621.41509     -32.712135    
  25665500   270.57915     -350.52881     -271.24026     -350.44156      0              5926.9731      46.339213      20.047001      20.857         19375.366      7337.1996      5149.9726      5293.7472     -925.4277      -787.35768     -480.6921     
  25666000   266.713       -351.46547     -273.30983     -351.43526      0              5605.5868      46.391755      20.047001      20.857         19397.334      5873.9348      6333.046       4609.7795      1870.5967      855.34019      187.08868    
  25666500   263.24683     -352.22002     -275.08008     -352.17077      0              3894.5995      46.436053      20.047001      20.857         19415.856      4400.0586      1831.7834      5451.9564      11.643028     -103.23248     -528.49022    
  25667000   263.34317     -351.20071     -274.03254     -351.15257      0              5652.6019      46.201775      20.047001      20.857         19317.9        6283.4498      6008.1042      4666.2518      1409.0561     -886.92664     -295.00146    
  25667500   259.20205     -352.10984     -276.15515     -352.05307      0              3946.7382      46.10025       20.047001      20.857         19275.45       5282.1485      4423.5415      2134.5245      143.96653      1651.3669      610.22745    
  25668000   265.75774     -352.01672     -274.141       -351.95072      0              3249.3581      46.338269      20.047001      20.857         19374.971      5911.476       804.80581      3031.7925      668.85169     -540.16916      9.545484     
  25668500   262.42936     -352.17587     -275.27548     -352.10501      0              4384.0724      46.435521      20.047001      20.857         19415.634      6074.3148      3545.0748      3532.8276      237.45919      642.80803      1110.804     
  25669000   265.40629     -351.88108     -274.10835     -351.83327      0              4947.6329      46.359452      20.047001      20.857         19383.828      4771.6535      5089.8939      4981.3512      348.3091       685.09734      699.60208    
  25669500   264.63779     -352.8328      -275.28526     -352.80854      0              5038.8016      46.024424      20.047001      20.857         19243.746      6960.6709      4225.0413      3930.6926     -1373.1467     -1196.2485      221.15442    
  25670000   265.62418     -352.63526     -274.79868     -352.5848       0              5800.5232      45.77291       20.047001      20.857         19138.583      6306.6978      5677.4083      5417.4635      714.65013     -1119.5166      1883.6633    
  25670500   259.13965     -352.48106     -276.54466     -352.42232      0              4811.98        46.095816      20.047001      20.857         19273.597      7089.6735      3685.0394      3661.227       27.231576      334.62855      2421.6305    
  25671000   260.3778      -353.39889     -277.09967     -353.33089      0              3423.0874      46.4882        20.047001      20.857         19437.66       4150.5917      2077.25        4041.4205      771.48835      488.76651      143.19481    
  25671500   265.48122     -352.80485     -275.01016     -352.73418      0              3577.2115      46.308179      20.047001      20.857         19362.39       3897.9249      4641.1033      2192.6062      679.7867      -472.67493     -1238.39      
  25672000   261.42997     -351.27569     -274.66815     -351.21179      0              4067.6452      46.08759       20.047001      20.857         19270.157      3177.7204      5190.7732      3834.4421     -500.61349      287.26979     -40.234643    
  25672500   262.71408     -353.81668     -276.83285     -353.7458       0              4684.4146      45.983986      20.047001      20.857         19226.838      5856.1145      3041.7671      5155.3621      350.57489     -1365.2788     -1764.4857    
  25673000   264.47542     -354.19359     -276.69363     -354.10441      0              4157.1556      46.114204      20.047001      20.857         19281.285      3077.6664      5015.4761      4378.3243      530.44374     -520.47698      821.78947    
  25673500   266.25327     -355.00521     -276.98428     -354.92256      0              3856.5535      46.364185      20.047001      20.857         19385.807      6154.0053      3339.7972      2075.858      -806.4947       1817.4078      736.11129    
  25674000   269.26837     -353.45501     -274.55056     -353.37384      0              2961.7599      46.310171      20.047001      20.857         19363.222      3147.0565      1848.3713      3889.8519      382.64686     -2016.1089      1817.4229    
  25674500   267.00004     -355.3317      -277.09195     -355.23545      0              4038.272       46.081205      20.047001      20.857         19267.487      4320.4281      4842.8572      2951.5306     -374.30382     -326.13721      16.233629    
  25675000   264.38422     -353.71843     -276.24519     -353.63119      0              2300.8345      46.1832        20.047001      20.857         19310.133      3364.4921      2752.5065      785.50489     -268.89658     -407.74722      363.23352    
  25675500   272.58342     -355.55115     -275.67528     -355.50598      0              3953.562       46.316554      20.047001      20.857         19365.892      4985.5067      2616.658       4258.5215     -779.96626     -3236.3855      176.70958    
  25676000   269.23099     -355.23357     -276.34008     -355.15325      0              6042.0898      46.207516      20.047001      20.857         19320.301      6363.9392      6598.1613      5164.1689     -1300.7952     -2272.6925      496.35237    
  25676500   269.62125     -353.02835     -274.0205      -352.97944      0              3515.1972      46.270073      20.047001      20.857         19346.457      1956.5605      2427.2284      6161.8028     -1489.1869      703.81502      904.81172    
  25677000   259.88689     -353.4664      -277.31103     -353.39378      0              8266.1956      46.251798      20.047001      20.857         19338.816      10023.601      7214.0385      7560.9473      340.96259     -49.933483      77.471744    
  25677500   271.99307     -355.49829     -275.79541     -355.43313      0              3900.2601      46.356407      20.047001      20.857         19382.555      4009.5136      2354.2162      5337.0504     -251.41753      251.83829      603.97143    
  25678000   262.8253      -356.90019     -279.88377     -356.82446      0              6301.1777      46.225344      20.047001      20.857         19327.755      7431.9396      4949.1286      6522.4649      560.09131      383.17191      2370.0422    
  25678500   261.42366     -354.46666     -277.86097     -354.39002      0              5684.5719      45.713383      20.047001      20.857         19113.693      5438.4973      4801.0472      6814.1712      898.24163      724.69971      933.57707    
  25679000   265.36243     -351.47949     -273.7196      -351.42265      0              3160.4184      45.89904       20.047001      20.857         19191.321      1818.3729      3027.4061      4635.4763     -1210.0109      1512.3688     -112.6457     
  25679500   268.83192     -353.72423     -274.94767     -353.66481      0              7014.0152      46.307091      20.047001      20.857         19361.935      7885.8435      4419.7357      8736.4665     -614.73776     -2523.5624      573.51211    
  25680000   269.62494     -354.34687     -275.33794     -354.29076      0              4127.1997      46.318913      20.047001      20.857         19366.878      5469.691       3881.8726      3030.0355      1361.2245      1443.635       1073.4581    
  25680500   268.57963     -352.80153     -274.0989      -352.75186      0              3687.8952      46.120444      20.047001      20.857         19283.894      4125.5757      4464.1584      2473.9514      270.5916      -693.47226      3344.8044    
  25681000   266.64752     -354.69083     -276.55438     -354.62229      0              5263.6771      46.049433      20.047001      20.857         19254.203      4617.514       7381.6693      3791.848      -768.72266     -123.55327     -1527.4828    
  25681500   268.20798     -352.50515     -273.91143     -352.4368       0              4887.4104      46.377562      20.047001      20.857         19391.4        7166.7208      3176.0322      4319.4781      1803.8439     -1969.8573      218.61281    
  25682000   276.56557     -354.86512     -273.82235     -354.78159      0              3699.7012      46.422169      20.047001      20.857         19410.051      1492.2621      5259.9385      4346.9029     -772.47489      1233.0397      399.28155    
  25682500   272.26438     -352.1066      -272.32422     -352.03652      0              5328.9333      46.202827      20.047001      20.857         19318.34       5880.2094      4357.1451      5749.4454     -328.16178     -719.27815     -49.851709    
  25683000   267.34405     -350.89982     -272.55926     -350.87856      0              5852.1639      46.246787      20.047001      20.857         19336.72       2367.8025      7845.5316      7343.1576      990.92666      782.12218     -1324.2419    
  25683500   261.70041     -354.39272     -277.70594     -354.33972      0              5152.2385      46.20222       20.047001      20.857         19318.086      6553.4393      3854.8427      5048.4336      1783.9419      737.84851      701.70702    
  25684000   260.52062     -353.95751     -277.61644     -353.89182      0              6031.8493      45.964583      20.047001      20.857         19218.725      4235.5762      6637.9837      7221.9878      408.57128      994.62072     -169.17831    
  25684500   266.05324     -353.04511     -275.0828      -352.96122      0              6424.96        46.257264      20.047001      20.857         19341.101      7325.4646      4743.8251      7205.5902     -398.92771     -28.398997      575.40899    
  25685000   262.26488     -354.64245     -277.79025     -354.59239      0              3985.5534      46.466694      20.047001      20.857         19428.668      3095.1096      4353.9928      4507.5578      2275.3656      513.01223      773.14506    
  25685500   267.7887      -352.43512     -273.96426     -352.36547      0              4534.9074      46.310219      20.047001      20.857         19363.243      2648.0403      5444.3759      5512.306      -52.987606      995.9481       290.64021    
  25686000   265.59955     -352.82262     -274.99326     -352.7277       0              3594.6288      46.171404      20.047001      20.857         19305.201      3940.3067      4278.4705      2565.1091     -45.749726      2061.9134      449.2437     
  25686500   258.78594     -353.1952      -277.36245     -353.13778      0              6340.6152      46.067672      20.047001      20.857         19261.829      6154.1284      6528.7403      6338.9769      1234.4192     -1860.7946     -167.14273    
  25687000   263.07023     -350.10525     -273.01706     -350.05672      0              4540.2984      46.221857      20.047001      20.857         19326.297      2697.6272      7262.5489      3660.7192      352.68717      1009.9824      454.42047    
  25687500   262.13446     -351.74847     -274.93449     -351.65749      0              6658.6217      46.19331       20.047001      20.857         19314.361      6041.0905      5629.9249      8304.8498     -438.90311      1526.4889     -659.79452    
  25688000   260.61763     -349.90067     -273.53117     -349.87727      0              5408.7634      46.097327      20.047001      20.857         19274.228      5343.8353      5423.6997      5458.7552      562.78371     -426.90228      718.05396    
  25688500   265.10097     -350.38415     -272.70088     -350.30492      0              5053.8516      46.297476      20.047001      20.857         19357.914      3656.1431      5957.7916      5547.6202      669.20174     -340.74483      742.34108    
  25689000   267.16133     -353.02713     -274.74012     -352.96732      0              5974.5063      46.199274      20.047001      20.857         19316.854      6832.8481      4065.3831      7025.2876      782.26633      1080.9112     -277.35458    
  25689500   263.36856     -352.39432     -275.21871     -352.34222      0              2331.6604      46.224163      20.047001      20.857         19327.261      969.05295      1921.8159      4104.1124     -1120.3926     -1298.3946     -1652.1089    
  25690000   262.63156     -353.61183     -276.65218     -353.52929      0              6462.2304      45.916238      20.047001      20.857         19198.511      7229.6089      7361.2571      4795.8254      1488.3972      1122.7869     -665.99905    
  25690500   263.06448     -354.99122     -277.90471     -354.90675      0              6407.592       45.906043      20.047001      20.857         19194.249      7381.28        3838.2834      8003.2126      1261.666      -53.807925     -43.759484    
  25691000   261.93548     -352.71214     -275.95646     -352.6593       0              4413.1999      46.35731       20.047001      20.857         19382.932      3806.8719      4210.8434      5221.8844     -427.34861     -269.1551       449.61728    
  25691500   261.05306     -352.84821     -276.35111     -352.77434      0              5188.8959      46.333727      20.047001      20.857         19373.072      5841.7214      5202.9191      4522.0471      431.2432      -403.55459      204.51083    
  25692000   260.20064     -349.43862     -273.19131     -349.4145       0              4654.3032      46.054596      20.047001      20.857         19256.361      3334.3973      5954.4292      4674.0832      283.77049     -862.50492      1887.9536    
  25692500   267.1273      -352.10893     -273.83189     -352.0652       0              4089.7341      46.098074      20.047001      20.857         19274.541      7164.5461      2145.7746      2958.8816      1282.0503     -723.22511     -824.66126    
  25693000   265.41372     -350.01802     -272.24311     -349.98836      0              4782.6903      46.302779      20.047001      20.857         19360.132      3819.7179      4771.5115      5756.8414      2039.9779      718.26826      1601.9696    
  25693500   265.40456     -350.37424     -272.60201     -350.3216       0              3836.4543      46.428231      20.047001      20.857         19412.586      3048.214       7231.2778      1229.8712      730.1421      -1075.3485     -580.86929    
  25694000   261.50658     -352.17488     -275.54489     -352.09393      0              5026.8251      46.207904      20.047001      20.857         19320.462      4719.5491      3959.4939      6401.4324     -630.01749     -616.59391      690.01706    
  25694500   269.96536     -349.14124     -270.03255     -349.05673      0              5016.3364      46.040447      20.047001      20.857         19250.446      4066.0926      6420.2354      4562.6812      412.91534     -63.590823     -1590.2857    
  25695000   274.09333     -350.16956     -269.85123     -350.06059      0              3510.0336      46.33073       20.047001      20.857         19371.819      5374.3709      3386.2068      1769.5232     -450.68574     -1910.4793      756.80348    
  25695500   272.68977     -351.85133     -271.9443      -351.77953      0              3913.5682      46.589033      20.047001      20.857         19479.82       3329.4115      4743.9768      3667.3162      893.64739      286.60641      1010.9178    
  25696000   267.04899     -353.09423     -274.84013     -352.97705      0              4740.064       46.219153      20.047001      20.857         19325.166      5878.4677      4354.3079      3987.4163     -9.2277621      119.73289     -1429.1047    
  25696500   267.75879     -351.26        -272.7979      -351.14921      0              5364.7577      46.072089      20.047001      20.857         19263.676      7413.9388      5171.8901      3508.4442      133.95125      59.436828     -1165.824     
  25697000   266.43568     -350.09176     -272.01738     -350.03519      0              4024.2645      46.182746      20.047001      20.857         19309.944      5456.5059      3336.2647      3280.0228      836.63465      132.37776     -1618.9548    
  25697500   261.5347      -352.72282     -276.08459     -352.59982      0              5239.5127      46.239638      20.047001      20.857         19333.731      4523.6149      4999.771       6195.1522      484.21636      1585.1379      1818.5892    
  25698000   267.19197     -354.23862     -275.94262     -354.13381      0              3409.509       46.182471      20.047001      20.857         19309.828      6457.3976      2507.2117      1263.9177      1661.6516      740.86933      404.48122    
  25698500   268.00345     -352.561       -274.02721     -352.47516      0              5013.7653      46.293735      20.047001      20.857         19356.35       5547.4059      4993.5118      4500.3783      285.30567     -741.62972      345.90573    
  25699000   269.87968     -352.10476     -273.02117     -352.02172      0              2185.7107      46.298513      20.047001      20.857         19358.348      2333.8745      580.38294      3642.8747      1610.0853      1110.4998      863.31502    
  25699500   272.60737     -351.16901     -271.28613     -351.05961      0              6158.9615      45.957352      20.047001      20.857         19215.702      8747.9924      5423.4158      4305.4764     -409.29327      813.66514      636.33618    
  25700000   266.78859     -349.3643      -271.1865      -349.30601      0              5981.4008      45.868278      20.047001      20.857         19178.458      6870.8558      4488.4254      6584.9213      428.21049     -1193.7414     -340.5243     
  25700500   270.94212     -351.70836     -272.31345     -351.64051      0              5082.9392      46.005467      20.047001      20.857         19235.82       5795.9436      6019.4115      3433.4627     -37.93273       626.82891     -76.380247    
  25701000   265.7235      -350.76744     -272.90175     -350.68852      0              5324.9111      46.038048      20.047001      20.857         19249.443      4692.7705      5527.3468      5754.6159      194.26431      533.88904      563.64642    
  25701500   267.15864     -353.14401     -274.85778     -353.08424      0              3129.6863      46.156072      20.047001      20.857         19298.791      3144.9234      2230.4701      4013.6655      677.43696     -643.65588     -2099.4866    
  25702000   266.32069     -351.84935     -273.80867     -351.79364      0              6489.2344      46.064809      20.047001      20.857         19260.632      5627.0581      5890.1174      7950.5276      962.27087      510.68041      1706.3898    
  25702500   264.4735      -353.31333     -275.81393     -353.20684      0              6736.3722      45.76727       20.047001      20.857         19136.225      8985.1444      5581.7198      5642.2525     -671.42649     -1390.9711     -1188.3996    
  25703000   258.47157     -353.3448      -277.60417     -353.27387      0              3909.3624      46.145474      20.047001      20.857         19294.36       2832.267       5502.2078      3393.6123     -1626.3839     -412.43074     -838.34901    
  25703500   265.63509     -353.74394     -275.90416     -353.67242      0              3416.0084      46.227822      20.047001      20.857         19328.791      1936.7456      4145.9312      4165.3483      1089.4064     -422.10356     -1429.8415    
  25704000   266.70494     -351.40694     -273.25366     -351.34621      0              6089.6         45.959898      20.047001      20.857         19216.766      5405.0151      5932.264       6931.5208     -306.62224     -1593.3254      659.57838    
  25704500   265.08756     -353.61001     -275.93067     -353.53047      0              5021.3306      45.833976      20.047001      20.857         19164.116      3861.5788      7163.9091      4038.504       1383.7501      289.168       -1399.0005    
  25705000   263.28116     -351.15596     -274.00596     -351.07468      0              5019.3675      45.840445      20.047001      20.857         19166.821      3198.1664      6884.6749      4975.2611      600.9312      -308.07521     -1495.1776    
  25705500   270.39664     -353.1331      -273.89803     -353.05072      0              4494.5381      45.887302      20.047001      20.857         19186.412      6041.7737      1731.2904      5710.5503      846.31407     -369.76947      954.55878    
  25706000   270.43618     -353.41204     -274.16539     -353.36107      0              5214.4385      45.900959      20.047001      20.857         19192.123      5740.0976      5261.7133      4641.5046      194.49119      445.13942     -934.90968    
  25706500   269.76005     -353.14767     -274.09914     -353.06966      0              5821.7217      45.956172      20.047001      20.857         19215.208      5447.1731      6018.5007      5999.4914      24.942342      364.29039     -130.93025    
  25707000   260.38172     -351.36834     -275.06797     -351.30155      0              2313.9826      46.09284       20.047001      20.857         19272.352      2578.5502      1271.8455      3091.5523      1371.8871      2143.6468      387.1547     
  25707500   263.44314     -351.36218     -274.16472     -351.31767      0              4755.1603      46.035858      20.047001      20.857         19248.527      4888.6228      4058.0561      5318.8021      943.57993     -353.84237      1444.3527    
  25708000   271.69146     -353.1792      -273.5647      -353.09596      0              4893.1902      45.986741      20.047001      20.857         19227.99       5045.6596      5285.3813      4348.5297     -31.540523      415.2187      -1035.5978    
  25708500   270.28058     -352.50366     -273.3026      -352.41881      0              4624.5076      46.147336      20.047001      20.857         19295.138      4261.057       6633.6362      2978.8295     -1107.6663      774.63682      1658.4029    
  25709000   270.36092     -353.54855     -274.32394     -353.4822       0              4653.4531      46.262763      20.047001      20.857         19343.4        4236.6792      5085.2072      4638.473       259.64541      881.73356     -603.90623    
  25709500   265.78119     -353.59511     -275.71252     -353.51518      0              3731.4015      46.235214      20.047001      20.857         19331.881      4954.3544      3755.3149      2484.5352     -296.96285      87.270819     -2378.3191    
  25710000   260.48038     -355.71245     -279.38317     -355.62503      0              4639.0257      46.259676      20.047001      20.857         19342.11       6015.6881      3867.7742      4033.6149     -257.41899     -1219.9057      1336.5553    
  25710500   269.56801     -352.67832     -273.68606     -352.65467      0              5108.6962      46.077646      20.047001      20.857         19265.999      5232.3971      4705.218       5388.4734     -107.35861     -143.68367     -1793.7731    
  25711000   265.76757     -353.20162     -275.32302     -353.16056      0              4290.4019      45.883253      20.047001      20.857         19184.719      4115.9702      4161.6176      4593.618       1081.0373     -771.52806      829.80626    
  25711500   263.6461      -353.76594     -276.509       -353.72731      0              5425.0469      45.979656      20.047001      20.857         19225.028      6362.3713      5281.6684      4631.101      -236.49076      240.12905     -766.13718    
  25712000   261.07322     -352.83698     -276.33397     -352.75497      0              4818.8888      46.144314      20.047001      20.857         19293.874      4791.9014      3620.6193      6044.1458      791.07675      1256.3736     -460.00203    
ERROR on proc 0: Cannot open restart file restart.lmp.0: Permission denied (../write_restart.cpp:233)
Last command: run             40000000 upto
