LAMMPS (23 Jun 2022)
echo both

include		in.partitions
variable        pid world 0
include		in.temp
variable	temperature equal 265.0
variable        tempDamp equal 0.100 # this is 0.1 ps
include		in.pressure
variable        pressure equal 5066.25
variable        pressureDamp equal 1.0 #this is 1ps
include		in.seed
variable        seed world 745823

units           metal
atom_style	full
read_restart	restart.lmp.${pid}
read_restart	restart.lmp.0
Reading restart file ...
  restart file = 23 Jun 2022, LAMMPS = 23 Jun 2022
  restoring atom style full from restart
  orthogonal box = (0.73552147 0 0) to (46.715178 20.047001 20.857)
  4 by 1 by 1 MPI processor grid
Summary of lammps deepmd module ...
  >>> Info of deepmd-kit:
  installed to:       /u/sigbjobo/software/DEEPMD_FROM_SOURCE/deepmd-kit/install
  source:             v2.1.3
  source branch:       master
  source commit:      5a32c49
  source commit at:   2022-07-01 09:52:58 +0800
  surpport model ver.:1.1 
  build float prec:   double
  build with tf inc:  /u/sigbjobo/software/DEEPMD_FROM_SOURCE/tensorflow/install/include;/u/sigbjobo/software/DEEPMD_FROM_SOURCE/tensorflow/install/include
  build with tf lib:  /u/sigbjobo/software/DEEPMD_FROM_SOURCE/tensorflow/install/lib/libtensorflow_cc.so;/u/sigbjobo/software/DEEPMD_FROM_SOURCE/tensorflow/install/lib/libtensorflow_framework.so
  set tf intra_op_parallelism_threads: 0
  set tf inter_op_parallelism_threads: 0
  >>> Info of lammps module:
  use deepmd-kit at:  /u/sigbjobo/software/DEEPMD_FROM_SOURCE/deepmd-kit/install
  source:             v2.1.3
  source branch:      master
  source commit:      5a32c49
  source commit at:   2022-07-01 09:52:58 +0800
  build float prec:   double
  build with tf inc:  /u/sigbjobo/software/DEEPMD_FROM_SOURCE/tensorflow/install/include;/u/sigbjobo/software/DEEPMD_FROM_SOURCE/tensorflow/install/include
  build with tf lib:  /u/sigbjobo/software/DEEPMD_FROM_SOURCE/tensorflow/install/lib/libtensorflow_cc.so;/u/sigbjobo/software/DEEPMD_FROM_SOURCE/tensorflow/install/lib/libtensorflow_framework.so
  restoring pair style deepmd from restart
  2268 atoms
Finding 1-2 1-3 1-4 neighbors ...
  special bond factors lj:    0        0        0       
  special bond factors coul:  0        0        0       
     0 = max # of 1-2 neighbors
     0 = max # of 1-3 neighbors
     0 = max # of 1-4 neighbors
     1 = max # of special neighbors
  special bonds CPU = 0.000 seconds
  read_restart CPU = 0.005 seconds
include 	in.setup
variable	out_freq equal 500
variable	out_freq2 equal 1000
variable	out_freq3 equal 5000

timestep        0.0005

neigh_modify    delay 7 every 1

include         in.deepmd
# This is deepMD model

# create groups ###
#group ox type 2
#group hy type 1

mass 2 15.999
mass 1 1.008

pair_style      deepmd ../graph.pb
pair_coeff      * *

bond_style      none
angle_style     none
dihedral_style  none
improper_style  none
neigh_modify exclude none


neighbor        2.0 bin
neigh_modify    every 10 delay 0 check no

thermo          ${out_freq}
thermo          500
thermo_style 	custom step temp pe etotal epair emol press lx ly lz vol pxx pyy pzz pxy pxz pyz
#thermo_modify	flush yes
restart 	${out_freq} restart.lmp.${pid} restart2.lmp.${pid}
restart 	500 restart.lmp.${pid} restart2.lmp.${pid}
restart 	500 restart.lmp.0 restart2.lmp.${pid}
restart 	500 restart.lmp.0 restart2.lmp.0

include		in.dump
dump            myDump all atom ${out_freq3} dump.water.${pid}
dump            myDump all atom 5000 dump.water.${pid}
dump            myDump all atom 5000 dump.water.0
dump            myDump2 all dcd ${out_freq2} dump.dcd.${pid}
dump            myDump2 all dcd 1000 dump.dcd.${pid}
dump            myDump2 all dcd 1000 dump.dcd.0
dump_modify     myDump append yes
dump_modify     myDump2 append yes


timer           timeout 23:50:00 every 1000
New timer settings: style=normal  mode=nosync  timeout=23:50:00

fix             1 all plumed plumedfile plumed.dat outfile plumed.out
fix             3 all nph x ${pressure} ${pressure} ${pressureDamp}
fix             3 all nph x 5066.25 ${pressure} ${pressureDamp}
fix             3 all nph x 5066.25 5066.25 ${pressureDamp}
fix             3 all nph x 5066.25 5066.25 1
Resetting global fix info from restart file:
  fix style: nph, fix ID: 3
fix             4 all temp/csvr ${temperature} ${temperature} ${tempDamp} ${seed}
fix             4 all temp/csvr 265 ${temperature} ${tempDamp} ${seed}
fix             4 all temp/csvr 265 265 ${tempDamp} ${seed}
fix             4 all temp/csvr 265 265 0.1 ${seed}
fix             4 all temp/csvr 265 265 0.1 745823
Resetting global fix info from restart file:
  fix style: temp/csvr, fix ID: 4

run             40000000 upto

CITE-CITE-CITE-CITE-CITE-CITE-CITE-CITE-CITE-CITE-CITE-CITE-CITE

Your simulation uses code contributions which should be cited:

- USER-DEEPMD package:

@article{Wang_ComputPhysCommun_2018_v228_p178,
  author = {Wang, Han and Zhang, Linfeng and Han, Jiequn and E, Weinan},
  doi = {10.1016/j.cpc.2018.03.016},
  url = {https://doi.org/10.1016/j.cpc.2018.03.016},
  year = 2018,
  month = {jul},
  publisher = {Elsevier {BV}},
  volume = 228,
  journal = {Comput. Phys. Commun.},
  title = {{DeePMD-kit: A deep learning package for many-body potential energy representation and molecular dynamics}},
  pages = {178--184}
}

CITE-CITE-CITE-CITE-CITE-CITE-CITE-CITE-CITE-CITE-CITE-CITE-CITE

Generated 0 of 1 mixed pair_coeff terms from geometric mixing rule
All restart file global fix info was re-assigned
Neighbor list info ...
  update every 10 steps, delay 0 steps, check no
  max neighbors/atom: 2000, page size: 100000
  master list distance cutoff = 8
  ghost atom cutoff = 8
  binsize = 4, bins = 12 6 6
  1 neighbor lists, perpetual/occasional/extra = 1 0 0
  (1) pair deepmd, perpetual
      attributes: full, newton on
      pair build: full/bin
      stencil: full/bin/3d
      bin: standard
Per MPI rank memory allocation (min/avg/max) = 6.147 | 6.149 | 6.153 Mbytes
   Step          Temp          PotEng         TotEng         E_pair         E_mol          Press            Lx             Ly             Lz           Volume          Pxx            Pyy            Pzz            Pxy            Pxz            Pyz      
  25711500   263.6461      -353.72731     -276.47036     -353.72731      0              5424.6659      45.979656      20.047001      20.857         19225.028      6362.0009      5281.2899      4630.707      -236.54522      240.12348     -766.13434    
  25712000   261.06998     -352.83589     -276.33384     -352.75376      0              4817.7376      46.144323      20.047001      20.857         19293.878      4791.0629      3619.4714      6042.6786      791.3926       1256.7608     -460.02704    
  25712500   272.85138     -357.70094     -277.74655     -357.62273      0              5698.2507      46.358036      20.047001      20.857         19383.236      5951.8549      6208.1506      4934.7467     -295.04281     -1675.8277     -1296.1128    
  25713000   272.03987     -353.07061     -273.35402     -352.98647      0              3489.7234      46.343151      20.047001      20.857         19377.012      2786.6037      3631.9744      4050.5919      597.54599      1325.8998     -240.42667    
  25713500   260.41632     -351.70218     -275.39167     -351.6512       0              3873.681       46.163598      20.047001      20.857         19301.938      4846.0997      4306.8671      2468.0761      1120.5446      1309.9212     -585.07153    
  25714000   267.31314     -352.914       -274.58249     -352.82358      0              4847.404       45.858876      20.047001      20.857         19174.527      5921.4422      2141.8251      6478.9446     -1990.8591      580.83043     -462.78311    
  25714500   266.17625     -351.62043     -273.62207     -351.55457      0              3226.3484      46.229769      20.047001      20.857         19329.605      4685.8976      3539.373       1453.7746      575.57244      384.69145      203.4156     
  25715000   268.92829     -352.38107     -273.57628     -352.31281      0              2742.7113      46.382246      20.047001      20.857         19393.358      3506.1675      1945.5659      2776.4003     -217.03158     -1420.6428     -1212.5084    
  25715500   270.80436     -353.43071     -274.07616     -353.36145      0              5910.5524      46.076239      20.047001      20.857         19265.411      7581.1185      7176.6987      2973.8401     -1095.8231      1664.6073      923.78212    
  25716000   268.23531     -351.82975     -273.22802     -351.72761      0              6524.8936      45.868678      20.047001      20.857         19178.625      5770.6828      7580.1424      6223.8557      2184.887      -1079.0658     -432.64565    
  25716500   257.67458     -352.61111     -277.10402     -352.55002      0              3264.1789      46.053044      20.047001      20.857         19255.712      5345.1777      1646.0201      2801.339      -1124.5891      191.88301      1179.0138    
  25717000   270.80184     -353.57173     -274.21792     -353.55898      0              4497.8885      46.221199      20.047001      20.857         19326.022      5041.7497      3815.1712      4636.7445      458.84843     -383.61437     -630.5379     
  25717500   266.32345     -354.16003     -276.11853     -354.09607      0              6528.762       46.059757      20.047001      20.857         19258.519      7370.5647      7841.7956      4373.9257      222.73358      465.17664      2380.3992    
  25718000   262.92773     -351.72052     -274.67409     -351.61822      0              3955.9554      45.700499      20.047001      20.857         19108.306      4657.7074      3751.5225      3458.6361     -658.99813     -590.85249     -699.53682    
  25718500   273.68406     -352.345       -272.1466      -352.26796      0              6995.8796      45.726309      20.047001      20.857         19119.098      5520.6038      8488.2141      6978.821      -701.29616      1326.0713      1313.3534    
  25719000   261.06418     -352.50224     -276.00189     -352.40397      0              4413.3739      46.313914      20.047001      20.857         19364.788      4448.7702      4966.9785      3824.373      -504.23145     -877.97253      1794.3502    
  25719500   268.13822     -349.59966     -271.02638     -349.52022      0              2420.2526      46.39568       20.047001      20.857         19398.976      1577.1439      4849.3116      834.30243      360.95871     -1251.5045     -1118.2628    
  25720000   267.88207     -350.02649     -271.52827     -349.93971      0              7537.6096      46.061641      20.047001      20.857         19259.307      7774.5987      6289.8393      8548.3907      1261.1202     -731.40846      1734.4213    
  25720500   262.25156     -353.51195     -276.66366     -353.43015      0              3567.2962      45.885242      20.047001      20.857         19185.551      4761.5436      4295.6209      1644.7242     -452.26066     -1609.5463     -349.94255    
  25721000   267.87334     -352.11796     -273.6223      -352.05032      0              5350.0825      46.108029      20.047001      20.857         19278.703      4539.5276      6108.7517      5401.9684      1034.0379      1141.5543      864.1682     
  25721500   264.74914     -352.14445     -274.56428     -352.07303      0              7603.5883      46.111245      20.047001      20.857         19280.048      9794.0503      6664.8354      6351.8792     -69.882848     -1374.0258     -567.50735    
  25722000   268.7437      -352.17027     -273.41956     -352.12169      0              4239.5678      45.966659      20.047001      20.857         19219.593      2919.6927      5895.832       3903.1786      664.83805      1757.0333      414.59263    
  25722500   267.28429     -352.29997     -273.97692     -352.20825      0              5544.1521      45.88892       20.047001      20.857         19187.089      7136.5766      5136.4082      4359.4716     -840.47083      822.47818     -854.57184    
  25723000   260.07307     -353.78401     -277.57408     -353.71395      0              3508.9369      46.182886      20.047001      20.857         19310.002      2115.2305      3600.8992      4810.6811      409.18083      810.02378     -750.97161    
  25723500   264.06994     -351.17457     -273.79343     -351.1042       0              3392.4898      46.271513      20.047001      20.857         19347.059      1750.6563      5808.3038      2618.5094     -1684.6587      423.48251      382.00638    
  25724000   268.27249     -352.7677      -274.15507     -352.70995      0              3730.1355      46.021113      20.047001      20.857         19242.362      6305.7016      1478.7006      3406.0044      945.20145     -398.2966      -1349.1894    
  25724500   262.0809      -350.35451     -273.55622     -350.29408      0              5355.1545      45.980082      20.047001      20.857         19225.206      5795.4566      3875.3554      6394.6514     -729.39876     -95.406577      1737.1331    
  25725000   264.3621      -354.55743     -277.09068     -354.50867      0              4841.3604      46.284841      20.047001      20.857         19352.631      5690.8367      4322.5503      4510.6942     -831.93169     -1446.0956      812.64644    
  25725500   259.05084     -353.2922      -277.38182     -353.21889      0              4216.0815      46.360113      20.047001      20.857         19384.104      7655.4263      250.05342      4742.7648     -230.17629      30.194732      550.39682    
  25726000   270.92499     -352.08196     -272.69206     -352.02335      0              5409.3211      46.1478        20.047001      20.857         19295.332      7465.6916      3673.2664      5089.0053     -1857.2834     -1831.3875      1576.9651    
  25726500   254.56435     -351.43518     -276.83949     -351.35409      0              5744.6278      46.038734      20.047001      20.857         19249.729      3837.3131      7731.4416      5665.1286     -634.78842     -990.57245     -1673.732     
  25727000   265.54984     -351.22406     -273.40926     -351.20593      0              4022.2094      46.2345        20.047001      20.857         19331.583      4848.4119      3775.0623      3443.154       190.17396     -621.21267      807.61934    
  25727500   258.70723     -351.49153     -275.68184     -351.50204      0              2739.5382      46.447559      20.047001      20.857         19420.667      497.51259      5339.6019      2381.5002      150.90647     -1305.471      -1934.3078    
  25728000   261.13002     -352.45627     -275.93662     -352.42611      0              5289.4894      46.228224      20.047001      20.857         19328.959      6442.0378      4784.2178      4642.2126      947.35186     -1460.314      -1487.249     
  25728500   262.23492     -351.40087     -274.55745     -351.35624      0              4894.5408      46.213429      20.047001      20.857         19322.773      4451.5963      5585.1082      4646.9179     -655.61008     -688.0651       1718.5366    
  25729000   257.91803     -352.08127     -276.50284     -352.02568      0              3719.0528      46.479155      20.047001      20.857         19433.878      6054.9268      3544.4511      1557.7804     -214.47916     -1729.2187      286.98172    
  25729500   260.08355     -351.83668     -275.62369     -351.82345      0              4862.0072      46.538373      20.047001      20.857         19458.639      5390.4111      3876.2643      5319.346      -474.14206     -925.02343     -1232.3862    
  25730000   263.92707     -350.80664     -273.46736     -350.74889      0              4308.2966      46.382962      20.047001      20.857         19393.658      5642.8141      3134.3744      4147.7015      915.48794     -0.46469998     1356.6003    
  25730500   266.92228     -350.99294     -272.77597     -350.95796      0              6171.9107      46.166081      20.047001      20.857         19302.976      6425.3067      4604.4593      7485.9661      791.55445     -457.07555     -163.24036    
  25731000   267.62268     -350.80133     -272.37912     -350.82263      0              6862.6089      46.2222        20.047001      20.857         19326.44       7707.401       7697.6663      5182.7594     -43.61298      -405.58093     -626.89572    
  25731500   270.23028     -349.95757     -270.77125     -349.92886      0              3454.4188      46.497172      20.047001      20.857         19441.411      5302.0802      2170.1103      2891.0659      858.74433      1335.7328     -2113.9245    
  25732000   267.98104     -353.08121     -274.55399     -353.0193       0              6623.7199      46.402984      20.047001      20.857         19402.029      9091.0614      5132.9716      5647.1268     -1906.419      -646.05535      1438.3595    
  25732500   268.591       -352.16406     -273.4581      -352.10931      0              5145.3959      46.271716      20.047001      20.857         19347.144      5657.7676      5611.3524      4167.0679      1317.0249     -90.716885      1472.2959    
  25733000   266.54055     -353.51941     -275.4143      -353.44885      0              5317.9189      46.181687      20.047001      20.857         19309.501      6753.2998      5497.9963      3702.4605      518.84185      1197.3519     -721.71213    
  25733500   266.97047     -353.61467     -275.38358     -353.55981      0              4434.4122      46.269857      20.047001      20.857         19346.367      4936.2838      4262.8653      4104.0876     -246.86195     -1297.7179      1408.8041    
  25734000   262.23635     -352.36456     -275.52072     -352.35303      0              2852.7736      46.22454       20.047001      20.857         19327.419      2658.9164      1787.0346      4112.3698     -326.24835      320.96236      519.65768    
  25734500   262.16326     -350.68358     -273.86116     -350.63449      0              6110.5643      45.917005      20.047001      20.857         19198.832      6781.7639      6617.6171      4932.3118      353.06186      932.89699      630.67508    
  25735000   255.60364     -351.5726      -276.67236     -351.54088      0              3925.0895      45.883072      20.047001      20.857         19184.644      2393.3677      4062.0107      5319.89        78.106901     -2051.0611      240.97037    
  25735500   252.55709     -350.12213     -276.11463     -350.06657      0              6225.8518      46.082049      20.047001      20.857         19267.84       6995.1761      6488.3739      5194.0055     -911.77478      929.0437      -391.11819    
  25736000   269.26015     -350.81534     -271.9133      -350.75635      0              3178.4054      46.309825      20.047001      20.857         19363.078      2034.1179      2194.2803      5306.8179      650.70932      397.45296     -348.05129    
  25736500   258.38235     -349.93744     -274.22295     -349.88214      0              4753.1991      46.194262      20.047001      20.857         19314.759      5577.8788      3991.3874      4690.3311      1241.6072      877.28635     -182.41836    
  25737000   260.51359     -350.19033     -273.85131     -350.14462      0              3862.2804      45.970111      20.047001      20.857         19221.037      3944.4657      3664.6963      3977.6793     -896.22898      1878.8157     -1539.5934    
  25737500   263.95065     -354.59556     -277.24937     -354.5353       0              4573.229       45.87374       20.047001      20.857         19180.742      4940.6669      4071.7079      4707.3121     -232.47307     -22.292881     -1375.4093    
  25738000   265.94147     -352.37164     -274.44208     -352.30079      0              6182.2952      46.043177      20.047001      20.857         19251.587      7051.9606      5753.4076      5741.5175      2.9824356     -1255.7261     -191.72386    
  25738500   260.12181     -349.11154     -272.88733     -349.07872      0              2505.4007      46.16919       20.047001      20.857         19304.275      2878.6461      2173.0231      2464.5329      1136.1886     -224.20822     -1138.8418    
  25739000   265.90919     -350.81754     -272.89744     -350.73886      0              5849.1358      46.051268      20.047001      20.857         19254.97       6371.004       5599.4243      5576.979      -765.07029     -859.50127      1069.3451    
  25739500   257.14452     -349.85793     -274.50616     -349.80579      0              4976.4797      46.056927      20.047001      20.857         19257.336      6320.0042      3445.3249      5164.1099      263.3874       766.02387     -378.49523    
  25740000   260.06255     -352.02252     -275.81568     -351.9775       0              2985.276       46.197823      20.047001      20.857         19316.248      3166.7861      2990.6023      2798.4396     -713.90424      642.10541     -997.41871    
  25740500   264.56245     -350.25463     -272.72917     -350.20317      0              3275.5384      46.321608      20.047001      20.857         19368.005      4577.809       52.265423      5196.5407      599.77726     -181.6885       619.19208    
  25741000   267.44406     -352.37657     -274.00671     -352.35797      0              5240.2195      46.266971      20.047001      20.857         19345.16       6068.0565      5475.619       4176.9829      540.48272      1185.0002      904.5901     
  25741500   264.21237     -351.26365     -273.84077     -351.23372      0              4153.5398      46.07613       20.047001      20.857         19265.365      2180.5918      4623.2967      5656.7309     -146.55426      543.37695      1247.63      
  25742000   261.70109     -350.01633     -273.32934     -350.01453      0              4306.4331      46.145254      20.047001      20.857         19294.268      4992.154       4002.6999      3924.4454      467.12935      332.35718      237.47638    
  25742500   265.75986     -352.26281     -274.38646     -352.22145      0              4634.3902      46.197477      20.047001      20.857         19316.103      4114.1438      5086.0444      4702.9823      775.55581     -536.25253      372.00524    
  25743000   271.44026     -351.73008     -272.18919     -351.68425      0              6607.6045      46.13374       20.047001      20.857         19289.453      5881.4159      6919.7079      7021.6898      1081.3535     -1236.8474      47.708665    
  25743500   267.08782     -352.67872     -274.41324     -352.62729      0              5724.4359      46.110939      20.047001      20.857         19279.92       5392.8872      7002.1826      4778.2379     -362.18612      684.32319     -264.5408     
  25744000   263.73146     -350.87362     -273.59166     -350.84122      0              6357.7596      45.954104      20.047001      20.857         19214.344      7586.9107      5773.1774      5713.1907      845.94052      1269.2972      1020.1979    
  25744500   261.63231     -351.43547     -274.76864     -351.39238      0              6013.2555      46.01164       20.047001      20.857         19238.401      8135.807       5828.3304      4075.6291      652.67726     -2370.1436     -217.53126    
  25745000   267.69525     -351.12046     -272.67699     -351.10378      0              5601.8377      46.17509       20.047001      20.857         19306.742      4785.7635      4957.2415      7062.5082      1217.3053      597.77847     -1430.0536    
  25745500   265.98191     -349.76859     -271.82718     -349.72033      0              5807.568       46.006334      20.047001      20.857         19236.182      6196.412       7319.5753      3906.7166      176.6325      -355.3338       1107.327     
  25746000   269.86432     -351.80277     -272.72369     -351.74715      0              6687.2147      45.878384      20.047001      20.857         19182.684      8298.314       4914.4793      6848.8508      762.98593      1515.0362      782.92429    
  25746500   257.25107     -351.59292     -276.20993     -351.53504      0              5928.4255      46.06624       20.047001      20.857         19261.23       7468.9681      5297.9807      5018.3278      1397.6825     -534.59844     -464.54425    
  25747000   267.29218     -353.34241     -275.01705     -353.31048      0              7261.071       45.971052      20.047001      20.857         19221.43       7537.8177      7498.7967      6746.5985     -719.68183      965.66751     -1368.1886    
  25747500   261.69099     -350.23349     -273.54946     -350.2077       0              4956.4672      46.094085      20.047001      20.857         19272.873      3991.9028      6942.1391      3935.3596     -1359.1916      36.292082      1672.3912    
  25748000   266.02175     -351.35807     -273.40499     -351.34833      0              4485.5661      46.510706      20.047001      20.857         19447.07       4973.6526      2734.1854      5748.8602      795.56695      809.36746      877.83073    
  25748500   267.24732     -350.53521     -272.22299     -350.53057      0              2918.7741      46.621306      20.047001      20.857         19493.315      4921.9705      2278.4037      1555.9481      314.58593      1016.975      -158.07447    
  25749000   273.30277     -350.01524     -269.92858     -350.0024       0              3854.3238      46.280834      20.047001      20.857         19350.956      6732.6207      1897.1294      2933.2212      1693.5602      747.71828      608.17943    
  25749500   269.0515      -351.37552     -272.53462     -351.36639      0              5969.5051      46.391395      20.047001      20.857         19397.184      5897.8167      5972.7059      6037.9926      1420.5037      1159.6672     -2408.4997    
  25750000   268.01233     -348.05905     -269.52266     -348.03319      0              3310.4602      46.397232      20.047001      20.857         19399.625      2806.4907      5704.9317      1419.9584      388.11762      1262.8576     -374.58345    
  25750500   264.27012     -349.45403     -272.01423     -349.43601      0              3942.0721      46.329531      20.047001      20.857         19371.317      3546.305       5141.1458      3138.7655      1138.1935      2589.0681     -388.58644    
  25751000   262.87442     -349.36442     -272.3336      -349.37031      0              4709.7008      46.362623      20.047001      20.857         19385.154      4071.4758      6190.0509      3867.5756      1917.2515      625.06533      102.0982     
  25751500   262.41186     -350.19297     -273.2977      -350.21605      0              5339.0433      46.244315      20.047001      20.857         19335.687      6347.6511      4877.2515      4792.2274     -358.78343      1122.5344     -963.81062    
  25752000   267.23635     -351.70659     -273.39759     -351.69981      0              4818.1606      46.116914      20.047001      20.857         19282.418      4212.3431      5235.9486      5006.1902      621.7527       606.5479       690.6487     
  25752500   270.60924     -351.38825     -272.09088     -351.40154      0              2203.7153      46.377079      20.047001      20.857         19391.198      1384.0199      3743.8133      1483.3126     -453.98574      1153.6112      54.297308    
  25753000   261.97731     -352.18444     -275.41651     -352.19042      0              4726.2441      46.543209      20.047001      20.857         19460.661      3050.2672      6611.6108      4516.8543      772.51996      1499.1895      2945.4528    
  25753500   260.69516     -350.50869     -274.11647     -350.44433      0              6367.4934      46.189376      20.047001      20.857         19312.716      7446.5292      7448.4769      4207.4742      56.09669      -205.05036     -1062.2248    
  25754000   261.28079     -350.11985     -273.55602     -350.09155      0              4229.3878      46.0969        20.047001      20.857         19274.05       5338.1998      3333.8998      4016.0639      2034.5031      1578.6483     -577.00232    
  25754500   266.11722     -352.35076     -274.36969     -352.32883      0              3385.1094      46.539203      20.047001      20.857         19458.985      3358.6607      3202.8095      3593.8579     -106.71833      199.21798      2007.9374    
  25755000   270.85004     -349.46025     -270.09232     -349.47428      0              5695.245       46.658292      20.047001      20.857         19508.779      7717.7547      4918.1463      4449.8339     -70.682581      1761.5795     -385.74197    
  25755500   259.74238     -352.0267      -275.91368     -351.99725      0              3624.335       46.396691      20.047001      20.857         19399.398      2565.6093      4788.0057      3519.39        94.329527      716.86591     -972.55666    
  25756000   265.79023     -348.83845     -270.95321     -348.81485      0              2833.0127      46.202881      20.047001      20.857         19318.363      5318.382       1115.9452      2064.7107      382.84181      253.27578     -707.85629    
  25756500   271.71937     -349.99937     -270.37669     -349.97297      0              3619.3461      46.237032      20.047001      20.857         19332.642      2360.2995      4609.7673      3887.9716      180.21674     -589.69703      1662.4091    
  25757000   261.34367     -348.72919     -272.14694     -348.71901      0              4664.5136      46.207787      20.047001      20.857         19320.414      5667.4942      2837.2115      5488.8351     -679.30622     -1067.5539      444.5517     
  25757500   257.46762     -351.57595     -276.12951     -351.5378       0              5116.628       46.054007      20.047001      20.857         19256.115      4949.4071      5317.9905      5082.4863      654.91643     -165.43721      2017.3761    
  25758000   261.7507      -353.48885     -276.78732     -353.43598      0              5410.7595      46.138687      20.047001      20.857         19291.522      5570.0036      6010.6507      4651.624       447.92334      1241.2006     -383.01082    
  25758500   260.17902     -354.21496     -277.97399     -354.13214      0              5726.9319      46.197031      20.047001      20.857         19315.917      3638.5742      8897.1608      4645.0608      95.16202      -199.20278      193.37959    
  25759000   261.44734     -353.21214     -276.59951     -353.13378      0              5456.4371      46.284457      20.047001      20.857         19352.471      5597.6318      5004.3945      5767.285      -1539.8475      989.87429     -49.668804    
  25759500   267.51476     -353.93225     -275.54166     -353.88168      0              5353.3698      46.244782      20.047001      20.857         19335.882      4587.6606      6945.2426      4527.2062      283.5808      -4.7384862      1004.8765    
  25760000   265.16829     -351.53441     -273.83141     -351.47593      0              5127.8325      46.109763      20.047001      20.857         19279.428      6017.2121      5315.3461      4050.9394     -825.37813      913.22882      859.32877    
  25760500   260.2372      -350.87065     -274.61263     -350.83468      0              3775.0631      46.038931      20.047001      20.857         19249.811      3802.4735      4817.69        2705.0258      1209.969      -2232.2065     -1139.8995    
  25761000   265.79799     -350.91956     -273.03204     -350.87822      0              4604.6553      45.991683      20.047001      20.857         19230.056      6655.8956      3749.8463      3408.2239      879.08626     -1041.6833     -1096.6567    
  25761500   266.97075     -352.04602     -273.81485     -352.0311       0              5419.2556      46.130535      20.047001      20.857         19288.113      5534.4089      5436.48        5286.8779      1257.1125      890.69124      2182.8421    
  25762000   264.38339     -351.10622     -273.63323     -351.06228      0              6307.2814      46.372145      20.047001      20.857         19389.135      6597.0364      3990.1408      8334.667      -99.831889      295.31384      1642.8362    
  25762500   266.6236      -349.36835     -271.2389      -349.35803      0              4599.3184      46.324749      20.047001      20.857         19369.318      5088.3451      4717.9964      3991.6137      18.034206      2416.0761     -495.83402    
ERROR on proc 0: Cannot open restart file restart.lmp.0: Permission denied (../write_restart.cpp:233)
Last command: run             40000000 upto
