LAMMPS (23 Jun 2022)
echo both

include		in.partitions
variable        pid world 0
include		in.temp
variable	temperature equal 265.0
variable        tempDamp equal 0.100 # this is 0.1 ps
include		in.pressure
variable        pressure equal 5066.25
variable        pressureDamp equal 1.0 #this is 1ps
include		in.seed
variable        seed world 745823

units           metal
atom_style	full
read_restart	restart.lmp.${pid}
read_restart	restart.lmp.0
Reading restart file ...
  restart file = 23 Jun 2022, LAMMPS = 23 Jun 2022
  restoring atom style full from restart
  orthogonal box = (0.57121562 0 0) to (46.879483 20.047001 20.857)
  4 by 1 by 1 MPI processor grid
Summary of lammps deepmd module ...
  >>> Info of deepmd-kit:
  installed to:       /u/sigbjobo/software/DEEPMD_FROM_SOURCE/deepmd-kit/install
  source:             v2.1.3
  source branch:       master
  source commit:      5a32c49
  source commit at:   2022-07-01 09:52:58 +0800
  surpport model ver.:1.1 
  build float prec:   double
  build with tf inc:  /u/sigbjobo/software/DEEPMD_FROM_SOURCE/tensorflow/install/include;/u/sigbjobo/software/DEEPMD_FROM_SOURCE/tensorflow/install/include
  build with tf lib:  /u/sigbjobo/software/DEEPMD_FROM_SOURCE/tensorflow/install/lib/libtensorflow_cc.so;/u/sigbjobo/software/DEEPMD_FROM_SOURCE/tensorflow/install/lib/libtensorflow_framework.so
  set tf intra_op_parallelism_threads: 0
  set tf inter_op_parallelism_threads: 0
  >>> Info of lammps module:
  use deepmd-kit at:  /u/sigbjobo/software/DEEPMD_FROM_SOURCE/deepmd-kit/install
  source:             v2.1.3
  source branch:      master
  source commit:      5a32c49
  source commit at:   2022-07-01 09:52:58 +0800
  build float prec:   double
  build with tf inc:  /u/sigbjobo/software/DEEPMD_FROM_SOURCE/tensorflow/install/include;/u/sigbjobo/software/DEEPMD_FROM_SOURCE/tensorflow/install/include
  build with tf lib:  /u/sigbjobo/software/DEEPMD_FROM_SOURCE/tensorflow/install/lib/libtensorflow_cc.so;/u/sigbjobo/software/DEEPMD_FROM_SOURCE/tensorflow/install/lib/libtensorflow_framework.so
  restoring pair style deepmd from restart
  2268 atoms
Finding 1-2 1-3 1-4 neighbors ...
  special bond factors lj:    0        0        0       
  special bond factors coul:  0        0        0       
     0 = max # of 1-2 neighbors
     0 = max # of 1-3 neighbors
     0 = max # of 1-4 neighbors
     1 = max # of special neighbors
  special bonds CPU = 0.000 seconds
  read_restart CPU = 0.035 seconds
include 	in.setup
variable	out_freq equal 500
variable	out_freq2 equal 1000
variable	out_freq3 equal 5000

timestep        0.0005

neigh_modify    delay 7 every 1

include         in.deepmd
# This is deepMD model

# create groups ###
#group ox type 2
#group hy type 1

mass 2 15.999
mass 1 1.008

pair_style      deepmd ../graph.pb
pair_coeff      * *

bond_style      none
angle_style     none
dihedral_style  none
improper_style  none
neigh_modify exclude none


neighbor        2.0 bin
neigh_modify    every 10 delay 0 check no

thermo          ${out_freq}
thermo          500
thermo_style 	custom step temp pe etotal epair emol press lx ly lz vol pxx pyy pzz pxy pxz pyz
#thermo_modify	flush yes
restart 	${out_freq} restart.lmp.${pid} restart2.lmp.${pid}
restart 	500 restart.lmp.${pid} restart2.lmp.${pid}
restart 	500 restart.lmp.0 restart2.lmp.${pid}
restart 	500 restart.lmp.0 restart2.lmp.0

include		in.dump
dump            myDump all atom ${out_freq3} dump.water.${pid}
dump            myDump all atom 5000 dump.water.${pid}
dump            myDump all atom 5000 dump.water.0
dump            myDump2 all dcd ${out_freq2} dump.dcd.${pid}
dump            myDump2 all dcd 1000 dump.dcd.${pid}
dump            myDump2 all dcd 1000 dump.dcd.0
dump_modify     myDump append yes
dump_modify     myDump2 append yes


timer           timeout 23:50:00 every 1000
New timer settings: style=normal  mode=nosync  timeout=23:50:00

fix             1 all plumed plumedfile plumed.dat outfile plumed.out
fix             3 all nph x ${pressure} ${pressure} ${pressureDamp}
fix             3 all nph x 5066.25 ${pressure} ${pressureDamp}
fix             3 all nph x 5066.25 5066.25 ${pressureDamp}
fix             3 all nph x 5066.25 5066.25 1
fix             4 all temp/csvr ${temperature} ${temperature} ${tempDamp} ${seed}
fix             4 all temp/csvr 265 ${temperature} ${tempDamp} ${seed}
fix             4 all temp/csvr 265 265 ${tempDamp} ${seed}
fix             4 all temp/csvr 265 265 0.1 ${seed}
fix             4 all temp/csvr 265 265 0.1 745823

run             40000000 upto

CITE-CITE-CITE-CITE-CITE-CITE-CITE-CITE-CITE-CITE-CITE-CITE-CITE

Your simulation uses code contributions which should be cited:

- USER-DEEPMD package:

@article{Wang_ComputPhysCommun_2018_v228_p178,
  author = {Wang, Han and Zhang, Linfeng and Han, Jiequn and E, Weinan},
  doi = {10.1016/j.cpc.2018.03.016},
  url = {https://doi.org/10.1016/j.cpc.2018.03.016},
  year = 2018,
  month = {jul},
  publisher = {Elsevier {BV}},
  volume = 228,
  journal = {Comput. Phys. Commun.},
  title = {{DeePMD-kit: A deep learning package for many-body potential energy representation and molecular dynamics}},
  pages = {178--184}
}

CITE-CITE-CITE-CITE-CITE-CITE-CITE-CITE-CITE-CITE-CITE-CITE-CITE

Generated 0 of 1 mixed pair_coeff terms from geometric mixing rule
Neighbor list info ...
  update every 10 steps, delay 0 steps, check no
  max neighbors/atom: 2000, page size: 100000
  master list distance cutoff = 8
  ghost atom cutoff = 8
  binsize = 4, bins = 12 6 6
  1 neighbor lists, perpetual/occasional/extra = 1 0 0
  (1) pair deepmd, perpetual
      attributes: full, newton on
      pair build: full/bin
      stencil: full/bin/3d
      bin: standard
Per MPI rank memory allocation (min/avg/max) = 7.205 | 7.208 | 7.21 Mbytes
   Step          Temp          PotEng         TotEng         E_pair         E_mol          Press            Lx             Ly             Lz           Volume          Pxx            Pyy            Pzz            Pxy            Pxz            Pyz      
  18995000   264.40592     -353.03068     -275.55109     -353.03068      0              4577.8201      46.308268      20.047001      20.857         19362.427      5130.5292      4536.1925      4066.7387      735.16396     -960.50838      1368.6896    
  18995500   267.46932     -352.41914     -274.04187     -352.36302      0              3921.2627      46.358842      20.047001      20.857         19383.573      207.06646      6357.4513      5199.2702      1692.1593     -1759.6956      596.15769    
  18996000   265.97841     -350.82951     -272.88912     -350.75229      0              6456.4272      46.411816      20.047001      20.857         19405.722      4649.1556      8407.9505      6312.1754      561.48908      174.47917     -1169.6433    
  18996500   256.89011     -348.1816      -272.90438     -348.14858      0              6140.3138      46.559543      20.047001      20.857         19467.49       7959.6731      6263.5413      4197.7269      527.70459     -1044.4041     -145.29767    
  18997000   264.96384     -348.59841     -270.95533     -348.58463      0              5366.2587      46.508526      20.047001      20.857         19446.159      6818.2215      4894.887       4385.6676      263.725       -2548.4656     -523.26782    
  18997500   269.67205     -348.79268     -269.76994     -348.71343      0              5354.5207      46.452831      20.047001      20.857         19422.872      5299.112       5123.2986      5641.1514     -650.95319      90.792675     -785.61325    
  18998000   271.30665     -350.51596     -271.01423     -350.41357      0              5412.0122      46.299997      20.047001      20.857         19358.969      4884.8029      5854.4002      5496.8336     -1572.182      -798.14464      51.019659    
  18998500   259.61183     -350.09097     -274.0162      -350.01727      0              4290.5198      46.141118      20.047001      20.857         19292.538      3330.7699      5415.3743      4125.4152      218.7735      -2440.4318     -351.49895    
  18999000   262.58117     -350.83664     -273.89176     -350.77862      0              5627.6037      46.048176      20.047001      20.857         19253.677      3282.8851      7630.1196      5969.8063     -1135.243      -595.94448     -1527.8602    
  18999500   267.40768     -352.44655     -274.08735     -352.37458      0              4904.7319      46.16828       20.047001      20.857         19303.895      5627.2168      5782.6082      3304.3706      363.57563      10.849743     -401.23251    
  19000000   263.11888     -350.84631     -273.74386     -350.77622      0              3486.7097      46.433038      20.047001      20.857         19414.596      5504.5827      2570.2286      2385.3178     -1500.6403     -528.08532      1466.6965    
  19000500   264.2836      -352.17395     -274.7302      -352.14826      0              4170.2479      46.608896      20.047001      20.857         19488.125      4765.0323      3548.6618      4197.0495      203.92873      286.7482      -175.58514    
  19001000   271.53374     -352.86521     -273.29694     -352.81785      0              4385.32        46.362563      20.047001      20.857         19385.129      5262.6338      5201.1052      2692.2209     -1659.3742     -1333.8875      968.67161    
  19001500   263.93906     -352.19034     -274.84755     -352.18848      0              6979.0638      46.271028      20.047001      20.857         19346.856      8388.2909      6302.7468      6246.1537     -142.94004     -1478.4093      67.738105    
  19002000   267.65463     -350.50256     -272.07098     -350.49661      0              4793.262       46.479668      20.047001      20.857         19434.093      3186.3286      6153.7837      5039.6738      463.70055     -1222.7548     -651.70252    
  19002500   264.391       -349.69292     -272.2177      -349.68267      0              4273.9296      46.547589      20.047001      20.857         19462.492      3194.1676      5728.8332      3898.7881     -853.54255      92.419318     -94.898827    
  19003000   266.46905     -352.08464     -274.00048     -352.03256      0              6289.9981      46.178697      20.047001      20.857         19308.251      7357.3824      5246.7376      6265.8742     -529.26233     -832.90435     -307.11796    
  19003500   260.45817     -351.50491     -275.18213     -351.48199      0              4555.8855      46.033686      20.047001      20.857         19247.619      6135.7659      4146.2356      3385.6551     -1498.8991     -789.05883     -14.494144    
  19004000   269.19335     -349.48341     -270.60094     -349.47669      0              3904.2132      46.091669      20.047001      20.857         19271.863      4276.2375      6662.7186      773.68344     -350.1434       1034.1852     -561.88019    
  19004500   267.70697     -349.12536     -270.67845     -349.10365      0              3304.4878      46.348191      20.047001      20.857         19379.119      2361.4462      2815.9882      4736.0289      859.67412     -1185.063      -883.26411    
  19005000   273.98079     -349.6832      -269.39785     -349.65131      0              2851.6929      46.207517      20.047001      20.857         19320.301      3396.865       3320.3074      1837.9062     -893.1466      -1087.1904     -555.47675    
  19005500   273.72724     -347.2385      -267.02746     -347.22513      0              4840.3415      46.108143      20.047001      20.857         19278.75       5418.7776      3582.0957      5520.1511      980.71708     -2591.1016     -647.85384    
  19006000   266.6207      -349.88526     -271.75666     -349.85102      0              5258.6161      46.562059      20.047001      20.857         19468.542      4150.2604      6340.1042      5285.4837      390.02505     -1321.9235      548.47821    
  19006500   262.42409     -350.681       -273.78215     -350.66967      0              5200.7974      46.748166      20.047001      20.857         19546.357      4398.1844      4012.2671      7191.9407     -1279.709      -573.59808     -1763.251     
  19007000   265.3496      -347.9653      -270.20918     -347.91207      0              3525.4819      46.160143      20.047001      20.857         19300.493      4015.5988      5358.0871      1202.7599      0.081488687   -596.58177      1378.5582    
  19007500   267.07872     -348.52636     -270.26355     -348.46082      0              3325.5732      46.076959      20.047001      20.857         19265.712      4500.9843      2275.6511      3200.0842     -1228.885      -1045.1121     -1099.7529    
  19008000   269.24893     -347.87007     -268.97132     -347.82453      0              4345.9093      46.172923      20.047001      20.857         19305.836      5982.0273      2912.3046      4143.3958      379.5059       218.97986      1655.4862    
  19008500   263.11331     -349.5702      -272.46938     -349.51166      0              5522.7234      46.128535      20.047001      20.857         19287.277      5139.6341      5319.3288      6109.2072     -944.77925     -2207.6869     -530.9956     
  19009000   265.78342     -353.06761     -275.18437     -352.98089      0              3191.3161      46.128703      20.047001      20.857         19287.347      5095.6611      1706.6763      2771.6109     -495.04682     -209.33614      384.20813    
  19009500   257.64152     -351.61598     -276.11858     -351.53387      0              3282.5295      46.173652      20.047001      20.857         19306.141      2664.3462      4343.5243      2839.7182      610.13243      743.15998      916.0893     
  19010000   265.71735     -349.5291      -271.66521     -349.43323      0              6319.0814      46.176441      20.047001      20.857         19307.307      7912.7556      4812.3858      6232.1028     -871.31324     -471.09737     -1473.6173    
  19010500   269.49585     -351.46817     -272.49706     -351.36354      0              3643.1356      46.141724      20.047001      20.857         19292.792      5650.6112      4143.9947      1134.8009      1128.2295      532.88728     -231.6027     
  19011000   261.31061     -347.74371     -271.17115     -347.65971      0              4227.488       46.024212      20.047001      20.857         19243.657      3960.8418      3528.0503      5193.572       572.86905      925.97929      1207.2615    
  19011500   265.82903     -348.88213     -270.98552     -348.80073      0              5483.5745      46.042884      20.047001      20.857         19251.464      8916.901       3723.7336      3810.0889      727.28069     -1431.7799     -550.55481    
  19012000   261.03843     -349.04166     -272.54885     -348.97532      0              4395.9081      46.205196      20.047001      20.857         19319.33       3279.1168      4606.3256      5302.2818     -74.795342     -782.93651     -2308.9138    
  19012500   263.52105     -350.33388     -273.11358     -350.25569      0              4901.5077      46.318368      20.047001      20.857         19366.65       4308.5838      5775.942       4619.9974      85.541063     -1386.3208     -3177.5937    
  19013000   260.38213     -351.35165     -275.05116     -351.33779      0              4185.779       46.218608      20.047001      20.857         19324.938      4090.9208      4187.0274      4279.389       241.18268      987.82409      1600.6406    
  19013500   263.42086     -351.10088     -273.90994     -351.06355      0              3684.8944      46.07039       20.047001      20.857         19262.965      3641.0645      3235.7542      4177.8646      871.87376     -1633.8609     -461.6018     
  19014000   260.25295     -349.05931     -272.79668     -348.98333      0              5347.6521      45.915717      20.047001      20.857         19198.294      4111.643       6914.4518      5016.8614     -702.88373     -726.72935     -85.884126    
  19014500   264.98341     -350.81643     -273.16762     -350.71402      0              6483.2915      46.052074      20.047001      20.857         19255.307      8325.233       6498.132       4626.5093      585.46419     -926.78209     -1656.3719    
  19015000   257.72074     -351.31471     -275.79409     -351.2024       0              4612.9865      46.180198      20.047001      20.857         19308.878      4133.2296      7798.4788      1907.2509      474.75012     -18.883832      1287.836     
  19015500   272.11889     -353.0707      -273.33095     -352.96341      0              6763.5018      46.037709      20.047001      20.857         19249.301      7247.2258      5473.1343      7570.1453     -246.21961     -95.346469      37.553028    
  19016000   261.41094     -351.78584     -275.18388     -351.72105      0              4161.0954      45.964541      20.047001      20.857         19218.708      5539.9619      5448.5076      1494.8166     -17.63232      -23.508506     -2853.5501    
  19016500   261.5839      -353.94969     -277.29704     -353.91933      0              4693.6341      46.208441      20.047001      20.857         19320.687      5591.6204      3837.1979      4652.084       1181.1596     -1091.8237      18.557802    
  19017000   260.7538      -350.41932     -274.00992     -350.40543      0              4624.7406      46.320641      20.047001      20.857         19367.6        6176.0122      4272.838       3425.3716     -488.42262      1502.5439     -2221.5353    
  19017500   273.75314     -351.82891     -271.61028     -351.72115      0              6318.6433      45.974903      20.047001      20.857         19223.04       7613.3042      6475.2367      4867.3891      548.02023     -19.354222      504.36312    
  19018000   260.9624      -351.41027     -274.93974     -351.336        0              5995.4767      45.975244      20.047001      20.857         19223.183      6550.5519      5098.2661      6337.6121      393.32716     -1034.7506     -1781.915     
  19018500   263.37636     -349.87478     -272.69688     -349.83193      0              4696.6137      46.208485      20.047001      20.857         19320.706      3937.5549      4796.4401      5355.8462     -56.344628      888.41765     -666.38932    
  19019000   264.5776      -348.55486     -271.02495     -348.52439      0              4945.3016      46.198959      20.047001      20.857         19316.723      4468.5196      5659.1482      4708.2371      1011.0177     -1155.2765      649.00745    
  19019500   263.91892     -350.63975     -273.30286     -350.60683      0              3384.9141      46.109167      20.047001      20.857         19279.179      3775.0236      4910.1069      1469.6117     -78.817103     -2374.7552     -259.05989    
  19020000   276.98934     -350.2708      -269.10385     -350.22937      0              4712.364       46.056694      20.047001      20.857         19257.239      5678.4959      3647.0622      4811.5338      596.11616      715.79531      44.347778    
  19020500   264.71289     -349.618       -272.04846     -349.57274      0              4593.6563      46.22064       20.047001      20.857         19325.788      3913.1083      5189.5286      4678.332      -807.34429     -970.53333      1265.3254    
  19021000   274.96461     -349.91795     -269.34432     -349.84531      0              1500.7371      46.337303      20.047001      20.857         19374.567      1760.8821      2994.47       -253.14082      1032.9036      1107.8425     -1009.0054    
  19021500   260.44862     -350.20297     -273.883       -350.16949      0              4854.2895      46.265162      20.047001      20.857         19344.403      7625.91        2166.2769      4770.6815     -571.22382     -373.45342      326.86793    
  19022000   270.73721     -350.86423     -271.52936     -350.83699      0              4522.2851      46.169861      20.047001      20.857         19304.556      6431.735       4139.3401      2995.7801      821.52195     -1343.4634      686.74453    
  19022500   262.82854     -349.65896     -272.64159     -349.60993      0              5130.5592      46.079324      20.047001      20.857         19266.701      4799.7982      1388.0136      9203.8659      866.85579     -2305.5952     -1617.6457    
  19023000   261.70193     -351.63222     -274.94498     -351.59909      0              5000.4392      46.112656      20.047001      20.857         19280.637      3723.2068      6251.0904      5027.0204      1407.402       726.50939      752.40055    
  19023500   265.51328     -350.7853      -272.98121     -350.73689      0              6759.2011      46.081626      20.047001      20.857         19267.663      8557.594       4796.3211      6923.6881     -1512.6397     -345.6009      -27.774094    
  19024000   262.53118     -352.20955     -275.27932     -352.16182      0              7304.4247      45.954534      20.047001      20.857         19214.523      8026.4536      8327.0777      5559.7427      2162.8187     -1462.4257     -90.84376     
  19024500   265.06458     -350.1177      -272.4451      -350.09259      0              6750.9296      45.959258      20.047001      20.857         19216.499      4344.4087      8592.6102      7315.7698      1061.6829      328.9826       1953.7741    
  19025000   274.40372     -348.09016     -267.68089     -348.07255      0              4525.2088      46.320817      20.047001      20.857         19367.674      5224.428       4307.3428      4043.8556      663.98088     -4.7078596     -48.987564    
  19025500   271.49616     -350.70909     -271.15182     -350.71623      0              4507.404       46.312303      20.047001      20.857         19364.114      5578.8661      3364.9519      4578.3939     -559.99541      923.2045      -1082.2629    
  19026000   274.33236     -349.48659     -269.09823     -349.45208      0              3906.1511      45.91581       20.047001      20.857         19198.332      5394.5492      2877.095       3446.809       308.61961     -937.76463      534.91708    
  19026500   269.95761     -351.95307     -272.84665     -351.92214      0              3671.0548      45.786029      20.047001      20.857         19144.068      2873.053       5019.0794      3121.0319     -430.82041     -255.94827      1185.2585    
  19027000   259.88946     -349.81532     -273.6592      -349.82359      0              4025.8813      46.1306        20.047001      20.857         19288.14       6043.2544      407.0672       5627.3224     -1910.2161     -1209.375       1088.3086    
  19027500   265.72838     -348.28215     -270.41503     -348.29182      0              4471.0401      46.167753      20.047001      20.857         19303.675      6021.8336      3589.0908      3802.196       1589.16        660.47415     -974.6106     
  19028000   267.51999     -349.05259     -270.66048     -349.00291      0              4307.7984      46.142337      20.047001      20.857         19293.048      5476.4347      5419.2017      2027.7589      738.41263     -480.96504      65.792389    
  19028500   261.7243      -350.53901     -273.84522     -350.52451      0              3263.1359      46.394807      20.047001      20.857         19398.611      4122.1341      1754.0394      3913.2343     -1530.4031      364.6396       1595.2299    
  19029000   262.52264     -352.30146     -275.37373     -352.2607       0              5736.6392      46.369904      20.047001      20.857         19388.198      5969.9367      6692.0337      4547.9473      997.83833      145.18932      282.62464    
  19029500   253.90944     -350.23299     -275.82921     -350.19245      0              3605.3561      46.134991      20.047001      20.857         19289.976      4294.9812      2635.0066      3886.0805     -1190.5997     -2824.8544      1785.4684    
  19030000   265.02881     -353.12242     -275.4603      -353.05912      0              5071.3195      45.962769      20.047001      20.857         19217.967      6490.2385      2979.8903      5743.8295      74.123624     -812.70472      157.00651    
  19030500   266.42075     -351.14797     -273.07796     -351.07299      0              4141.046       46.183691      20.047001      20.857         19310.339      4848.4594      3178.0537      4396.625      -981.7978      -707.94241     -656.86756    
  19031000   259.94166     -349.51238     -273.34096     -349.4891       0              3388.2024      46.415817      20.047001      20.857         19407.395      2607.7042      3881.9962      3674.9067     -560.91337      838.95046      1530.381     
  19031500   260.11007     -349.45583     -273.23506     -349.39435      0              5645.2395      45.966362      20.047001      20.857         19219.469      6914.8423      4603.2328      5417.6435     -289.04351     -391.18966      235.27587    
  19032000   262.4716      -350.7108      -273.79802     -350.64929      0              6947.2006      45.889444      20.047001      20.857         19187.308      9122.1181      6337.7303      5381.7535     -286.12577      471.57599     -362.6909     
  19032500   258.90266     -349.57064     -273.70368     -349.53969      0              4293.0711      46.080629      20.047001      20.857         19267.246      4758.2506      3787.1252      4333.8375     -1374.1375     -667.37671     -213.56918    
  19033000   269.54933     -349.29258     -270.3058      -349.29693      0              5356.4995      46.143661      20.047001      20.857         19293.602      6613.3225      5159.8026      4296.3734      1675.7468     -754.59441     -1389.1599    
  19033500   269.00741     -350.28262     -271.45464     -350.2648       0              4381.5169      46.262523      20.047001      20.857         19343.3        4696.7283      4500.4156      3947.4067     -1145.5807     -1958.2522     -439.86003    
  19034000   256.3173      -347.14394     -272.03457     -347.14496      0              3581.0482      46.443536      20.047001      20.857         19418.985      1221.6139      6284.4313      3237.0994      714.83549      710.14435      1465.6733    
  19034500   265.84038     -347.02653     -269.12659     -347.03761      0              3594.2665      46.402037      20.047001      20.857         19401.633      1683.2822      4689.8932      4409.6242     -733.36415      843.50369      2602.674     
  19035000   262.23389     -349.26102     -272.4179      -349.25758      0              6029.0004      46.444175      20.047001      20.857         19419.253      5580.6181      5920.1685      6586.2145     -867.29062      487.36538      1457.432     
  19035500   257.93069     -349.75129     -274.16915     -349.75862      0              1999.9339      46.533383      20.047001      20.857         19456.552      2424.8808      2839.8734      735.04746     -1157.6069     -298.43876     -1867.9851    
  19036000   256.07173     -349.00206     -273.96465     -348.99782      0              6083.2759      46.476536      20.047001      20.857         19432.783      8989.6049      3175.831       6084.392       1238.0349     -1917.3448      1148.7373    
  19036500   265.59207     -349.12387     -271.29669     -349.14009      0              3315.5388      46.386889      20.047001      20.857         19395.3        1320.273       5179.9799      3446.3634      181.65654     -1458.3669      444.10917    
  19037000   266.88874     -349.5888      -271.38166     -349.59739      0              2377.8255      46.303509      20.047001      20.857         19360.437      3049.8599      1713.0524      2370.5643     -963.89445     -106.23332      673.19843    
  19037500   268.90709     -350.47062     -271.67203     -350.42001      0              4967.7679      46.026081      20.047001      20.857         19244.439      5879.4689      4292.2596      4731.5753      196.2013      -1874.6388      392.52097    
  19038000   259.94472     -347.19873     -271.02642     -347.20448      0              3276.4193      46.191732      20.047001      20.857         19313.701      5905.9472      273.34661      3649.964       781.31914      446.42539      1468.0619    
  19038500   266.01414     -348.45828     -270.50743     -348.44919      0              5223.9149      46.442026      20.047001      20.857         19418.354      8096.4252      4572.4733      3002.8463      330.70312     -757.84806      196.42677    
  19039000   265.94726     -351.48936     -273.5581      -351.49861      0              3222.167       46.482131      20.047001      20.857         19435.123      2890.6342      5145.3682      1630.4987      690.72001     -360.87529     -676.3291     
  19039500   269.09406     -351.0035      -272.15013     -350.9816       0              3223.3285      46.187359      20.047001      20.857         19311.872      4118.8615      2051.4632      3499.6608     -153.09598     -603.40243     -252.87597    
  19040000   264.60652     -351.27564     -273.73727     -351.21521      0              3569.116       46.058751      20.047001      20.857         19258.099      3111.438       2761.5392      4834.3708      1004.6511     -527.02981      694.55752    
  19040500   261.60972     -352.55391     -275.8937      -352.54593      0              5899.9059      46.35996       20.047001      20.857         19384.04       6306.1329      5166.8603      6226.7245     -38.341408     -860.1827       57.43642     
  19041000   267.17107     -350.77391     -272.48403     -350.74103      0              5901.0684      46.317267      20.047001      20.857         19366.189      7064.6169      4494.0981      6144.4903      512.37421      65.01666       470.34391    
  19041500   271.22206     -350.98933     -271.51239     -350.92753      0              3692.1115      46.015634      20.047001      20.857         19240.071      5177.6613      3026.1945      2872.4786      535.22069      1366.3196      901.7595     
  19042000   264.13372     -349.79234     -272.39251     -349.74794      0              5687.3208      45.978626      20.047001      20.857         19224.597      6246.3589      4767.9146      6047.6888      1169.5149      43.706538     -282.93581    
  19042500   268.11317     -349.63876     -271.07282     -349.64245      0              4241.7872      46.3897        20.047001      20.857         19396.475      2564.5311      5377.7242      4783.1063     -1647.2386      306.15405     -1685.6804    
  19043000   266.2668      -352.3381      -274.31321     -352.3034       0              2822.4617      46.403272      20.047001      20.857         19402.15       3627.3785      2135.521       2704.4856     -1496.6643      648.55121     -1498.9732    
  19043500   262.49139     -348.80546     -271.88689     -348.79859      0              4213.3829      46.261562      20.047001      20.857         19342.898      4326.425       4828.3346      3485.3892     -1669.3543      684.65615     -354.54085    
  19044000   273.35944     -349.83046     -269.72719     -349.82402      0              7801.6979      46.127283      20.047001      20.857         19286.754      8114.6285      8455.6001      6834.8649      51.411312     -488.86558     -171.52654    
  19044500   270.40309     -345.65015     -266.41319     -345.62824      0              4420.6774      46.455843      20.047001      20.857         19424.131      3890.8566      4898.1682      4473.0073     -1298.8545     -1465.8208      621.58345    
  19045000   264.40686     -348.22741     -270.74754     -348.19888      0              3478.5615      46.788049      20.047001      20.857         19563.033      3585.943       5388.313       1461.4286      92.538226     -371.11379      1622.0997    
  19045500   269.04093     -350.14536     -271.30756     -350.12761      0              3810.4071      46.385153      20.047001      20.857         19394.574      3823.1782      3893.4542      3714.589       248.24544      510.47145     -836.76648    
  19046000   271.94906     -349.32251     -269.63253     -349.26044      0              4531.6267      46.045514      20.047001      20.857         19252.564      4439.0306      4888.3496      4267.4998     -388.78643      982.74306     -983.36154    
  19046500   268.04727     -349.42859     -270.88196     -349.38458      0              5251.9629      46.346758      20.047001      20.857         19378.52       7191.4224      5477.7522      3086.7141      154.46879     -119.92488     -221.03267    
  19047000   266.20092     -351.8376      -273.83201     -351.79454      0              2816.9567      46.351966      20.047001      20.857         19380.698      3015.4645      4410.3507      1025.0549     -193.05096     -602.84608      968.68055    
  19047500   264.3645      -348.53235     -271.06489     -348.51283      0              3709.2595      46.303188      20.047001      20.857         19360.303      2989.947       3972.0478      4165.7838     -141.97604     -1276.9115     -101.20497    
  19048000   262.77368     -350.4875      -273.4862      -350.44089      0              5959.8512      46.224377      20.047001      20.857         19327.35       8811.3877      5247.9605      3820.2054      387.3682       271.58396     -629.26299    
  19048500   263.91174     -349.7288      -272.39401     -349.73062      0              2344.4627      46.396496      20.047001      20.857         19399.317      2723.032       2425.1952      1885.1608      618.92233      34.805056      1226.5771    
  19049000   263.24848     -346.97421     -269.83379     -346.99059      0              5184.1919      46.327116      20.047001      20.857         19370.308      4880.2661      5907.6116      4764.698      -311.70577      1100.602      -315.94309    
  19049500   260.87029     -351.49783     -275.05429     -351.48122      0              2516.7164      46.254148      20.047001      20.857         19339.798      2986.5072      2234.4542      2329.1878      1239.4099     -945.61343      109.68127    
  19050000   272.41013     -351.12281     -271.29772     -351.1174       0              4882.4753      46.041181      20.047001      20.857         19250.752      5684.058       4500.2244      4463.1437      582.36256     -766.7717      -118.58911    
  19050500   258.87597     -349.0457      -273.18656     -349.0613       0              3949.9425      46.112926      20.047001      20.857         19280.75       4519.6091      2706.616       4623.6025     -119.02914     -376.3887      -207.27316    
  19051000   267.58621     -347.59265     -269.18113     -347.584        0              2517.0056      46.405145      20.047001      20.857         19402.933      3599.5766      1986.8153      1964.625      -300.28603     -267.5755       553.7703     
  19051500   265.97082     -349.7307      -271.79254     -349.71969      0              6233.7752      46.373306      20.047001      20.857         19389.621      5611.8192      6415.8948      6673.6115     -1077.8174      1058.1287      127.23446    
  19052000   263.44298     -352.29891     -275.10149     -352.2701       0              3279.3149      46.056819      20.047001      20.857         19257.291      4671.6335      2151.8022      3014.5091      639.71451     -1726.6217      1468.5665    
  19052500   267.64216     -351.40024     -272.97232     -351.35325      0              6012.0131      45.952597      20.047001      20.857         19213.713      7020.0811      7201.8266      3814.1315      1453.8938     -677.58872      437.77321    
  19053000   267.31502     -351.3176      -272.98555     -351.26616      0              5363.3237      46.163835      20.047001      20.857         19302.036      5399.368       5563.569       5127.0341     -35.372624     -1493.4063     -683.15652    
  19053500   270.72161     -350.38105     -271.05075     -350.40012      0              5245.6143      46.19193       20.047001      20.857         19313.783      1538.1063      6604.567       7594.1697     -757.31963     -1302.218      -819.42882    
  19054000   256.91364     -347.38691     -272.1028      -347.36351      0              5381.1654      46.201843      20.047001      20.857         19317.929      6709.75        4585.4218      4848.3245      1367.1142     -266.04036      897.28149    
  19054500   274.70248     -351.98803     -271.49121     -351.95766      0              2863.1302      46.217699      20.047001      20.857         19324.558      3264.086       2528.3739      2796.9308     -32.769936      320.76788     -202.65461    
  19055000   265.43295     -350.36359     -272.58304     -350.33761      0              5817.2556      46.044513      20.047001      20.857         19252.146      5010.8295      5130.5425      7310.3948      1961.2359      639.78041      1241.813     
  19055500   261.9488      -349.38094     -272.62136     -349.38006      0              4120.3135      46.232049      20.047001      20.857         19330.558      6576.7662      3979.0213      1805.153       768.05498     -150.42209     -1078.5973    
  19056000   268.93878     -351.47978     -272.67191     -351.45782      0              2656.5772      46.268327      20.047001      20.857         19345.727      1686.7218      4231.9582      2051.0516     -461.82997     -1580.4972     -340.1878     
  19056500   264.85891     -347.31867     -269.70633     -347.27102      0              3403.3311      45.939639      20.047001      20.857         19208.296      4772.4494      4399.36        1038.1839     -736.79987      1243.0771      651.20774    
  19057000   268.06202     -348.92969     -270.37873     -348.91439      0              4056.9557      46.070765      20.047001      20.857         19263.122      4144.9045      5580.2577      2445.7048      370.49476      247.04812      309.29522    
  19057500   262.05826     -349.35274     -272.56109     -349.34979      0              3868.5787      46.277714      20.047001      20.857         19349.652      5010.125       2086.3737      4509.2373     -314.09947     -372.66777      184.90557    
  19058000   271.28012     -347.29371     -267.79975     -347.28422      0              4851.7865      46.44278       20.047001      20.857         19418.669      5762.2904      5244.4699      3548.5991      1284.1954     -1067.586      -714.41321    
  19058500   266.79467     -350.87145     -272.69187     -350.89993      0              3705.4407      46.654998      20.047001      20.857         19507.402      3467.4151      2995.1877      4653.7193      242.55197     -1254.9731     -559.60855    
  19059000   272.72736     -349.76811     -269.85006     -349.7522       0              5830.7684      46.52569       20.047001      20.857         19453.336      6302.0746      5957.7478      5232.4828     -487.51568     -1339.5152      91.381357    
  19059500   263.28633     -350.42831     -273.27679     -350.42382      0              3062.1397      46.728496      20.047001      20.857         19538.133      2929.4425      3817.364       2439.6127      1128.4075     -2577.0007      1265.588     
  19060000   256.30238     -350.7573      -275.65231     -350.72676      0              4257.6185      46.621424      20.047001      20.857         19493.364      6569.7329      2458.211       3744.9117      146.96011      433.32291      1424.0283    
  19060500   259.23511     -350.12502     -274.16064     -350.10748      0              5090.926       46.374451      20.047001      20.857         19390.1        8586.3506      4498.065       2188.3625     -74.793853     -252.91568     -545.88411    
  19061000   269.25174     -348.74131     -269.84173     -348.72726      0              4710.3985      46.1893        20.047001      20.857         19312.684      3332.983       5897.2107      4901.0017      557.11316      400.04408      1402.4435    
  19061500   269.1126      -346.74922     -267.89042     -346.76023      0              4188.7801      46.145939      20.047001      20.857         19294.554      4053.0193      5493.908       3019.413       824.36937     -936.85666      498.15186    
  19062000   266.90715     -351.82203     -273.6095      -351.80535      0              5773.5134      46.304139      20.047001      20.857         19360.701      5026.5043      6790.9937      5503.0422     -275.26379     -738.47718      858.66174    
  19062500   263.30431     -350.08628     -272.92949     -350.08637      0              1278.2471      46.492965      20.047001      20.857         19439.653      1072.3426      219.79331      2542.6055     -567.40758      613.19572     -8.8243793    
  19063000   259.58404     -349.82645     -273.75983     -349.76586      0              4976.4809      46.336176      20.047001      20.857         19374.096      4964.3647      4683.1159      5281.9622      1245.1191     -265.54355     -83.916654    
  19063500   268.45911     -349.43692     -270.76961     -349.38967      0              5463.1848      46.252191      20.047001      20.857         19338.98       6312.7915      5426.8675      4649.8954     -129.4909       378.9322      -43.538414    
  19064000   264.57443     -351.09929     -273.57032     -351.0728       0              3991.9144      46.338442      20.047001      20.857         19375.043      5889.1376      3055.012       3031.5937     -686.12857      772.48635     -747.9419     
  19064500   262.3803      -348.25626     -271.37024     -348.25051      0              3068.1545      46.455826      20.047001      20.857         19424.124      1719.5943      3355.3535      4129.5157      360.34852     -242.29386      919.86622    
  19065000   265.79886     -350.88393     -272.99616     -350.86667      0              3923.6827      46.514524      20.047001      20.857         19448.667      4112.7095      3000.5338      4657.8047     -210.764        1471.7554     -1282.1013    
  19065500   260.27478     -351.05398     -274.78495     -351.04774      0              3968.1698      46.316457      20.047001      20.857         19365.851      7084.8869      1281.4048      3538.2178      889.03318      2789.5534     -332.90128    
  19066000   265.07986     -351.78561     -274.10853     -351.79927      0              4089.3668      46.288325      20.047001      20.857         19354.088      4607.9292      4587.9443      3072.2269     -1100.5848      3034.9442      278.48085    
  19066500   270.07256     -351.54988     -272.40978     -351.5616       0              5012.0888      46.301721      20.047001      20.857         19359.689      7349.8563      4001.0414      3685.3686     -981.98965     -626.79154     -99.503986    
  19067000   269.38886     -346.08899     -267.14923     -346.09586      0              3979.5004      46.466687      20.047001      20.857         19428.665      2461.329       4097.3353      5379.8368     -845.54898      890.34119      1572.7634    
  19067500   266.01045     -349.7631      -271.81332     -349.76705      0              3249.8319      46.330006      20.047001      20.857         19371.516      2443.7442      3371.3135      3934.4379     -462.75724     -315.11402     -447.04799    
  19068000   271.83563     -352.23856     -272.58182     -352.22895      0              4040.7617      46.171926      20.047001      20.857         19305.419      5595.9725      3376.6841      3149.6286     -215.90871      1048.3316     -1354.6164    
  19068500   263.3752      -347.19364     -270.01608     -347.20351      0              4198.4406      46.254987      20.047001      20.857         19340.149      5695.4408      3183.9823      3715.8988      29.339154     -774.64726      3561.1015    
  19069000   267.83671     -349.85621     -271.37128     -349.86847      0              5251.2198      46.454249      20.047001      20.857         19423.464      7202.7117      4287.2228      4263.7248     -1993.9618      254.10893      345.98421    
  19069500   269.80375     -351.10198     -272.04064     -351.10889      0              5482.972       46.652965      20.047001      20.857         19506.552      6494.2601      5057.357       4897.2989     -807.06597     -3680.7075      265.34897    
  19070000   272.66179     -351.05348     -271.15465     -351.07165      0              4347.4771      46.598472      20.047001      20.857         19483.767      6540.1382      3731.6867      2770.6065     -1313.1731      352.06659     -1655.116     
  19070500   263.39856     -349.03192     -271.84752     -349.05491      0              3688.1627      46.508765      20.047001      20.857         19446.259      2721.4223      5750.2295      2592.8364      1264.2225      1181.3933     -1110.0312    
  19071000   267.15799     -351.57885     -273.29281     -351.61163      0              5535.8582      46.251204      20.047001      20.857         19338.567      4159.6326      7647.3684      4800.5736     -1664.2466      185.87015      597.62735    
  19071500   257.04185     -353.78117     -278.4595      -353.79915      0              5732.1096      45.984777      20.047001      20.857         19227.169      7858.7721      4837.2855      4500.2711      722.11978      908.9232       557.42179    
  19072000   255.37        -352.2531      -277.42133     -352.26078      0              4471.4829      46.152091      20.047001      20.857         19297.126      6357.2049      2948.1626      4109.0812     -559.70445      1912.9016     -1102.3418    
  19072500   259.20437     -350.45097     -274.4956      -350.47937      0              4809.5482      46.541359      20.047001      20.857         19459.887      5511.471       5932.3741      2984.7994      742.36163      267.52068     -1763.7928    
  19073000   274.06543     -349.91658     -269.60644     -349.93955      0              6073.2161      46.40511       20.047001      20.857         19402.919      5976.9171      5932.9873      6309.7438     -844.90823     -1107.5708      1330.4854    
  19073500   258.94833     -350.37012     -274.48978     -350.37563      0              2488.4979      46.248999      20.047001      20.857         19337.645      1455.7496      3055.9703      2953.7736     -872.50971      1106.9355      269.24176    
  19074000   257.36925     -351.59162     -276.174       -351.62578      0              3402.6157      46.36964       20.047001      20.857         19388.088      3721.7532      2792.2584      3693.8356      786.24101     -40.660125      108.04535    
  19074500   259.57047     -349.39251     -273.32986     -349.40584      0              4739.8695      46.629621      20.047001      20.857         19496.791      5305.8812      3185.4845      5728.2428      712.56656      2228.5577     -47.910873    
  19075000   263.24646     -349.52491     -272.38507     -349.51326      0              2754.5257      46.523982      20.047001      20.857         19452.621      396.1397       4602.181       3265.2565      566.9908      -1251.7818     -709.37061    
  19075500   267.20266     -352.92662     -274.62749     -352.90994      0              5378.154       46.325458      20.047001      20.857         19369.615      6457.019       7532.9537      2144.4893     -1461.4187     -402.84192     -289.2306     
  19076000   261.36885     -352.0194      -275.42977     -352.02083      0              5490.151       46.583127      20.047001      20.857         19477.351      6191.5548      6301.7736      3977.1245     -203.2341       1406.1508     -1209.1694    
  19076500   264.77854     -352.1951      -274.60632     -352.22673      0              3857.862       46.542416      20.047001      20.857         19460.329      3339.2448      2860.9416      5373.3995     -1520.084       1182.6256      824.22521    
  19077000   264.51613     -352.74005     -275.22816     -352.75045      0              5218.7566      46.158504      20.047001      20.857         19299.807      6628.4316      5122.5258      3905.3123      1115.3151     -1273.3418     -1666.0628    
  19077500   268.66338     -348.68525     -269.95809     -348.69801      0              7528.2731      46.4379        20.047001      20.857         19416.629      10886.919      6306.8842      5391.0163     -392.9938       1081.8285      316.86043    
  19078000   269.65099     -351.52445     -272.50788     -351.54658      0              2692.4961      46.737792      20.047001      20.857         19542.02       5896.6248      924.33411      1256.5295     -1054.936      -917.90353     -53.976261    
  19078500   267.91612     -351.83754     -273.32935     -351.82976      0              2808.5854      46.499794      20.047001      20.857         19442.508      3630.8362      3616.8894      1178.0307     -419.3672      -689.98696      170.95411    
  19079000   269.67683     -348.0108      -268.98666     -348.00981      0              4128.224       46.269042      20.047001      20.857         19346.026      5023.8014      6125.7833      1235.0873      131.57105      626.66103     -1844.2489    
  19079500   264.04273     -352.36007     -274.9869      -352.3589       0              4199.1135      46.440243      20.047001      20.857         19417.608      4844.484       2082.6563      5670.2003     -981.01317      627.46711     -658.90754    
  19080000   259.35529     -351.20321     -275.20362     -351.22         0              3820.6106      46.347073      20.047001      20.857         19378.652      3447.403       4927.2689      3087.1598     -1333.3678      713.8661       697.15649    
  19080500   262.89427     -348.54493     -271.5083      -348.55358      0              4762.7612      46.169521      20.047001      20.857         19304.414      5788.181       5779.6447      2720.458      -395.47485      1924.3795      393.11416    
  19081000   268.15164     -352.07589     -273.49868     -352.05981      0              2958.841       46.270587      20.047001      20.857         19346.672      2229.2324      3925.9838      2721.3068      598.52306     -1667.8826     -567.61404    
  19081500   257.36773     -351.74379     -276.32661     -351.78974      0              3726.7803      46.341013      20.047001      20.857         19376.118      3481.2264      4905.6101      2793.5045     -1198.0948      979.983       -722.0056     
  19082000   261.25896     -351.83335     -275.27591     -351.868        0              4047.6081      46.341062      20.047001      20.857         19376.139      4163.7071      4291.1651      3687.9522     -473.92205     -1365.7071      594.99442    
  19082500   261.96743     -351.34075     -274.57571     -351.36233      0              5707.5292      46.311729      20.047001      20.857         19363.874      4500.981       6125.6563      6495.9503     -1255.065       1847.9683      465.14286    
  19083000   276.28271     -353.69775     -272.73787     -353.7258       0              5223.8188      46.23634       20.047001      20.857         19332.352      4188.2085      5486.2577      5996.9902      1354.5263     -198.99509     -137.99202    
  19083500   265.78992     -351.34942     -273.46427     -351.36226      0              6126.8036      46.163372      20.047001      20.857         19301.843      8044.0509      5936.0401      4400.3199     -768.21755     -1568.1231      817.07937    
  19084000   261.85905     -355.20307     -278.46979     -355.22219      0              2002.3792      46.399567      20.047001      20.857         19400.601      2651.6336      1279.6382      2075.8658     -17.13891       2012.2372     -343.95913    
  19084500   260.28386     -354.86771     -278.59601     -354.88013      0              3662.2313      46.255061      20.047001      20.857         19340.18       4988.2356      4558.583       1439.8752     -291.36946     -883.40014     -786.43571    
  19085000   250.94497     -351.96543     -278.43034     -351.95637      0              4352.5406      45.995015      20.047001      20.857         19231.45       4448.103       4972.1526      3637.3664     -585.99098      813.89544     -1153.984     
  19085500   266.48413     -351.91708     -273.8285      -351.92475      0              6375.2406      46.147543      20.047001      20.857         19295.224      6788.7376      6793.0445      5543.9397      827.00579     -402.72792      144.01227    
  19086000   257.80384     -350.79406     -275.24909     -350.8046       0              5645.7934      46.479558      20.047001      20.857         19434.047      6602.9891      4352.6614      5981.7297     -1003.4431      342.74654     -2300.4368    
  19086500   257.20686     -351.59594     -276.2259      -351.60423      0              3130.0448      46.500917      20.047001      20.857         19442.977      2850.4066      4041.1261      2498.6017     -1092.2896     -339.48245      1691.5728    
  19087000   266.53628     -351.24399     -273.14013     -351.25653      0              4170.3813      46.202247      20.047001      20.857         19318.097      5332.1151      5063.1476      2115.8812      160.10682      2442.0417     -859.47915    
  19087500   268.15192     -351.28441     -272.70712     -351.27003      0              4945.8212      46.265923      20.047001      20.857         19344.721      5330.5749      6339.428       3167.4606     -583.44822      2401.8559     -920.85492    
  19088000   263.80237     -350.42263     -273.11989     -350.43081      0              4366.3487      46.337426      20.047001      20.857         19374.619      3830.7916      4360.7295      4907.5251      412.5774       692.04992      120.45085    
  19088500   260.47164     -351.6759      -275.34918     -351.67358      0              5734.216       46.183         20.047001      20.857         19310.05       8240.061       4923.1275      4039.4596     -1440.6669      2082.9381     -318.58776    
  19089000   268.96583     -353.39868     -274.58288     -353.37565      0              6348.8066      46.069827      20.047001      20.857         19262.73       6218.7972      4866.7098      7960.9128     -107.75272      522.83216     -1521.3935    
  19089500   268.0112      -354.25851     -275.72245     -354.2594       0              3314.6108      46.230155      20.047001      20.857         19329.766      4984.0554      2079.7469      2880.03       -1146.1737      521.60729      616.47625    
  19090000   264.44969     -352.87226     -275.37984     -352.88224      0              6540.2765      46.478705      20.047001      20.857         19433.69       7014.195       6995.3857      5611.2489     -1247.37       -2260.8974     -747.25228    
  19090500   263.86161     -351.83347     -274.51338     -351.82858      0              3898.1733      46.335018      20.047001      20.857         19373.612      3314.8745      3684.3805      4695.2648     -188.93113      480.29308      1362.9191    
  19091000   264.34821     -352.00997     -274.54729     -351.98192      0              4734.2625      46.046322      20.047001      20.857         19252.902      6642.3321      4194.6914      3365.7639     -842.40166     -819.54133      1217.4744    
  19091500   264.65204     -352.33799     -274.78627     -352.33988      0              2854.7858      46.107613      20.047001      20.857         19278.529      2261.3041      5458.6069      844.44639     -773.47292      1038.5363      369.87722    
  19092000   263.19353     -351.31668     -274.19235     -351.33154      0              3588.9137      46.411091      20.047001      20.857         19405.419      5435.3279      2597.5427      2733.8704     -683.30786      3641.3521      1007.6877    
  19092500   268.6886      -354.04035     -275.30579     -354.05401      0              4865.2384      46.561669      20.047001      20.857         19468.379      3900.9538      4810.8269      5883.9347     -1527.3358     -494.51511     -791.8654     
  19093000   261.84658     -352.45983     -275.73021     -352.45573      0              3668.8725      46.375559      20.047001      20.857         19390.563      5508.0589      1881.1357      3617.4228     -23.302775      1381.2153      179.30937    
  19093500   252.53005     -349.94382     -275.94425     -349.95183      0              4844.7183      46.046916      20.047001      20.857         19253.15       5868.4351      3785.6217      4880.0983     -1263.5671      127.359       -184.89064    
  19094000   265.42328     -349.78268     -272.00497     -349.78195      0              5252.0718      46.188245      20.047001      20.857         19312.243      7212.6376      3961.1006      4582.4774      1348.3045      1971.255       233.27872    
  19094500   270.87102     -350.10694     -270.73286     -350.10462      0              4231.3039      46.537838      20.047001      20.857         19458.415      4688.1341      4012.3633      3993.4143      1509.2966     -160.25667      438.96026    
  19095000   271.95475     -350.55216     -270.86051     -350.5617       0              5255.3407      46.648442      20.047001      20.857         19504.66       4323.8815      5591.1831      5850.9575      320.27114     -547.37849      2332.8309    
  19095500   269.54986     -351.07251     -272.08557     -351.03531      0              3041.8179      46.11177       20.047001      20.857         19280.267      3692.4753      3962.2023      1470.7761     -125.72293     -2118.4075     -1105.5028    
  19096000   261.05341     -349.78476     -273.28756     -349.76575      0              5616.5593      46.087205      20.047001      20.857         19269.996      7158.0446      4701.9778      4989.6554     -2024.1629     -1375.2983     -2713.9448    
  19096500   268.97753     -350.3203      -271.50108     -350.34352      0              5521.3589      46.396938      20.047001      20.857         19399.502      7194.3956      4961.7852      4407.8959      7.3562029      1420.0155     -1613.8399    
  19097000   269.90164     -350.90049     -271.81047     -350.90317      0              3800.3252      46.450372      20.047001      20.857         19421.843      3528.987       3737.9904      4133.998      -572.8073       112.64894     -100.41273    
  19097500   262.66378     -350.81198     -273.84289     -350.82072      0              4253.8893      46.332509      20.047001      20.857         19372.563      3267.884       3273.8774      6219.9065     -562.61182     -975.97549      869.2015     
  19098000   260.20653     -350.74754     -274.49851     -350.74223      0              5904.4618      46.22259       20.047001      20.857         19326.603      6914.9555      6162.885       4635.5449     -104.77697     -1816.5251      1297.202     
  19098500   265.83042     -352.72421     -274.82719     -352.72426      0              7502.492       46.334468      20.047001      20.857         19373.382      6644.199       7460.3783      8402.8987     -310.22565      232.64265      887.37863    
  19099000   266.07086     -351.15949     -273.19202     -351.15329      0              1803.8404      46.582964      20.047001      20.857         19477.283      1984.2564      3763.2211     -335.95641     -556.52456     -123.96664     -321.69329    
  19099500   259.04502     -349.38827     -273.47959     -349.38282      0              3631.4122      46.304881      20.047001      20.857         19361.011      5304.6947      1521.2326      4068.3094      397.7267       1793.4627      250.47898    
  19100000   262.21378     -348.93217     -272.09495     -348.94184      0              4054.2951      46.20494       20.047001      20.857         19319.223      4297.6774      5035.0139      2830.194      -1367.9045     -821.7422       1281.9777    
  19100500   273.92443     -349.10484     -268.83601     -349.11812      0              3797.9443      46.238659      20.047001      20.857         19333.322      2867.569       3721.1108      4805.1531     -556.1033      -23.866002     -455.63651    
  19101000   263.73777     -350.29373     -273.00992     -350.29997      0              5577.36        46.321759      20.047001      20.857         19368.068      5119.2349      7952.9888      3659.8565     -80.81793       878.6043       1413.7096    
  19101500   269.82266     -349.13784     -270.07096     -349.13699      0              3380.5672      46.301083      20.047001      20.857         19359.423      5259.5875     -86.206461      4968.3207      216.20529     -1345.6518     -1561.8561    
  19102000   265.66988     -349.24852     -271.39855     -349.25252      0              3750.3214      46.224694      20.047001      20.857         19327.483      4799.6416      3325.0285      3126.2942     -1036.3207     -2496.6635      563.74239    
  19102500   264.20251     -346.97171     -269.55172     -346.98069      0              6883.3573      46.15721       20.047001      20.857         19299.266      8929.5946      5073.7425      6646.7346      702.31311     -278.12065     -727.44046    
  19103000   272.81471     -350.01844     -270.0748      -350.01855      0              4230.862       46.317753      20.047001      20.857         19366.393      3902.9767      4107.4487      4682.1608     -181.66441     -461.37262     -2177.9977    
  19103500   272.27368     -348.7298      -268.94469     -348.7531       0              2601.7731      46.445525      20.047001      20.857         19419.817      2379.8565      1372.1056      4053.3573     -2421.9493      762.28108     -67.407706    
  19104000   268.25013     -348.67131     -270.06524     -348.70694      0              3207.7975      46.366483      20.047001      20.857         19386.768      1209.8223      4266.8941      4146.6762      606.52442      45.083436      1879.5406    
  19104500   268.06271     -349.33662     -270.78547     -349.33981      0              6187.7282      46.081481      20.047001      20.857         19267.603      7650.6222      5647.4247      5265.1378     -1225.8277      1449.8254     -980.08459    
  19105000   257.35135     -346.69389     -271.28152     -346.70403      0              5288.3932      46.223459      20.047001      20.857         19326.967      6224.4999      4846.0736      4794.6061     -2908.4153     -769.53172     -2066.6208    
  19105500   264.22733     -351.02518     -273.59792     -351.03732      0              3290.9429      46.50691       20.047001      20.857         19445.483      2002.1345      6001.9261      1868.7681      568.37269      14.674837      392.82685    
  19106000   273.58707     -351.5741      -271.40413     -351.60033      0              4022.6088      46.345667      20.047001      20.857         19378.064      2867.5568      6333.2391      2867.0305     -42.228727     -716.19185      944.26726    
  19106500   263.98575     -349.53535     -272.17888     -349.54369      0              4183.1434      46.285169      20.047001      20.857         19352.769      2887.5188      6012.2985      3649.613       526.95304      732.19511      1384.5762    
  19107000   256.60755     -348.91958     -273.72517     -348.9501       0              3977.7152      46.339732      20.047001      20.857         19375.583      5152.364       2663.2576      4117.5239     -293.26822      1284.9312      898.60263    
  19107500   261.25745     -350.13396     -273.57697     -350.16434      0              4393.6963      46.346553      20.047001      20.857         19378.434      4980.5346      4260.8588      3939.6955      699.12488     -563.65359     -1301.7484    
  19108000   268.72135     -351.35953     -272.61537     -351.34727      0              5250.8013      46.072545      20.047001      20.857         19263.866      5625.6795      5382.2375      4744.4869      1470.5646      14.362878     -307.90396    
  19108500   267.53249     -349.37738     -270.9816      -349.38486      0              3899.8704      46.021797      20.047001      20.857         19242.648      3696.1308      6252.2568      1751.2236     -1413.4989     -2434.3261      1810.2253    
  19109000   267.19396     -350.27628     -271.9797      -350.29571      0              4967.0044      46.2901        20.047001      20.857         19354.83       4005.8711      5861.1294      5034.0126     -443.43725      385.95622      1774.8208    
  19109500   263.21691     -347.65172     -270.52054     -347.69227      0              4138.0928      46.249507      20.047001      20.857         19337.858      5131.9817      4210.0338      3072.2628     -345.3171       599.89341      213.51834    
  19110000   268.10022     -348.5409      -269.97876     -348.54065      0              5576.3269      45.852891      20.047001      20.857         19172.024      4043.6561      7462.3854      5222.9391     -542.82933     -891.66839      1858.126     
  19110500   264.08741     -349.21478     -271.82852     -349.17001      0              7331.5836      45.845796      20.047001      20.857         19169.058      6955.5126      7619.9173      7419.3208     -764.84346     -1046.0295      1734.9577    
  19111000   258.64339     -350.94008     -275.1491      -350.93989      0              4460.3978      46.448079      20.047001      20.857         19420.885      4555.3265      3673.0339      5152.833       333.65434     -1559.3285      280.52462    
  19111500   260.28446     -349.07217     -272.8003      -349.08779      0              5158.091       46.602245      20.047001      20.857         19485.345      5846.9037      3981.0744      5646.2951      118.74711      809.72841     -505.09728    
  19112000   264.23861     -351.15133     -273.72076     -351.1733       0              4224.7173      46.372775      20.047001      20.857         19389.398      4927.3506      4823.6273      2923.1738     -166.6651       481.70418     -1280.7951    
  19112500   251.65361     -349.29777     -275.55502     -349.30827      0              4174.1781      45.956411      20.047001      20.857         19215.308      7204.9131      2579.9935      2737.6278      251.55747      432.32579      1764.4043    
  19113000   270.11412     -353.1616      -274.00931     -353.16677      0              5066.6108      46.009949      20.047001      20.857         19237.694      5626.4843      5263.2693      4310.0789      31.199865     -650.31984      2179.0113    
  19113500   262.08        -349.84915     -273.05112     -349.86295      0              4019.6524      46.188843      20.047001      20.857         19312.493      2449.7995      7267.1698      2341.9879     -945.71128     -257.27829     -366.05278    
  19114000   269.22171     -350.25247     -271.36169     -350.26155      0              4825.9468      46.166565      20.047001      20.857         19303.178      4002.5094      6200.0536      4275.2775      781.97953     -370.7207      -283.19262    
  19114500   268.8509      -350.74927     -271.96715     -350.78352      0              4852.9118      46.07625       20.047001      20.857         19265.415      4858.9407      5136.5534      4563.2415      567.42844      13.346849     -397.57187    
  19115000   260.30131     -349.27256     -272.99575     -349.28179      0              5022.6496      46.102747      20.047001      20.857         19276.494      5725.3691      5214.8072      4127.7726     -1045.8781      1025.0643     -623.16402    
  19115500   262.98407     -351.16605     -274.10311     -351.15948      0              6690.1214      46.327015      20.047001      20.857         19370.266      7284.9621      4701.294       8084.108      -831.9143      -21.866895      1828.1165    
  19116000   268.06447     -352.31979     -273.76812     -352.32626      0              1182.9031      46.663457      20.047001      20.857         19510.939     -268.03483      2226.7448      1589.9992      349.92654      250.58604     -1096.8553    
  19116500   264.4129      -349.73374     -272.2521      -349.75001      0              4045.7462      46.462769      20.047001      20.857         19427.027      3367.9641      3669.0167      5100.2577     -359.02308     -850.83087     -1261.5032    
  19117000   264.68393     -349.60503     -272.04397     -349.61535      0              4250.8293      46.059039      20.047001      20.857         19258.219      4668.4656      4256.4849      3827.5374      693.43666      1610.9447      383.53892    
  19117500   261.51796     -347.61976     -270.98643     -347.64498      0              4380.0608      46.096602      20.047001      20.857         19273.925      5266.7871      4418.4535      3454.9417      429.28166     -108.40081      326.3187     
  19118000   255.1846      -348.27571     -273.49827     -348.28283      0              5333.3351      46.210986      20.047001      20.857         19321.751      3515.9377      6850.2575      5633.81       -114.78279      229.84647     -2229.378     
  19118500   262.54176     -348.50461     -271.57127     -348.51127      0              2980.9495      46.280007      20.047001      20.857         19350.61       3717.1791      4621.5066      604.16289     -643.02889     -1271.6524     -348.70702    
  19119000   261.93819     -348.37439     -271.61793     -348.35375      0              6027.9915      46.199118      20.047001      20.857         19316.789      9260.6085      5384.4358      3438.9303      124.95932      176.95095     -531.98248    
  19119500   262.97972     -347.28529     -270.22362     -347.30738      0              1943.8717      46.177604      20.047001      20.857         19307.794      1184.1008      4694.9714     -47.457196     -743.8069       207.33133     -1402.7054    
  19120000   268.92127     -346.6188      -267.81606     -346.66243      0              4007.3366      46.02306       20.047001      20.857         19243.176      3736.1852      3975.892       4309.9326      656.56868     -547.64265      468.12587    
  19120500   261.0502      -347.63945     -271.1432      -347.63741      0              1320.7054      45.949271      20.047001      20.857         19212.323      131.73921      2702.2122      1128.1649     -309.7534       221.17014      150.94914    
  19121000   272.93896     -349.59787     -269.61782     -349.60634      0              6793.5731      45.934407      20.047001      20.857         19206.108      7723.8014      7884.1025      4772.8155     -1350.8668      15.090346      302.26156    
  19121500   261.8238      -350.67065     -273.9477      -350.67648      0              4226.2368      46.116314      20.047001      20.857         19282.167      3127.3194      3408.1217      6143.2693      1257.1135      325.40783      169.51681    
  19122000   267.24189     -349.82857     -271.51794     -349.83409      0              2571.7549      45.947577      20.047001      20.857         19211.615      4534.1182      2312.1984      868.94813      37.132946      20.157142      1194.8696    
  19122500   257.15734     -347.56983     -272.21431     -347.57242      0              5025.6245      45.923456      20.047001      20.857         19201.529      6899.9621      4801.9938      3374.9175     -453.71761     -280.33015     -2076.8501    
  19123000   259.65577     -348.86637     -272.77872     -348.90644      0              2472.7891      46.006598      20.047001      20.857         19236.293      2503.0019      2792.1369      2123.2284     -1534.2663     -1210.4311      238.05018    
  19123500   260.0224      -347.14963     -270.95455     -347.183        0              3639.2187      45.845673      20.047001      20.857         19169.007      3819.1553      6311.4329      787.06784      1349.936       1486.907       182.43944    
  19124000   262.47332     -348.03613     -271.12285     -348.05078      0              5004.4467      45.882316      20.047001      20.857         19184.328      4910.4247      5508.2688      4594.6468     -710.95772     -1048.4757      1017.6319    
  19124500   269.50145     -349.44014     -270.46739     -349.47548      0              5966.3727      46.17737       20.047001      20.857         19307.696      5398.2024      6973.9322      5526.9834      283.81045      560.82169     -675.53072    
  19125000   262.54037     -349.40043     -272.4675      -349.44677      0              5994.4626      45.941622      20.047001      20.857         19209.125      8484.6887      3773.1732      5725.5259     -140.28037      330.78344     -132.32362    
  19125500   268.35284     -349.23381     -270.59764     -349.23805      0              6295.2731      45.609341      20.047001      20.857         19070.191      5432.156       7153.5083      6300.1551     -552.33658     -727.93078     -61.364144    
  19126000   256.13481     -350.16724     -275.11135     -350.16064      0              4027.801       45.850165      20.047001      20.857         19170.885      4399.5905      3538.7712      4145.0413      152.39036     -632.43993      642.88034    
  19126500   262.41001     -351.77467     -274.87994     -351.79883      0              3606.1296      46.298422      20.047001      20.857         19358.31       3288.5309      2170.3352      5359.5228     -105.88933      610.976        149.06434    
  19127000   260.54488     -349.21484     -272.86666     -349.20301      0              4206.9317      46.126586      20.047001      20.857         19286.462      6117.4963      3900.16        2603.1386      1070.7952      96.376778      2339.304     
  19127500   266.21383     -348.14325     -270.13388     -348.13525      0              5342.9871      45.921784      20.047001      20.857         19200.83       7310.247       5434.0158      3284.6987      95.496609     -2326.049       840.80583    
  19128000   266.73142     -347.75881     -269.59777     -347.77555      0              2336.131       45.966977      20.047001      20.857         19219.726      1393.869       2906.8332      2707.6907      64.196367     -190.71218      832.37157    
  19128500   263.41886     -349.81459     -272.62423     -349.83218      0              4725.6462      45.931334      20.047001      20.857         19204.823      7533.9093      3539.701       3103.3284      507.57577     -367.80318     -46.541556    
  19129000   264.98903     -351.01639     -273.36593     -351.0437       0              4787.3366      45.861989      20.047001      20.857         19175.828      4036.83        4006.2115      6318.9684      1124.6295     -2437.5567      947.47981    
  19129500   269.71092     -349.42188     -270.38774     -349.42565      0              3051.4956      45.426398      20.047001      20.857         18993.699      1799.201       4008.6627      3346.6233     -451.08391     -1356.1748     -359.48221    
  19130000   263.82553     -352.63619     -275.32667     -352.65242      0              6501.8308      45.596938      20.047001      20.857         19065.005      7380.6692      6295.9038      5828.9194     -1693.2151     -508.31232      115.01346    
  19130500   266.72094     -352.60601     -274.44804     -352.63489      0              4184.2986      46.099348      20.047001      20.857         19275.073      3580.3469      4501.2029      4471.3459     -1586.6235      991.95177     -814.28092    
  19131000   262.26805     -349.44598     -272.59285     -349.46071      0              3668.963       46.120028      20.047001      20.857         19283.72       2790.4467      4846.5431      3369.8992     -156.60887      2042.5434      698.73581    
  19131500   259.28924     -348.2233      -272.24306     -348.26369      0              5094.5072      46.044605      20.047001      20.857         19252.184      5868.9462      6112.7429      3301.8324     -413.25434     -187.79531      1401.2801    
  19132000   264.56788     -350.013       -272.48595     -350.0359       0              4785.7052      46.323094      20.047001      20.857         19368.626      5290.0591      4367.2701      4699.7863      430.8205       407.98649      949.36729    
  19132500   273.50821     -349.99878     -269.85192     -350.01245      0              2242.9276      46.283453      20.047001      20.857         19352.051      1441.8905      2521.3424      2765.55       -569.33329     -477.57858      925.92877    
  19133000   271.48751     -350.36769     -270.81295     -350.39859      0              5059.0029      45.947683      20.047001      20.857         19211.659      5146.3284      4012.3497      6018.3305     -417.64765     -247.47349      904.72263    
  19133500   264.77138     -350.53832     -272.95164     -350.55884      0              5683.9119      45.876942      20.047001      20.857         19182.081      6412.0344      5923.2052      4716.4961      768.00768     -62.600749     -256.15533    
  19134000   257.85636     -353.29596     -277.73561     -353.30939      0              3226.9494      46.015604      20.047001      20.857         19240.058      5286.8991      2037.4504      2356.4987     -2388.4065     -1581.1966      1243.9434    
  19134500   261.98381     -349.8657      -273.09587     -349.88551      0              4488.639       46.179592      20.047001      20.857         19308.625      1503.6928      6596.631       5365.5932      731.88513     -300.47984     -2507.1157    
  19135000   265.65918     -349.14713     -271.30029     -349.17195      0              4012.1883      46.160231      20.047001      20.857         19300.53       3765.8291      4147.8955      4122.8401     -981.17569     -1388.0143      3249.7726    
  19135500   270.11346     -349.29578     -270.14369     -349.32517      0              4871.7648      46.006749      20.047001      20.857         19236.356      4479.6045      4420.0335      5715.6565      1137.0868      317.68647     -1279.6048    
  19136000   265.51602     -350.96389     -273.159       -350.97692      0              4672.738       45.998904      20.047001      20.857         19233.075      5379.0429      3335.8124      5303.3585      23.956095     -349.17559      1737.9862    
  19136500   263.56011     -351.19542     -273.96367     -351.22388      0              3631.979       46.191855      20.047001      20.857         19313.752      3438.1315      3892.1211      3565.6842     -503.62168     -1829.1287     -194.37656    
  19137000   270.23975     -352.809       -273.6199      -352.83011      0              6808.2191      45.97723       20.047001      20.857         19224.013      4947.4012      9499.7542      5977.5019     -694.14855     -714.37194     -1419.0565    
  19137500   261.81557     -348.51836     -271.79782     -348.53094      0              4347.554       45.954758      20.047001      20.857         19214.617      3770.1338      5036.1189      4236.4093      322.96896      913.72374     -1049.927     
  19138000   259.73863     -348.24487     -272.13295     -348.2851       0              5661.9754      46.030314      20.047001      20.857         19246.209      8725.1702      3701.1552      4559.6008     -226.72983     -1209.2215      1235.0405    
  19138500   266.30427     -349.44931     -271.41344     -349.45594      0              4670.9001      46.057793      20.047001      20.857         19257.698      4631.5787      6984.2184      2396.9031     -674.16877      15.424808      352.07963    
  19139000   264.57062     -349.34134     -271.81348     -349.37036      0              3252.6595      46.092538      20.047001      20.857         19272.226      2513.5797      3678.9248      3565.4739      206.60472     -1751.9077      2039.0748    
  19139500   269.88507     -350.41777     -271.33261     -350.44103      0              5030.6553      45.893995      20.047001      20.857         19189.211      4935.3006      3483.2366      6673.4289     -952.4983       38.702981     -1024.5048    
  19140000   259.3462      -348.2877      -272.29077     -348.30674      0              5379.4816      46.112015      20.047001      20.857         19280.37       5937.5318      2931.416       7269.497       631.65752      444.67385     -90.335205    
  19140500   263.71328     -349.66475     -272.38812     -349.69197      0              566.30709      46.623611      20.047001      20.857         19494.278     -1232.0651      3299.0551     -368.06875     -577.12358      844.69928      1938.1725    
  19141000   263.88492     -350.04535     -272.71843     -350.06279      0              3981.9278      46.248589      20.047001      20.857         19337.474      6002.0999      3557.0949      2386.5887      687.5771      -161.09793      1374.7915    
[...]
  22697500   267.98717     -352.54047     -274.01146     -352.55666      0              6252.5177      46.355088      20.047001      20.857         19382.003      7181.3751      4841.5413      6734.6368     -174.19918     -176.35072      758.41216    
  22698000   266.11255     -352.16207     -274.18238     -352.19637      0              3630.8027      46.393825      20.047001      20.857         19398.2        3800.8796      2250.789       4840.7397     -34.868374     -1200.8487      1331.3282    
  22698500   264.99009     -350.00434     -272.35357     -350.03382      0              4126.6214      46.221506      20.047001      20.857         19326.15       6708.0832      1795.5875      3876.1935      1388.7675     -1070.0606     -1643.0068    
  22699000   267.06669     -350.29418     -272.03489     -350.31243      0              4872.2532      46.209884      20.047001      20.857         19321.29       3603.8141      6456.3473      4556.5982      1139.4447      396.05432      1343.3475    
  22699500   253.49971     -349.78033     -275.49661     -349.81425      0              4115.336       46.438236      20.047001      20.857         19416.769      4793.0409      4452.2749      3100.6922     -752.3325      -1658.8744      411.13343    
  22700000   269.11281     -351.14745     -272.28858     -351.17853      0              4753.4435      46.361215      20.047001      20.857         19384.565      4856.5267      5175.2426      4228.5613      1081.522      -2986.0789      105.50184    
  22700500   259.61966     -349.39909     -273.32203     -349.41124      0              5946.6931      46.275007      20.047001      20.857         19348.52       6966.6862      3781.3693      7092.0237     -476.84188      1447.6255      1585.8778    
  22701000   260.08808     -352.19982     -275.98549     -352.20156      0              5039.806       46.22537       20.047001      20.857         19327.766      4451.9126      5147.6336      5519.8718      908.62101     -1081.4921      543.87435    
  22701500   257.64617     -348.51429     -273.01552     -348.52371      0              4778.9231      46.353004      20.047001      20.857         19381.132      5101.1873      4146.8339      5088.748      -98.054676     -2181.4369      52.026342    
  22702000   267.34106     -350.83306     -272.49337     -350.8347       0              5218.925       46.259351      20.047001      20.857         19341.974      5822.7847      4025.4441      5808.5462     -781.05825      278.04911     -295.03198    
  22702500   262.98008     -350.74002     -273.67824     -350.74955      0              3642.4194      46.083006      20.047001      20.857         19268.24       4968.4804      4014.4272      1944.3504      387.41159      1090.4983     -587.69319    
  22703000   264.83213     -350.89371     -273.28922     -350.90167      0              2656.9252      46.259702      20.047001      20.857         19342.12       5130.5121     -77.989045      2918.2524     -805.41962     -2120.458       265.30141    
  22703500   275.82009     -350.41915     -269.59483     -350.42353      0              6398.5267      46.249233      20.047001      20.857         19337.743      9977.3582      4669.5872      4548.6348      1284.127      -516.15576      1255.5245    
  22704000   271.5641      -349.38588     -269.80871     -349.3876       0              3584.1154      46.197062      20.047001      20.857         19315.929      3545.8051      2262.9615      4943.5797     -875.79646     -1633.2835      324.89714    
  22704500   261.69616     -350.33109     -273.64555     -350.3316       0              3069.491       46.282638      20.047001      20.857         19351.71       4026.6211      2398.2278      2783.6242      141.9511      -1389.7825      645.74524    
  22705000   263.65643     -347.70877     -270.4488      -347.70679      0              6132.3349      46.405868      20.047001      20.857         19403.235      7012.6181      6512.7716      4871.615      -281.00959      1146.6534      38.259132    
  22705500   265.03738     -347.87527     -270.21064     -347.88692      0              2742.5343      46.206168      20.047001      20.857         19319.737      4102.8257      1067.0071      3057.7702     -353.94109     -806.50828     -220.05791    
  22706000   259.98069     -352.43509     -276.25223     -352.44678      0              4848.7049      45.958203      20.047001      20.857         19216.058      5474.5443      5658.4895      3413.0808      1070.9154     -277.60771      710.56565    
  22706500   261.01717     -349.94807     -273.4615      -349.93662      0              6005.3717      45.774327      20.047001      20.857         19139.175      7396.5455      5950.5208      4669.0488      1283.3152     -346.13922      1106.4284    
  22707000   269.97534     -351.38348     -272.27186     -351.37243      0              5753.514       46.125075      20.047001      20.857         19285.83       6757.2367      4553.8369      5949.4684      454.75087     -997.08845      1799.0529    
  22707500   263.34057     -352.15637     -274.98896     -352.17975      0              5327.3771      46.522579      20.047001      20.857         19452.034      4028.7141      5789.8655      6163.5517     -2.9065637     -135.58764      211.50057    
  22708000   263.95396     -350.21179     -272.86464     -350.23777      0              4201.9603      46.222462      20.047001      20.857         19326.55       4010.3561      5386.8481      3208.6768     -377.15427      121.45904     -458.97324    
  22708500   270.64479     -349.73259     -270.42481     -349.73748      0              3635.5637      46.165669      20.047001      20.857         19302.803      4317.9224      2688.1006      3900.6682      341.16517     -586.42885      928.70994    
  22709000   273.8334      -349.89529     -269.65313     -349.90738      0              4887.653       46.351903      20.047001      20.857         19380.672      6779.1247      3636.6991      4247.1353      315.66793     -240.03603     -2064.0292    
  22709500   265.45373     -352.41242     -274.62578     -352.42757      0              4324.5141      46.338734      20.047001      20.857         19375.165      5969.6166      3477.0563      3526.8694      819.95157     -1203.8754     -590.78892    
  22710000   268.04175     -349.40219     -270.85718     -349.41438      0              5022.0444      46.167527      20.047001      20.857         19303.58       5992.8689      5682.2517      3391.0126     -847.31717     -1698.2925      112.77583    
  22710500   259.4059      -348.0951      -272.08067     -348.09203      0              5731.3766      45.92254       20.047001      20.857         19201.146      7086.4987      6013.2612      4094.37        288.27166      441.07287      1138.2778    
  22711000   262.17024     -347.69062     -270.86615     -347.70993      0              6233.1273      46.108712      20.047001      20.857         19278.989      6260.7694      7989.6399      4448.9727     -1243.0772      418.40355      138.78587    
  22711500   266.0434      -347.79899     -269.83956     -347.84288      0              6267.2701      46.437375      20.047001      20.857         19416.409      7769.7781      5137.0262      5895.0059      121.05332     -172.23106     -356.58198    
  22712000   262.98521     -350.03964     -272.97636     -350.04323      0              6168.421       46.347045      20.047001      20.857         19378.64       5523.2648      8306.343       4675.6553     -433.76696     -597.49242     -518.48916    
  22712500   266.65453     -348.4431      -270.30459     -348.47969      0              5299.4264      46.150462      20.047001      20.857         19296.445      5376.6781      4948.8898      5572.7114     -21.632703     -1995.7641     -1758.5537    
  22713000   262.89097     -345.34845     -268.31279     -345.37913      0              4586.652       46.024188      20.047001      20.857         19243.647      5141.0251      3971.5439      4647.3871      382.49495     -2002.6067      3308.6159    
  22713500   269.13217     -347.21987     -268.35533     -347.22798      0              7087.3914      46.09702       20.047001      20.857         19274.1        7773.268       6944.6687      6544.2376      881.02092      254.39596     -1504.0768    
  22714000   260.7365      -345.3947      -268.99036     -345.4308       0              3990.7909      46.182762      20.047001      20.857         19309.95       716.34995      5166.1573      6089.8655     -785.20098      899.37657      1161.7653    
  22714500   269.49621     -348.32369     -269.35247     -348.34843      0              5834.8505      45.90841       20.047001      20.857         19195.238      6286.6372      4994.8346      6223.0797     -645.53041     -1045.4175     -443.60499    
  22715000   264.52287     -351.80518     -274.29132     -351.78545      0              2043.201       46.209641      20.047001      20.857         19321.189      1476.3355      3234.3976      1418.87       -135.0987       139.37377     -149.40534    
  22715500   253.57153     -350.96954     -276.66478     -350.98131      0              5614.1282      46.270619      20.047001      20.857         19346.685      5406.4214      5599.5935      5836.3695     -2106.408       104.26369     -477.38565    
  22716000   264.58738     -349.10206     -271.56929     -349.11085      0              5449.6597      45.762577      20.047001      20.857         19134.262      6275.8688      5224.3484      4848.7618      830.29038     -238.32025      784.12395    
  22716500   255.37118     -352.11903     -277.28691     -352.1133       0              6159.3251      45.861594      20.047001      20.857         19175.663      8085.323       5387.1711      5005.4813     -834.19927      811.48002      1964.055     
  22717000   259.9068      -352.40855     -276.24734     -352.40659      0              4637.9349      46.364112      20.047001      20.857         19385.777      4343.3306      5181.8015      4388.6727     -82.776564     -1024.6298      60.624035    
  22717500   272.37449     -352.48091     -272.66626     -352.49214      0              5124.6624      46.145671      20.047001      20.857         19294.442      5853.5594      4068.2166      5452.2111      311.33554      1007.5227      1504.1278    
  22718000   267.19923     -349.2892      -270.99107     -349.28236      0              5194.909       45.882483      20.047001      20.857         19184.397      6218.7746      5497.12        3868.8323      1935.4031     -109.51895      131.78104    
  22718500   267.85041     -349.45483     -270.96589     -349.4567       0              5669.2177      46.254134      20.047001      20.857         19339.793      5005.4857      6756.8191      5245.3483      597.75627     -294.21493     -273.00826    
  22719000   271.53568     -351.41206     -271.84321     -351.42555      0              5362.2649      46.590062      20.047001      20.857         19480.251      4525.5758      5319.9981      6241.2208     -715.19559     -238.28125      773.26258    
  22719500   270.34169     -352.78697     -273.56801     -352.79171      0              4725.5743      46.318207      20.047001      20.857         19366.582      6056.8807      4058.5344      4061.3078     -334.85246      1097.7076      796.64853    
  22720000   264.54613     -351.92991     -274.40923     -351.93729      0              6428.6141      46.211137      20.047001      20.857         19321.815      6467.2551      8707.2903      4111.2969     -749.04904     -206.33901      80.502496    
  22720500   268.05983     -350.94262     -272.39231     -350.94774      0              3564.3305      46.314211      20.047001      20.857         19364.912      4278.2655      1989.1021      4425.6239      270.55766      1016.1049     -528.87633    
  22721000   262.5862      -349.95109     -273.00473     -349.94392      0              4236.472       46.45496       20.047001      20.857         19423.762      3091.6786      4769.4666      4848.2707     -879.20867     -28.403067      895.66351    
  22721500   271.01586     -352.08613     -272.66961     -352.0502       0              6672.8292      45.860843      20.047001      20.857         19175.349      8263.4207      6349.4263      5405.6407     -1265.0092      794.33044      701.18124    
  22722000   263.52884     -349.80057     -272.57799     -349.79557      0              3679.3033      45.729462      20.047001      20.857         19120.416      3925.5824      2337.0308      4775.2969     -48.754058     -861.30687     -584.86806    
  22722500   260.92396     -350.01451     -273.55524     -350.02109      0              6371.9188      46.130211      20.047001      20.857         19287.978      7695.0286      6506.5341      4914.1938     -304.92911      1234.7542      1110.293     
  22723000   259.26855     -350.80897     -274.83479     -350.80881      0              4333.5772      46.495619      20.047001      20.857         19440.762      4933.2908      3759.7112      4307.7296      2312.7133      646.26111     -325.75835    
  22723500   259.71484     -350.23178     -274.12682     -350.25055      0              3296.7125      46.426111      20.047001      20.857         19411.699      2772.4712      3350.6086      3767.0577     -20.695343      1776.8337      708.63744    
  22724000   275.18979     -348.61689     -267.97727     -348.64922      0              3989.8846      46.23035       20.047001      20.857         19329.848      3412.7065      4208.9973      4347.9499     -388.99253     -1342.4183     -690.41096    
  22724500   269.72473     -348.5423      -269.50412     -348.54885      0              3399.1798      46.285686      20.047001      20.857         19352.985      3961.6841      4127.017       2108.8384     -1124.4372      1055.8407      798.55602    
  22725000   266.89596     -350.09754     -271.88828     -350.10434      0              2658.7514      46.186732      20.047001      20.857         19311.61       2091.2164      2507.662       3377.3759      908.3397       839.16956     -1282.7707    
  22725500   266.33478     -350.99122     -272.94641     -350.97825      0              4535.646       45.98862       20.047001      20.857         19228.775      5976.7327      3914.8546      3715.3507     -1021.9172      570.98139     -983.19276    
  22726000   262.6766      -352.22119     -275.24834     -352.20547      0              3429.4752      46.031171      20.047001      20.857         19246.567      5133.3239      3280.3843      1874.7174     -99.698853     -640.49869      337.11476    
  22726500   262.97026     -348.91995     -271.86106     -348.94709      0              5264.7761      46.156888      20.047001      20.857         19299.132      6183.9202      5077.8537      4532.5543      631.22088      1674.4419      470.48151    
  22727000   259.4423      -348.50692     -272.48183     -348.54484      0              3238.9213      46.278857      20.047001      20.857         19350.129      2545.9288      3356.6778      3814.1572      248.33875      584.24229      824.7761     
  22727500   265.55354     -350.18858     -272.37269     -350.21309      0              5609.4441      46.248976      20.047001      20.857         19337.636      5972.952       7794.5195      3060.8606     -136.58189     -197.74884     -136.28344    
  22728000   260.5673      -348.68911     -272.33436     -348.74333      0              3640.5445      46.283053      20.047001      20.857         19351.884      5840.4517      2000.092       3081.0897      375.92972      281.28146      2268.4853    
  22728500   256.89086     -349.65446     -274.37702     -349.68516      0              5935.3897      46.233848      20.047001      20.857         19331.31       6840.5356      4611.47        6354.1634      1036.942      -373.4889      -0.47554431   
  22729000   264.42504     -351.07827     -273.59308     -351.09789      0              4948.2201      45.915495      20.047001      20.857         19198.201      6827.9223      2826.2001      5190.5379      219.40069      89.887138      61.171212    
  22729500   268.02972     -350.86744     -272.32596     -350.86743      0              5115.9345      45.870178      20.047001      20.857         19179.252      8237.084       2962.2723      4148.4473     -923.02803     -675.24295      940.98976    
  22730000   266.77824     -352.04112     -273.86636     -352.06379      0              1866.9972      46.302365      20.047001      20.857         19359.959      1937.751       2235.278       1427.9627      525.03889     -769.56239      366.24716    
  22730500   261.89746     -352.44542     -275.70088     -352.48252      0              4381.0003      46.454205      20.047001      20.857         19423.446      4537.0386      6582.7508      2023.2115      938.55079      1686.3375      1102.3853    
  22731000   262.76788     -353.16791     -276.16832     -353.19339      0              3743.5499      46.283812      20.047001      20.857         19352.202      6512.988       2474.945       2242.7169      284.00794      1582.77       -895.49403    
  22731500   259.86915     -351.00251     -274.85234     -351.02339      0              4625.7098      46.23356       20.047001      20.857         19331.19       3766.0145      4702.1575      5408.9575     -1460.1399     -588.52965     -1265.8784    
  22732000   255.33975     -351.99828     -277.17537     -352.00841      0              5171.6042      46.361177      20.047001      20.857         19384.549      5479.9537      7660.3017      2374.5573     -3292.5223      2736.6861     -959.26125    
  22732500   258.47348     -350.95618     -275.21499     -350.96369      0              5140.6503      46.394646      20.047001      20.857         19398.543      3737.2023      6940.1914      4744.5571     -738.72775     -377.24577     -642.92824    
  22733000   268.94444     -350.37609     -271.56656     -350.3967       0              3386.5373      46.2404        20.047001      20.857         19334.05       3625.8763      2575.1957      3958.5397      1475.7126      1905.5942      463.9464     
WARNING: Wall time limit reached (../timer.cpp:193)
Loop time of 85799.5 on 4 procs for 3738000 steps with 2268 atoms

Performance: 1.882 ns/day, 12.752 hours/ns, 43.567 timesteps/s
948.2% CPU use with 4 MPI tasks x no OpenMP threads

MPI task timing breakdown:
Section |  min time  |  avg time  |  max time  |%varavg| %total
---------------------------------------------------------------
Pair    | 47039      | 47229      | 47534      |  89.0 | 55.05
Bond    | 0.48201    | 0.49147    | 0.51286    |   1.8 |  0.00
Neigh   | 1231.9     | 1245.8     | 1259.6     |  34.5 |  1.45
Comm    | 4740.7     | 4988       | 5117.5     | 213.9 |  5.81
Output  | 3151.9     | 3151.9     | 3152       |   0.1 |  3.67
Modify  | 29126      | 29173      | 29224      |  26.5 | 34.00
Other   |            | 10.87      |            |       |  0.01

Nlocal:            567 ave         578 max         554 min
Histogram: 1 0 0 1 0 0 0 0 1 1
Nghost:        3708.75 ave        3769 max        3658 min
Histogram: 1 0 1 0 0 0 1 0 0 1
Neighs:              0 ave           0 max           0 min
Histogram: 4 0 0 0 0 0 0 0 0 0
FullNghs:       142607 ave      145543 max      138728 min
Histogram: 1 0 0 0 1 0 0 0 1 1

Total # of neighbors = 570428
Ave neighs/atom = 251.51146
Ave special neighs/atom = 0
Neighbor list builds = 373800
Dangerous builds not checked

unfix		4
unfix		3
unfix		1

write_data	data.final.${pid}
write_data	data.final.0
System init for write_data ...
Generated 0 of 1 mixed pair_coeff terms from geometric mixing rule
write_restart	restart.lmp.${pid}
write_restart	restart.lmp.0
System init for write_restart ...
Generated 0 of 1 mixed pair_coeff terms from geometric mixing rule
Total wall time: 23:50:17
