LAMMPS (23 Jun 2022)
echo both

include		in.partitions
variable        pid world 0
include		in.temp
variable	temperature equal 265.0
variable        tempDamp equal 0.100 # this is 0.1 ps
include		in.pressure
variable        pressure equal 5066.25
variable        pressureDamp equal 1.0 #this is 1ps
include		in.seed
variable        seed world 745823

units           metal
atom_style	full
read_restart	restart.lmp.${pid}
read_restart	restart.lmp.0
Reading restart file ...
  restart file = 23 Jun 2022, LAMMPS = 23 Jun 2022
  restoring atom style full from restart
  orthogonal box = (0.60514945 0 0) to (46.84555 20.047001 20.857)
  4 by 1 by 1 MPI processor grid
Summary of lammps deepmd module ...
  >>> Info of deepmd-kit:
  installed to:       /u/sigbjobo/software/DEEPMD_FROM_SOURCE/deepmd-kit/install
  source:             v2.1.3
  source branch:       master
  source commit:      5a32c49
  source commit at:   2022-07-01 09:52:58 +0800
  surpport model ver.:1.1 
  build float prec:   double
  build with tf inc:  /u/sigbjobo/software/DEEPMD_FROM_SOURCE/tensorflow/install/include;/u/sigbjobo/software/DEEPMD_FROM_SOURCE/tensorflow/install/include
  build with tf lib:  /u/sigbjobo/software/DEEPMD_FROM_SOURCE/tensorflow/install/lib/libtensorflow_cc.so;/u/sigbjobo/software/DEEPMD_FROM_SOURCE/tensorflow/install/lib/libtensorflow_framework.so
  set tf intra_op_parallelism_threads: 0
  set tf inter_op_parallelism_threads: 0
  >>> Info of lammps module:
  use deepmd-kit at:  /u/sigbjobo/software/DEEPMD_FROM_SOURCE/deepmd-kit/install
  source:             v2.1.3
  source branch:      master
  source commit:      5a32c49
  source commit at:   2022-07-01 09:52:58 +0800
  build float prec:   double
  build with tf inc:  /u/sigbjobo/software/DEEPMD_FROM_SOURCE/tensorflow/install/include;/u/sigbjobo/software/DEEPMD_FROM_SOURCE/tensorflow/install/include
  build with tf lib:  /u/sigbjobo/software/DEEPMD_FROM_SOURCE/tensorflow/install/lib/libtensorflow_cc.so;/u/sigbjobo/software/DEEPMD_FROM_SOURCE/tensorflow/install/lib/libtensorflow_framework.so
  restoring pair style deepmd from restart
  2268 atoms
Finding 1-2 1-3 1-4 neighbors ...
  special bond factors lj:    0        0        0       
  special bond factors coul:  0        0        0       
     0 = max # of 1-2 neighbors
     0 = max # of 1-3 neighbors
     0 = max # of 1-4 neighbors
     1 = max # of special neighbors
  special bonds CPU = 0.001 seconds
  read_restart CPU = 0.012 seconds
include 	in.setup
variable	out_freq equal 500
variable	out_freq2 equal 1000
variable	out_freq3 equal 5000

timestep        0.0005

neigh_modify    delay 7 every 1

include         in.deepmd
# This is deepMD model

# create groups ###
#group ox type 2
#group hy type 1

mass 2 15.999
mass 1 1.008

pair_style      deepmd ../graph.pb
pair_coeff      * *

bond_style      none
angle_style     none
dihedral_style  none
improper_style  none
neigh_modify exclude none


neighbor        2.0 bin
neigh_modify    every 10 delay 0 check no

thermo          ${out_freq}
thermo          500
thermo_style 	custom step temp pe etotal epair emol press lx ly lz vol pxx pyy pzz pxy pxz pyz
#thermo_modify	flush yes
restart 	${out_freq} restart.lmp.${pid} restart2.lmp.${pid}
restart 	500 restart.lmp.${pid} restart2.lmp.${pid}
restart 	500 restart.lmp.0 restart2.lmp.${pid}
restart 	500 restart.lmp.0 restart2.lmp.0

include		in.dump
dump            myDump all atom ${out_freq3} dump.water.${pid}
dump            myDump all atom 5000 dump.water.${pid}
dump            myDump all atom 5000 dump.water.0
dump            myDump2 all dcd ${out_freq2} dump.dcd.${pid}
dump            myDump2 all dcd 1000 dump.dcd.${pid}
dump            myDump2 all dcd 1000 dump.dcd.0
dump_modify     myDump append yes
dump_modify     myDump2 append yes


timer           timeout 23:50:00 every 1000
New timer settings: style=normal  mode=nosync  timeout=23:50:00

fix             1 all plumed plumedfile plumed.dat outfile plumed.out
fix             3 all nph x ${pressure} ${pressure} ${pressureDamp}
fix             3 all nph x 5066.25 ${pressure} ${pressureDamp}
fix             3 all nph x 5066.25 5066.25 ${pressureDamp}
fix             3 all nph x 5066.25 5066.25 1
fix             4 all temp/csvr ${temperature} ${temperature} ${tempDamp} ${seed}
fix             4 all temp/csvr 265 ${temperature} ${tempDamp} ${seed}
fix             4 all temp/csvr 265 265 ${tempDamp} ${seed}
fix             4 all temp/csvr 265 265 0.1 ${seed}
fix             4 all temp/csvr 265 265 0.1 745823

run             40000000 upto

CITE-CITE-CITE-CITE-CITE-CITE-CITE-CITE-CITE-CITE-CITE-CITE-CITE

Your simulation uses code contributions which should be cited:

- USER-DEEPMD package:

@article{Wang_ComputPhysCommun_2018_v228_p178,
  author = {Wang, Han and Zhang, Linfeng and Han, Jiequn and E, Weinan},
  doi = {10.1016/j.cpc.2018.03.016},
  url = {https://doi.org/10.1016/j.cpc.2018.03.016},
  year = 2018,
  month = {jul},
  publisher = {Elsevier {BV}},
  volume = 228,
  journal = {Comput. Phys. Commun.},
  title = {{DeePMD-kit: A deep learning package for many-body potential energy representation and molecular dynamics}},
  pages = {178--184}
}

CITE-CITE-CITE-CITE-CITE-CITE-CITE-CITE-CITE-CITE-CITE-CITE-CITE

Generated 0 of 1 mixed pair_coeff terms from geometric mixing rule
Neighbor list info ...
  update every 10 steps, delay 0 steps, check no
  max neighbors/atom: 2000, page size: 100000
  master list distance cutoff = 8
  ghost atom cutoff = 8
  binsize = 4, bins = 12 6 6
  1 neighbor lists, perpetual/occasional/extra = 1 0 0
  (1) pair deepmd, perpetual
      attributes: full, newton on
      pair build: full/bin
      stencil: full/bin/3d
      bin: standard
Per MPI rank memory allocation (min/avg/max) = 6.187 | 6.188 | 6.191 Mbytes
   Step          Temp          PotEng         TotEng         E_pair         E_mol          Press            Lx             Ly             Lz           Volume          Pxx            Pyy            Pzz            Pxy            Pxz            Pyz      
  22733000   268.94444     -350.3967      -271.58717     -350.3967       0              3387.3565      46.2404        20.047001      20.857         19334.05       3626.6874      2576.0016      3959.3804      1475.7024      1905.6234      463.9346     
  22733500   271.66114     -351.05164     -271.44603     -351.07196      0              4113.424       46.02788       20.047001      20.857         19245.191      3715.141       5474.2057      3150.9254     -695.0117      -1380.6506      434.93547    
  22734000   260.36469     -348.16281     -271.86743     -348.19183      0              4025.2882      46.050862      20.047001      20.857         19254.8        3687.8567      5690.9828      2697.0249     -1908.1606      847.68292     -107.60311    
  22734500   268.47974     -352.54275     -273.86939     -352.57195      0              5375.717       46.111206      20.047001      20.857         19280.031      5198.314       5417.7536      5511.0835     -253.71402     -1702.5934     -918.25313    
  22735000   273.83545     -351.39164     -271.14889     -351.39747      0              5317.3161      46.083532      20.047001      20.857         19268.46       5803.6608      5180.1179      4968.1696     -81.217108      1437.6062     -1071.4576    
  22735500   269.78193     -349.05042     -269.99548     -349.06328      0              6746.6388      46.055078      20.047001      20.857         19256.563      5359.4728      9789.1624      5091.2813     -241.71894     -382.54816     -667.58439    
  22736000   266.66583     -349.17142     -271.0296      -349.19974      0              4469.7332      46.134883      20.047001      20.857         19289.931      5947.3335      4521.421       2940.4451      408.29493      810.53463      1614.7439    
  22736500   262.56115     -351.25019     -274.31117     -351.26657      0              4062.146       46.208298      20.047001      20.857         19320.627      5932.2812      2670.23        3583.9269     -535.41745     -409.30433      326.23381    
  22737000   260.05699     -350.41719     -274.21197     -350.44683      0              6898.0653      45.988449      20.047001      20.857         19228.704      7472.1037      6245.4077      6976.6844      1071.5685     -20.300754     -1344.1897    
  22737500   264.14585     -351.57305     -274.16966     -351.58125      0              2912.2137      45.936319      20.047001      20.857         19206.908      5368.781       3568.9825     -201.12252      1962.4796      43.910506      102.43449    
  22738000   256.80316     -348.75123     -273.49949     -348.76771      0              5566.6851      46.254137      20.047001      20.857         19339.794      4468.9903      6917.6051      5313.4598     -435.72523      851.02646     -1005.1944    
  22738500   256.67189     -350.55696     -275.3437      -350.57589      0              2517.285       46.678713      20.047001      20.857         19517.317      1687.5608      2807.2964      3056.9977      611.71515      1888.1851      486.43003    
  22739000   263.2199      -351.07778     -273.94573     -351.08887      0              2620.7684      46.494193      20.047001      20.857         19440.166      4294.6537      2489.4497      1078.2017     -777.55254     -150.31976     -23.214603    
  22739500   260.64599     -351.34354     -274.96572     -351.36195      0              5272.1283      46.13776       20.047001      20.857         19291.134      6614.2853      4692.7345      4509.3652      1286.0536     -1880.4946     -278.63972    
  22740000   265.7561      -349.60657     -271.73133     -349.62279      0              5718.9319      46.201419      20.047001      20.857         19317.751      8200.9379      4685.0245      4270.8334     -674.16376     -1048.2363      38.448738    
  22740500   266.48714     -351.09764     -273.00818     -351.10855      0              4347.7158      46.513101      20.047001      20.857         19448.072      6387.5048      2193.7802      4461.8624      641.80829     -92.918971      921.91328    
  22741000   267.82655     -352.54815     -274.0662      -352.53141      0              4505.4623      46.533387      20.047001      20.857         19456.554      6400.9866      3848.4042      3266.9961     -651.92063      951.16404      512.72633    
  22741500   261.48221     -350.80257     -274.17972     -350.78639      0              5612.5654      46.131031      20.047001      20.857         19288.32       6539.5525      7512.6804      2785.4633     -523.41611     -449.0928      -727.7992     
  22742000   267.66063     -349.37762     -270.94429     -349.40168      0              4082.7659      46.116522      20.047001      20.857         19282.254      5850.1266      2062.4927      4335.6784     -1739.6939     -582.03546     -622.88189    
  22742500   266.09904     -349.18277     -271.20704     -349.22218      0              4278.5752      46.418087      20.047001      20.857         19408.344      4120.1361      6228.621       2486.9683      836.39492     -199.88061      589.04832    
  22743000   267.12586     -348.61031     -270.33369     -348.5925       0              3160.4156      46.447675      20.047001      20.857         19420.716      3541.0868      3465.334       2474.8259     -810.54774     -593.41933     -1076.7667    
  22743500   279.5777      -348.9704      -267.04498     -348.96204      0              3113.5365      46.320708      20.047001      20.857         19367.628      2732.6349      3341.3991      3266.5756     -1661.8484     -2738.4443     -201.38646    
  22744000   263.81529     -348.52976     -271.22324     -348.53169      0              4274.4443      46.55631       20.047001      20.857         19466.138      3334.6741      5846.2451      3642.4136      491.01153     -384.01185      4.4191565    
  22744500   260.9633      -348.94616     -272.47537     -348.97519      0              4392.1729      46.577         20.047001      20.857         19474.789      5212.9796      4747.6856      3215.8536     -172.90798     -932.8253      -771.60475    
  22745000   268.87478     -349.08369     -270.29457     -349.09326      0              4913.9834      46.296143      20.047001      20.857         19357.357      5200.4641      5101.6145      4439.8716     -123.89378     -173.35501      115.99332    
  22745500   268.31733     -348.76056     -270.1348      -348.77764      0              6055.8342      46.474237      20.047001      20.857         19431.822      6333.4195      7126.8083      4707.2747     -623.76642      171.08924     -1872.695     
  22746000   268.40597     -347.67387     -269.02213     -347.68621      0              3338.7166      46.750808      20.047001      20.857         19547.462      1518.9392      3249.8472      5247.3632     -638.07932     -450.87721      511.85015    
  22746500   260.81374     -349.17201     -272.74505     -349.19116      0              3960.8336      46.635751      20.047001      20.857         19499.354      5179.2106      4193.8891      2509.401       862.88922      492.30809      2379.9986    
  22747000   259.22314     -350.42952     -274.46865     -350.45118      0              5993.7773      46.379262      20.047001      20.857         19392.111      6642.2004      6608.7502      4730.3812      402.28527      828.44998      212.7545     
  22747500   259.35002     -351.63363     -275.63558     -351.63897      0              5938.4796      46.431762      20.047001      20.857         19414.062      5444.663       7365.1717      5005.6041     -341.64134     -203.08148      957.77502    
  22748000   264.99292     -349.64171     -271.9901      -349.63802      0              3733.0895      46.660741      20.047001      20.857         19509.803      4807.3192      3551.5484      2840.4009      82.524498      1078.2575     -736.24036    
  22748500   266.29726     -350.75265     -272.71883     -350.77131      0              4469.3688      46.755847      20.047001      20.857         19549.569      4138.6669      5098.3293      4171.1102      590.00924     -140.54524     -180.21947    
  22749000   265.80343     -350.28294     -272.39383     -350.28765      0              5948.7282      46.48597       20.047001      20.857         19436.728      4490.4715      7234.6878      6121.0252      904.89065      825.46713     -380.39603    
  22749500   265.42528     -349.61444     -271.83614     -349.60904      0              5085.229       46.002462      20.047001      20.857         19234.563      5280.5458      4504.5739      5470.5674     -30.225041     -251.67671     -146.17836    
  22750000   263.11764     -348.99659     -271.89451     -348.98158      0              6937.885       46.116902      20.047001      20.857         19282.413      7118.3123      6523.5575      7171.7852      1195.5992     -603.21671     -356.49195    
  22750500   264.62272     -349.93735     -272.39423     -349.92255      0              4920.4853      46.713305      20.047001      20.857         19531.781      7417.3279      4550.5269      2793.6012     -546.16886      517.47298      1277.1668    
  22751000   260.76218     -350.88725     -274.47539     -350.89769      0              2795.8302      46.582472      20.047001      20.857         19477.077      3057.413       3214.3672      2115.7105      1084.3653      44.169953      896.02577    
  22751500   265.07815     -351.03038     -273.3538      -351.02672      0              3742.8639      46.257729      20.047001      20.857         19341.296      4788.4815      2549.2217      3890.8883      149.40254      566.96001     -1660.1132    
  22752000   263.13998     -349.50156     -272.39292     -349.51401      0              8310.838       46.234742      20.047001      20.857         19331.684      8037.5497      8130.9055      8764.0588      734.9336       1450.4819     -23.945658    
  22752500   264.01304     -350.51019     -273.14573     -350.53017      0              3389.613       46.559137      20.047001      20.857         19467.32       5143.3208      1260.9262      3764.5919     -1804.3832     -1541.3049     -1583.9877    
  22753000   258.79658     -349.98332     -274.14745     -349.99981      0              2282.9008      46.511651      20.047001      20.857         19447.466      1544.4152      1896.0665      3408.2207      2162.167      -574.85583     -301.72708    
  22753500   269.99278     -351.67667     -272.55995     -351.71563      0              3422.5731      46.477244      20.047001      20.857         19433.079      5317.4027      3085.8236      1864.4931     -1502.6435      211.84561     -568.90791    
  22754000   260.89592     -350.69875     -274.2477      -350.7136       0              3943.6628      46.35687       20.047001      20.857         19382.749      6598.9756      2441.9119      2790.1008      395.52883     -105.9109       1187.7488    
  22754500   259.67319     -351.22848     -275.13574     -351.23178      0              2796.7724      46.104907      20.047001      20.857         19277.397      5400.6123     -219.47433      3209.1791      237.79348      421.22331     -432.2093     
  22755000   261.63463     -348.97895     -272.31143     -349.00279      0              5833.392       46.292212      20.047001      20.857         19355.713      5656.1823      5684.5361      6159.4577      1319.27        526.74851      2663.2984    
  22755500   273.52444     -352.12377     -271.97216     -352.13272      0              5491.8932      46.685599      20.047001      20.857         19520.197      8046.491       5158.4912      3270.6975     -1941.8794      1965.9834     -194.67841    
  22756000   264.66528     -352.79504     -275.23945     -352.82498      0              5965.4759      46.698949      20.047001      20.857         19525.779      5248.0194      6585.3623      6063.046       1003.1249     -709.08703     -155.78977    
  22756500   270.23118     -351.99694     -272.81036     -352.01764      0              6894.6228      46.442264      20.047001      20.857         19418.453      8825.041       7036.3144      4822.5131     -732.76355      858.35173      570.84418    
  22757000   263.32361     -347.37203     -270.20959     -347.40016      0              1577.8288      46.587091      20.047001      20.857         19479.009      2508.3328      173.5513       2051.6023     -982.57468      112.01495      1278.1399    
  22757500   267.71382     -349.6961      -271.24718     -349.7213       0              4627.9839      46.514219      20.047001      20.857         19448.539      2439.4532      5215.1833      6229.3151      1632.0134      72.323105     -1472.8455    
  22758000   272.74558     -347.36213     -267.43874     -347.39025      0              4192.5134      46.37754       20.047001      20.857         19391.391      4294.2641      3427.1887      4856.0873     -1303.0182      1607.667       611.84901    
  22758500   262.0107      -347.28005     -270.50233     -347.34056      0              4194.5235      46.408004      20.047001      20.857         19404.129      5225.9277      4390.5011      2967.1417      1828.9497      1503.7364     -166.21875    
  22759000   267.89928     -346.23538     -267.73212     -346.30766      0              4211.9965      46.45924       20.047001      20.857         19425.551      4743.9748      4964.0469      2927.9678     -1199.626       884.79899     -1512.5763    
  22759500   258.58486     -348.61942     -272.84559     -348.64501      0              3615.9371      46.549661      20.047001      20.857         19463.358      5674.2569      3750.7647      1422.7897      898.50668      794.61794     -524.59648    
  22760000   267.28348     -347.83609     -269.51328     -347.87004      0              4642.0017      46.409486      20.047001      20.857         19404.748      5961.7513      2021.185       5943.0689     -686.97728     -207.0507      -70.787924    
  22760500   266.7142      -348.30718     -270.15119     -348.3388       0              5027.2834      46.450633      20.047001      20.857         19421.952      5423.0465      4931.6549      4727.1487      2106.7691     -2286.031      -2025.5151    
  22761000   262.07547     -348.98274     -272.18604     -349.0125       0              4428.1822      46.564718      20.047001      20.857         19469.654      4870.2527      3354.2577      5060.0362      991.81792     -264.34675     -445.29596    
  22761500   254.43202     -345.35438     -270.79747     -345.39284      0              3769.0501      46.463192      20.047001      20.857         19427.204      5261.7408      1553.4129      4491.9967      283.40736      4243.6759      1040.1897    
  22762000   267.89332     -351.61845     -273.11694     -351.62576      0              4601.4225      46.530198      20.047001      20.857         19455.22       4729.937       4114.7404      4959.5901     -2899.187      -818.28835     -1455.853     
  22762500   266.25647     -348.29414     -270.27227     -348.32174      0              3485.0766      46.690567      20.047001      20.857         19522.274      3075.9206      5251.7575      2127.5516     -87.42067       391.02213     -225.19559    
  22763000   278.75288     -348.11804     -266.43431     -348.21277      0              2013.0297      46.536048      20.047001      20.857         19457.666      4895.742      -1170.7455      2314.0926      488.28788      671.87884      594.97855    
  22763500   273.61033     -349.40229     -269.2255      -349.41962      0              4386.0868      46.434278      20.047001      20.857         19415.114      6384.2881      3445.59        3328.3823      310.02166      857.87219      648.71231    
  22764000   275.71623     -349.00305     -268.20916     -349.017        0              3113.2055      46.621056      20.047001      20.857         19493.21       2148.5818      4122.4826      3068.5522      716.59295     -351.44597     -2129.4969    
  22764500   266.90201     -348.91378     -270.70275     -348.93405      0              3939.0396      46.729034      20.047001      20.857         19538.358      6714.1589      1895.3405      3207.6195     -1745.3489     -1114.3633     -1223.4268    
  22765000   263.28807     -349.01189     -271.85986     -349.03865      0              3833.4174      46.630593      20.047001      20.857         19497.197      4516.9186      1514.1517      5469.1819     -935.9689       1691.603      -3068.9231    
  22765500   268.92852     -347.98301     -269.17815     -348.00905      0              3725.4808      46.625013      20.047001      20.857         19494.864      4829.8447      4079.4201      2267.1775     -1604.2159     -392.24545     -1008.1553    
  22766000   267.06027     -347.20037     -268.94297     -347.27479      0              3410.8701      46.517072      20.047001      20.857         19449.732      3978.5396      1804.8081      4449.2625     -824.0627       1520.1186      478.6356     
  22766500   256.93765     -348.3576      -273.06646     -348.38708      0              4468.7788      46.269164      20.047001      20.857         19346.077      5861.3015      5578.0319      1967.003       498.45919      435.99704      260.51657    
  22767000   258.66832     -349.93255     -274.13426     -349.95989      0              5290.258       46.246083      20.047001      20.857         19336.426      4842.4803      3597.1128      7431.181      -460.93638      542.60786     -384.82019    
  22767500   254.82997     -348.68062     -274.00709     -348.7005       0              4865.518       46.414502      20.047001      20.857         19406.846      6461.8839      4329.6126      3805.0575      771.33076      547.69672     -3016.1459    
  22768000   265.89184     -352.42774     -274.51272     -352.4571       0              5332.082       46.470242      20.047001      20.857         19430.151      5350.3068      4992.6499      5653.2894      312.28305     -314.46174      1284.1254    
  22768500   266.55922     -350.34115     -272.23057     -350.36546      0              3724.4168      46.360457      20.047001      20.857         19384.248      5362.716       2671.9605      3138.5738     -163.65633     -2322.0094     -1154.228     
  22769000   261.90273     -349.13524     -272.38916     -349.13179      0              5071.112       46.327975      20.047001      20.857         19370.667      5576.3685      5175.1817      4461.7857     -353.38497      447.23342      1209.9079    
  22769500   262.35979     -350.09018     -273.21017     -350.0791       0              7821.12        46.414523      20.047001      20.857         19406.854      5718.0807      9755.9581      7989.3213      1446.2857     -375.37748     -1572.8587    
  22770000   260.13305     -349.25556     -273.02805     -349.27198      0              2871.4306      46.767279      20.047001      20.857         19554.349      3958.749       2317.5212      2338.0215     -855.00265     -1190.0081      663.29329    
  22770500   264.19131     -350.77472     -273.35801     -350.78989      0              6429.7817      46.562325      20.047001      20.857         19468.653      5629.1507      8006.6943      5653.5        -1084.3221      850.38923     -831.44552    
  22771000   267.11441     -348.00738     -269.73411     -348.02629      0              4949.9627      45.973247      20.047001      20.857         19222.348      4350.4108      4016.4385      6483.039      -628.07599      539.82411     -2270.7323    
  22771500   264.31115     -348.88076     -271.42893     -348.87542      0              5529.6348      46.014378      20.047001      20.857         19239.545      6284.9921      5666.431       4637.4814      253.38894      1350.6587     -1956.5711    
  22772000   266.25048     -350.85156     -272.83145     -350.86811      0              5372.0429      46.477985      20.047001      20.857         19433.389      6387.8994      4860.1522      4868.0773     -161.60265      292.99963     -1282.6249    
  22772500   275.18009     -349.75439     -269.11761     -349.784        0              5850.9987      46.494186      20.047001      20.857         19440.163      6243.3903      4570.7669      6738.8389      78.736378     -64.929382     -923.9428     
  22773000   263.25591     -349.46981     -272.32721     -349.48919      0              2313.7427      46.332341      20.047001      20.857         19372.492      1368.3536      3698.4951      1874.3794     -238.78235     -290.19924      1029.3484    
  22773500   256.35658     -348.58057     -273.4597      -348.57754      0              5519.7338      46.325653      20.047001      20.857         19369.696      6054.614       5799.9151      4704.6724      320.59204      515.97495     -474.47198    
  22774000   262.30398     -350.49308     -273.62942     -350.51494      0              6181.1254      46.541903      20.047001      20.857         19460.114      3915.794       8446.1096      6181.4727     -818.86365      55.244602      261.00646    
  22774500   261.18099     -346.94492     -270.41034     -346.96708      0              4610.9239      46.327678      20.047001      20.857         19370.542      5062.6033      5044.9025      3725.2657     -937.61565     -58.217256      708.30727    
  22775000   266.25578     -347.49354     -269.47188     -347.51377      0              3186.4852      46.051182      20.047001      20.857         19254.934      4264.0677      1499.9474      3795.4406     -1012.6178      728.63207     -520.16376    
  22775500   266.52706     -348.52938     -270.42822     -348.54685      0              4289.0524      46.08327       20.047001      20.857         19268.351      4830.084       3121.8305      4915.2429      331.10326     -433.41424     -576.8075     
  22776000   262.45138     -346.61158     -269.70473     -346.62243      0              3403.2635      46.30824       20.047001      20.857         19362.415      5840.9303      3050.3202      1318.5401     -1639.2731      1158.566      -1162.0019    
  22776500   264.37792     -347.45724     -269.98585     -347.46363      0              4220.5886      46.350817      20.047001      20.857         19380.217      3783.3398      5917.7845      2960.6414      52.274816      1753.1231      989.56416    
  22777000   261.29804     -349.55586     -272.98697     -349.58608      0              5921.0539      46.364163      20.047001      20.857         19385.798      6159.9884      7862.0476      3741.1257     -6.3794216      622.87379      920.93332    
  22777500   265.87089     -350.21906     -272.31018     -350.24815      0              3281.5821      46.453497      20.047001      20.857         19423.15       3143.3011      3330.1501      3371.2952     -582.41836      921.02784      1602.6184    
  22778000   257.58308     -349.80305     -274.32277     -349.81998      0              3887.4281      46.434828      20.047001      20.857         19415.344      5781.6777      4246.4903      1634.1162      32.404045      1395.2618     -1006.0492    
  22778500   258.64336     -350.74511     -274.95414     -350.76766      0              5410.7798      46.270514      20.047001      20.857         19346.641      6008.9947      5341.846       4881.4989     -1846.5296      681.63728     -103.99342    
  22779000   266.07751     -350.81817     -272.84875     -350.83092      0              5938.3727      46.066957      20.047001      20.857         19261.53       6382.9691      5508.5955      5923.5535      24.9825       -272.21359      1864.1145    
  22779500   265.22126     -348.35276     -270.63425     -348.3694       0              3599.6874      46.657201      20.047001      20.857         19508.323      2051.8638      6031.3767      2715.8218      283.52725      254.72691     -366.82452    
  22780000   265.96098     -348.56889     -270.63362     -348.62027      0              3687.5939      46.596256      20.047001      20.857         19482.84       2968.5284      5279.7915      2814.4619      719.86369      1798.3105      3167.5799    
  22780500   271.12509     -348.88759     -269.43906     -348.89425      0              6138.9214      46.024624      20.047001      20.857         19243.83       8371.0893      5967.7363      4077.9385      1192.9361      1389.5417      27.722825    
  22781000   263.39924     -349.64257     -272.45797     -349.6311       0              4054.0442      46.257824      20.047001      20.857         19341.335      5523.7007      5726.2225      912.20942      30.3045       -10.211985      1424.4954    
  22781500   259.22512     -346.03837     -270.07692     -346.06065      0              2920.5417      46.583275      20.047001      20.857         19477.413      5699.287       2059.6386      1002.6995     -422.67811     -754.83267     -749.36265    
  22782000   267.66621     -346.29822     -267.86326     -346.33577      0              4481.1695      46.387008      20.047001      20.857         19395.35       5066.3364      4710.9805      3666.1916      141.68682     -1186.2268      3355.8465    
  22782500   268.85178     -343.24482     -264.46245     -343.28138      0              4109.5735      46.173658      20.047001      20.857         19306.144      5943.6249      3568.054       2817.0417      1212.2985     -476.9924      -325.8334     
  22783000   260.38617     -345.6485      -269.34683     -345.66896      0              4976.7162      46.287229      20.047001      20.857         19353.63       6883.419       5176.3579      2870.3719     -412.45592     -995.05337      1066.9971    
  22783500   267.81282     -350.08044     -271.60251     -350.09772      0              4302.3439      46.456422      20.047001      20.857         19424.373      5475.9381      3970.9518      3460.1419     -1433.3079     -628.81299     -652.08471    
  22784000   274.03458     -349.12427     -268.82317     -349.13158      0              3112.4035      46.486409      20.047001      20.857         19436.911      4143.2395      3051.8506      2142.1205      702.28179     -465.72164     -493.29531    
  22784500   264.43944     -348.18066     -270.69124     -348.21375      0              4009.9005      46.482661      20.047001      20.857         19435.344      3873.2289      5009.102       3147.3707     -551.03111      1496.1271     -679.00181    
  22785000   269.44851     -350.20179     -271.24456     -350.21618      0              4327.7429      46.418806      20.047001      20.857         19408.645      4924.3261      4124.4086      3934.4939     -681.36743      769.73865     -697.91583    
  22785500   271.81689     -348.74844     -269.09719     -348.77498      0              4729.8775      46.326026      20.047001      20.857         19369.852      6748.0294      3656.766       3784.8373     -1537.4354      920.32688      1631.7559    
  22786000   262.82929     -348.98534     -271.96776     -349.01605      0              6053.5161      46.431757      20.047001      20.857         19414.06       7164.2525      6486.8031      4509.4925      360.7752      -625.95401      1104.722     
  22786500   266.7835      -349.53197     -271.35567     -349.58973      0              2813.0414      46.681793      20.047001      20.857         19518.605      4331.8494      1648.4471      2458.8277      428.98171     -799.44865     -336.92638    
  22787000   274.61072     -349.59069     -269.12076     -349.61814      0              3492.1931      46.662855      20.047001      20.857         19510.687      5316.5553      2146.1365      3013.8875     -946.19255     -86.213788     -372.94161    
  22787500   263.50219     -350.13294     -272.91817     -350.16219      0              5478.7438      46.386699      20.047001      20.857         19395.221      6248.3745      6857.4444      3330.4127      1313.848       576.55476      1845.3434    
  22788000   267.42805     -347.80794     -269.44277     -347.83641      0              6262.5135      46.43263       20.047001      20.857         19414.425      7145.373       7085.2773      4556.89        1009.8148      322.35784     -1439.5261    
  22788500   265.44708     -349.65101     -271.86632     -349.68571      0              4854.2964      46.698264      20.047001      20.857         19525.492      4033.539       5605.6745      4923.6758     -897.6081      -1183.4841     -556.02658    
  22789000   273.97906     -347.60358     -267.31875     -347.63761      0              4684.7784      46.692791      20.047001      20.857         19523.204      4948.4689      5627.8078      3478.0585      30.519967      593.12519     -1088.5311    
  22789500   265.95631     -349.01012     -271.07621     -349.03835      0              6228.1601      46.528041      20.047001      20.857         19454.318      6721.4753      4794.9315      7168.0735     -2686.0417     -705.73384      2240.0866    
  22790000   259.459       -349.89523     -273.86525     -349.91722      0              5234.2527      46.292277      20.047001      20.857         19355.741      6101.016       5544.5398      4057.2023     -1273.5453      464.50927      134.93213    
  22790500   265.11966     -349.43374     -271.745       -349.45198      0              2461.0433      46.394465      20.047001      20.857         19398.468      1014.6104      2344.7698      4023.7498     -1320.6224     -530.40672      2404.2605    
  22791000   261.0687      -348.83131     -272.32963     -348.85207      0              4944.5836      46.313744      20.047001      20.857         19364.716      3220.8231      5893.7857      5719.1421     -738.56564      919.28154     -1015.1242    
  22791500   272.83229     -350.5257      -270.5769      -350.59195      0              6002.1376      46.506268      20.047001      20.857         19445.215      5851.8217      7527.5455      4627.0456      1185.5037     -1585.9139      795.16595    
  22792000   260.94713     -349.27541     -272.80935     -349.30242      0              3132.6982      46.87486       20.047001      20.857         19599.331      3638.578       3678.1436      2081.3729     -546.73083     -22.811657     -1258.8778    
  22792500   271.52885     -349.9839      -270.41705     -350.02604      0              5686.6534      46.865621      20.047001      20.857         19595.468      5118.298       7804.4925      4137.1697      22.132807      548.29475     -886.19355    
  22793000   264.96289     -350.02287     -272.38007     -350.04305      0              5892.542       46.354624      20.047001      20.857         19381.809      5282.3323      6869.4517      5525.842       513.68783     -1656.4523      671.18105    
  22793500   264.6573      -349.96589     -272.41263     -349.99792      0              3639.7892      46.38859       20.047001      20.857         19396.011      3437.2359      4139.893       3342.2387     -1043.0095     -407.00327     -1652.1002    
  22794000   268.42581     -351.08982     -272.43227     -351.11729      0              5630.7886      46.533029      20.047001      20.857         19456.404      5983.8013      6555.4948      4353.0697     -166.78972      205.30366      312.65694    
  22794500   264.69775     -348.52777     -270.96266     -348.55382      0              4740.579       46.621735      20.047001      20.857         19493.494      6814.8979      4033.5221      3373.317       68.07816       27.579094     -1624.4236    
  22795000   267.98056     -349.78531     -271.25823     -349.81243      0              5495.4185      46.539014      20.047001      20.857         19458.906      7211.2537      4242.6547      5032.347       96.192011      1549.3797      620.38785    
  22795500   259.02212     -348.45157     -272.5496      -348.46067      0              5241.8049      46.36966       20.047001      20.857         19388.096      5453.924       5370.5673      4900.9233     -535.91867     -1418.2585     -967.0285     
  22796000   270.82458     -346.78785     -267.42738     -346.82053      0              5037.324       46.394733      20.047001      20.857         19398.58       4824.3122      6440.7158      3846.9439      1663.4748     -98.574342     -446.06641    
  22796500   263.18108     -349.65745     -272.53677     -349.66397      0              3166.8825      46.391935      20.047001      20.857         19397.41       3110.8754      3227.8432      3161.9289     -1276.7518      111.51336      408.48389    
  22797000   268.83567     -347.97531     -269.19765     -347.97573      0              4965.5842      46.253457      20.047001      20.857         19339.509      6370.6376      5644.3077      2881.8074     -43.551899      729.52472     -1306.4928    
  22797500   256.0505      -348.79591     -273.76473     -348.82353      0              2690.5833      46.360803      20.047001      20.857         19384.393      1698.6421      3432.7917      2940.3162      125.36626      613.46007      2003.7497    
  22798000   257.73188     -351.48604     -275.96216     -351.49302      0              4855.2637      46.401134      20.047001      20.857         19401.256      5062.8128      3795.4948      5707.4836     -186.65579     -1313.3789     -1890.0467    
  22798500   256.42452     -349.64481     -274.50403     -349.67806      0              3403.276       46.344134      20.047001      20.857         19377.423      2706.6125      3679.0041      3824.2115      184.28519     -424.52563     -1320.5778    
  22799000   263.36996     -346.50796     -269.33194     -346.52956      0              5421.6323      46.411245      20.047001      20.857         19405.484      5949.9123      5909.3378      4405.6467      785.64376     -1544.5416     -254.11754    
  22799500   273.67747     -349.61601     -269.41955     -349.62564      0              4561.9575      46.823943      20.047001      20.857         19578.041      5183.8571      6352.2428      2149.7726     -293.34448      552.19025      778.8282     
  22800000   266.50022     -351.01922     -272.92593     -351.05062      0              2016.6375      46.925754      20.047001      20.857         19620.61       1833.9121      962.54986      3253.4506      1651.2524     -467.30493      2021.8216    
  22800500   261.75154     -348.5264      -271.82463     -348.54873      0              4723.7956      46.238137      20.047001      20.857         19333.104      5596.9874      4691.0589      3883.3405      245.71423      27.771576     -205.96666    
  22801000   260.15773     -349.97132     -273.73658     -349.98878      0              5742.9041      46.114152      20.047001      20.857         19281.263      5042.8086      6462.7825      5723.1213      712.43819      551.96856     -233.76121    
  22801500   269.86956     -350.49777     -271.41715     -350.52322      0              4456.1669      46.338611      20.047001      20.857         19375.114      7015.3625      3592.6074      2760.5308      406.95558      2447.0547      394.39637    
  22802000   263.02816     -351.18364     -274.10777     -351.20417      0              3262.9705      46.429777      20.047001      20.857         19413.232      5283.0679      2233.3913      2272.4524     -1862.2149      1088.4962      23.628117    
  22802500   262.98502     -350.03931     -272.97608     -350.06505      0              5112.7618      46.476429      20.047001      20.857         19432.738      6684.1748      2756.9675      5897.1433     -216.58329      891.65454     -93.573814    
  22803000   263.36944     -350.22314     -273.04727     -350.24235      0              3956.0516      46.274391      20.047001      20.857         19348.262      3959.3315      4319.1425      3589.6806     -1662.0345     -172.30694      533.90671    
  22803500   261.00208     -348.99798     -272.51582     -349.03932      0              4779.3355      46.521109      20.047001      20.857         19451.42       5342.6717      5990.54        3004.7947      597.24771      281.61233      920.34838    
  22804000   260.12427     -349.32229     -273.09736     -349.35952      0              3955.9383      46.475028      20.047001      20.857         19432.153      3165.9843      3879.0049      4822.8257     -1329.4394      1076.3325      1872.1349    
  22804500   268.78017     -350.01911     -271.25772     -350.0438       0              3938.2035      46.306807      20.047001      20.857         19361.816      3392.5031      5306.3         3115.8073     -805.17966     -1286.2108      1083.9305    
  22805000   274.27685     -347.62263     -267.25054     -347.66273      0              3330.3847      46.343993      20.047001      20.857         19377.364      5418.2498      997.49786      3575.4065     -208.65729      111.03625     -1706.2423    
  22805500   265.70322     -349.34605     -271.48631     -349.37194      0              5591.932       46.320918      20.047001      20.857         19367.716      6016.5485      4165.1599      6594.0876     -290.67928      1154.3622      2158.0917    
  22806000   264.51217     -348.84805     -271.33732     -348.88027      0              5771.0944      46.399467      20.047001      20.857         19400.559      8571.6673      3795.6353      4945.9804     -239.87885      392.80717     -324.10459    
  22806500   267.93498     -347.94107     -269.42735     -347.9717       0              6492.4026      46.259425      20.047001      20.857         19342.005      6155.6883      6791.5958      6529.9237     -404.95856      332.82576      202.60085    
  22807000   266.44881     -349.43134     -271.35311     -349.46004      0              4232.131       46.451167      20.047001      20.857         19422.176      3126.1804      3112.8168      6457.3958     -635.22853      1081.9214     -1029.4274    
  22807500   259.57657     -348.13376     -272.06932     -348.16171      0              4779.4129      46.466406      20.047001      20.857         19428.548      7511.5097      3657.4051      3169.3238      1587.033       3192.67       -936.36945    
  22808000   258.45124     -346.81595     -271.08128     -346.84795      0              6391.7018      46.261636      20.047001      20.857         19342.929      5769.5402      6413.886       6991.6792     -900.13395     -361.19125      1185.0605    
  22808500   263.63668     -349.51395     -272.25977     -349.57417      0              3904.6179      46.287613      20.047001      20.857         19353.791      5844.7615      2544.6771      3324.4152      208.22498     -83.63872       1195.0105    
  22809000   255.48723     -347.86668     -273.00056     -347.9017       0              4970.1799      46.369873      20.047001      20.857         19388.185      4613.5492      5339.5107      4957.4799     -52.716476      3071.4111      1165.0544    
  22809500   252.06358     -352.53258     -278.66969     -352.55943      0              3993.5781      46.388428      20.047001      20.857         19395.943      2524.0361      4652.9946      4803.7037      175.79119     -187.96881      485.0352     
  22810000   260.49562     -353.42548     -277.09173     -353.45353      0              6346.799       46.152014      20.047001      20.857         19297.094      8318.3222      6787.1044      3934.9703      1863.1039     -381.87225     -1402.7813    
  22810500   264.57642     -351.21364     -273.68408     -351.23222      0              5136.2941      45.947275      20.047001      20.857         19211.488      5462.1885      4236.2758      5710.4178     -554.54027     -230.39769      208.10421    
  22811000   272.0773      -349.01119     -269.28363     -349.03413      0              3491.5978      46.185669      20.047001      20.857         19311.166      4537.9092      3503.0402      2433.8441      661.25777      601.72238      379.15054    
  22811500   260.19899     -350.2101      -273.96327     -350.22657      0              5518.9255      46.365248      20.047001      20.857         19386.251      5472.4624      6035.6253      5048.6887     -721.33452      361.40579      2029.9505    
  22812000   255.66142     -349.64656     -274.72939     -349.66836      0              3254.2524      46.128382      20.047001      20.857         19287.213      2577.2295      5097.4698      2088.0578      1454.0205     -388.71854     -338.62631    
  22812500   261.52307     -349.30737     -272.67254     -349.32603      0              6960.3108      45.835469      20.047001      20.857         19164.74       10003.681      4372.6355      6504.6158      312.23667     -1551.1348     -520.7502     
  22813000   262.78475     -349.92121     -272.91668     -350.01173      0              1854.8338      46.145235      20.047001      20.857         19294.26       2285.9543      1612.2373      1666.3099      369.37611      990.66744     -377.3662     
  22813500   267.27999     -352.35374     -274.03195     -352.36414      0              3910.3309      46.381763      20.047001      20.857         19393.157      4694.4465      3475.2878      3561.2585      624.20803     -2423.4898     -970.6799     
  22814000   258.44913     -348.72709     -272.99303     -348.75314      0              5731.594       46.069286      20.047001      20.857         19262.504      7516.6345      5667.4419      4010.7057      1521.43        52.050628     -824.54565    
  22814500   264.49208     -350.85796     -273.35311     -350.87263      0              5258.6579      45.776278      20.047001      20.857         19139.991      3858.5297      6237.9995      5679.4444     -916.04692     -291.51956      1512.4227    
  22815000   263.8719      -351.44957     -274.12646     -351.46537      0              5424.2738      45.76549       20.047001      20.857         19135.48       6501.9396      4908.718       4862.1639      1385.463       792.18347      253.2262     
  22815500   268.77836     -347.48038     -268.71952     -347.5038       0              3459.9938      46.0697        20.047001      20.857         19262.677      5562.0547      3314.0842      1503.8426     -412.49431     -324.93249     -2150.4253    
  22816000   265.2964      -348.64938     -270.90884     -348.64578      0              6697.5989      45.95267       20.047001      20.857         19213.744      6669.724       8029.385       5393.6878     -1442.3423      1594.8658     -810.05621    
  22816500   271.82515     -351.66537     -272.0117      -351.67795      0              4661.7896      45.839664      20.047001      20.857         19166.494      5909.82        3581.989       4493.5597     -486.32246     -1775.6029      1051.2012    
  22817000   267.28198     -346.46575     -268.14338     -346.49958      0              5948.6369      45.992528      20.047001      20.857         19230.409      5014.4004      9142.1771      3689.3333     -446.27388      1607.6104      501.0582     
  22817500   256.60505     -348.33569     -273.14201     -348.34065      0              2677.8222      46.015879      20.047001      20.857         19240.173      334.25995      5198.8586      2500.3482      2344.9411     -2306.9851      837.43881    
  22818000   264.78135     -349.1062      -271.51659     -349.12541      0              6617.5057      45.976205      20.047001      20.857         19223.585      5737.2397      8181.6894      5933.5881      141.13517      216.27502     -208.31852    
  22818500   266.01101     -346.59116     -268.64122     -346.61416      0              7114.2698      45.89367       20.047001      20.857         19189.075      7830.9703      7783.5637      5728.2752      21.431302      859.25895      976.4788     
  22819000   264.27534     -347.49918     -270.05785     -347.51643      0              2926.9877      46.27511       20.047001      20.857         19348.563      403.50398      4066.7488      4310.7103      607.97764      359.38125     -2025.2037    
  22819500   262.00069     -350.26789     -273.49311     -350.30427      0              4071.3636      46.517593      20.047001      20.857         19449.95       3495.4975      5341.0095      3377.5838      31.460152     -481.72388      910.21199    
  22820000   267.36254     -349.75871     -271.41273     -349.77696      0              5326.5242      45.998568      20.047001      20.857         19232.935      6167.638       5993.236       3818.6985      244.1575       367.10408      1210.8316    
  22820500   265.17607     -348.56974     -270.86447     -348.58314      0              6868.6013      45.981123      20.047001      20.857         19225.641      9903.7027      5093.2211      5608.8801      999.31107     -376.72918     -2230.5984    
  22821000   264.59605     -347.35619     -269.82088     -347.383        0              4642.9829      46.497661      20.047001      20.857         19441.616      4450.9048      5175.4583      4302.5856      1077.1568      1073.9954     -846.81202    
  22821500   270.44141     -350.00042     -270.75223     -350.03052      0              6079.5696      46.468304      20.047001      20.857         19429.341      6546.2348      5794.6022      5897.8718     -204.06215     -775.24528     -1346.489     
  22822000   261.36601     -351.21212     -274.62332     -351.23386      0              3726.8319      46.167028      20.047001      20.857         19303.371      4816.3409      3694.1759      2669.9788      1578.7775     -17.210175     -137.60818    
  22822500   257.74724     -350.68545     -275.15707     -350.72137      0              4717.8755      46.228356      20.047001      20.857         19329.014      4592.8813      5779.6849      3781.0602     -426.98253     -2322.3477     -44.774069    
  22823000   259.83609     -351.61688     -275.4764      -351.64048      0              3905.6322      46.481138      20.047001      20.857         19434.708      5390.5641      4071.7226      2254.6099     -62.622597      1101.6478     -389.55223    
  22823500   268.40735     -350.41042     -271.75827     -350.42226      0              3148.1904      46.596361      20.047001      20.857         19482.885      5051.1409      2645.1859      1748.2445     -426.49374     -1239.715      -1022.5778    
  22824000   263.46788     -349.60956     -272.40485     -349.60897      0              5212.8248      46.525021      20.047001      20.857         19453.056      7772.2958      5950.6965      1915.482       1317.7138      551.07878     -882.10619    
  22824500   263.05692     -349.96639     -272.88209     -349.96489      0              4492.2729      46.511543      20.047001      20.857         19447.42       4134.6016      5145.7619      4196.4552      847.6341       1231.6582     -135.42442    
  22825000   267.6923      -349.19331     -270.7507      -349.21818      0              4692.0218      46.261262      20.047001      20.857         19342.773      4177.2202      5882.9049      4015.9402     -784.06735      378.36586     -2820.8953    
  22825500   263.44638     -346.79106     -269.59265     -346.80358      0              6121.2839      45.983853      20.047001      20.857         19226.782      6090.0038      7276.4987      4997.3493      1664.9403     -1943.7649      237.01696    
  22826000   264.50835     -348.24588     -270.73628     -348.26361      0              3665.1088      46.385166      20.047001      20.857         19394.58       3273.7034      5012.5496      2709.0733     -1620.2129      1027.3438     -880.36566    
  22826500   256.08398     -348.63471     -273.59371     -348.64267      0              4689.2422      46.694749      20.047001      20.857         19524.022      3354.8875      6864.6221      3848.2168      1311.327       1418.186      -209.75519    
  22827000   264.76755     -349.53733     -271.95177     -349.53405      0              4958.2619      46.580794      20.047001      20.857         19476.375      3365.1364      6873.1533      4636.496      -193.83502      577.87123     -1138.6989    
  22827500   267.3009      -350.6749      -272.34699     -350.69031      0              4647.9076      46.590012      20.047001      20.857         19480.23       4389.6959      5261.968       4292.0588     -392.71399      289.43699      569.20581    
  22828000   264.03611     -350.42964     -273.05841     -350.42737      0              4812.1655      46.509879      20.047001      20.857         19446.724      3628.6212      7771.7604      3036.115       2063.8286      609.19563      837.98527    
  22828500   261.08485     -349.25663     -272.75022     -349.27799      0              5809.3187      46.397349      20.047001      20.857         19399.673      7108.7888      6317.1274      4002.0398     -52.633587     -639.96033     -866.41812    
  22829000   260.12415     -348.57816     -272.35327     -348.58588      0              4452.6052      46.334557      20.047001      20.857         19373.419      6627.0282      5169.564       1561.2235      1202.1576      1198.4839     -1599.3643    
  22829500   267.62154     -351.02971     -272.60783     -351.02912      0              3028.8016      46.260875      20.047001      20.857         19342.611      511.51922      3919.1372      4655.7484      34.422256      64.814532     -255.63571    
  22830000   260.79304     -349.28866     -272.86776     -349.28658      0              5301.0266      46.328572      20.047001      20.857         19370.916      9073.5889      3854.832       2974.6589      605.66007      436.08488      1680.3671    
  22830500   260.52142     -349.85625     -273.51494     -349.86877      0              3479.6953      46.534462      20.047001      20.857         19457.003      4414.4283      2154.9724      3869.6853      1748.7087      1387.8053     -914.9076     
  22831000   265.31185     -350.63761     -272.89255     -350.66741      0              5295.2534      46.369213      20.047001      20.857         19387.909      6401.9691      4713.3707      4770.4204     -251.31074      1388.2962      534.69612    
  22831500   257.27251     -349.50592     -274.11665     -349.54147      0              3692.868       46.088978      20.047001      20.857         19270.737      6453.1385      2280.188       2345.2776     -937.04355      95.803346     -1841.4095    
  22832000   264.35658     -348.29957     -270.83443     -348.30246      0              4392.51        46.150148      20.047001      20.857         19296.314      4363.6962      3939.1633      4874.6707     -152.15727      110.59252      694.38409    
  22832500   267.98256     -348.31091     -269.78325     -348.33818      0              5843.5672      46.404452      20.047001      20.857         19402.643      6719.9984      5860.6112      4950.0921      249.82719      758.28897     -711.57994    
  22833000   261.3291      -347.701       -271.12302     -347.73524      0              4224.9558      46.435292      20.047001      20.857         19415.538      3786.6097      7346.9458      1541.3118     -278.93056      1050.5429     -1640.5152    
  22833500   268.30202     -350.61703     -271.99575     -350.63941      0              5277.1081      46.128402      20.047001      20.857         19287.221      2012.3171      7297.0755      6521.9318      1312.2842     -262.56918      62.423169    
  22834000   262.99002     -350.84715     -273.78246     -350.86407      0              5640.2917      45.922801      20.047001      20.857         19201.255      6117.3107      6180.9919      4622.5724     -1272.0224     -1029.7385     -523.54813    
  22834500   265.55083     -350.72569     -272.9106      -350.74834      0              5266.179       46.3122        20.047001      20.857         19364.071      4402.1283      4274.7865      7121.6223     -1876.8357     -2532.6406     -2045.5881    
  22835000   269.04735     -350.82572     -271.98603     -350.87031      0              3405.4705      46.493333      20.047001      20.857         19439.806      2827.7954      3177.0219      4211.5943      1208.0991     -424.92887      164.49961    
  22835500   258.56996     -348.94167     -273.1722      -348.97868      0              4846.6547      46.400162      20.047001      20.857         19400.85       5294.0236      4764.8475      4481.0931     -407.79611     -892.92124     -366.57565    
  22836000   262.3864      -350.13606     -273.24825     -350.15929      0              3224.42        46.202365      20.047001      20.857         19318.147      3494.8197      4700.987       1477.4533     -940.69276      200.35822      169.19593    
  22836500   259.35716     -349.01971     -273.01956     -349.06245      0              5196.5288      46.170884      20.047001      20.857         19304.984      6253.4011      5086.8491      4249.3364     -956.33549      297.15174      267.19233    
  22837000   261.45711     -347.89137     -271.27587     -347.93712      0              3989.1049      45.940987      20.047001      20.857         19208.859      6110.6208      3539.048       2317.646      -425.19059     -942.42671      684.0461     
  22837500   267.52862     -352.55321     -274.15857     -352.58057      0              4874.8505      46.119832      20.047001      20.857         19283.638      4948.2537      3971.7415      5704.5564     -1245.6424     -116.51146     -95.910451    
  22838000   263.81383     -348.96424     -271.65814     -348.99988      0              5027.762       46.488761      20.047001      20.857         19437.895      3628.6132      6222.172       5232.5008     -330.57447      593.46272     -218.35773    
  22838500   268.69542     -346.48954     -267.75298     -346.55982      0              3988.3188      46.330702      20.047001      20.857         19371.807      5263.0584      4050.5373      2651.3607     -744.56764      287.57462      1077.0294    
  22839000   264.61848     -349.23823     -271.69635     -349.27055      0              5662.3785      46.141182      20.047001      20.857         19292.565      7565.5375      5075.4717      4346.1263     -1322.7219     -736.45265      1685.3146    
  22839500   270.28147     -348.09954     -268.89822     -348.1216       0              7438.444       46.127202      20.047001      20.857         19286.72       10149.655      6903.5351      5262.1419      953.81555     -518.28204      860.37039    
  22840000   263.89097     -347.42885     -270.10015     -347.45762      0              3870.0334      46.14234       20.047001      20.857         19293.049      4561.9325      3205.5037      3842.6638      1932.8046     -466.05246     -87.147847    
  22840500   272.13673     -349.72811     -269.98313     -349.75393      0              6459.7518      46.13998       20.047001      20.857         19292.062      10081.992      3992.2686      5304.9952     -1567.4698     -1347.8949     -301.64232    
  22841000   264.45314     -347.661       -270.16757     -347.68411      0              3570.6119      46.354232      20.047001      20.857         19381.645      1747.2165      4304.0354      4660.5839      1443.2194      3546.424      -669.14114    
  22841500   272.08729     -349.60035     -269.86986     -349.62972      0              5250.6712      46.443326      20.047001      20.857         19418.897      4813.9629      5602.2071      5335.8437     -985.76828      31.517872      215.33937    
  22842000   270.64502     -350.22202     -270.91417     -350.25619      0              4362.528       46.209395      20.047001      20.857         19321.086      4155.0608      5643.685       3288.8383      1075.3525      144.94946      813.65856    
  22842500   264.26136     -348.15031     -270.71308     -348.18052      0              2544.65        46.29464       20.047001      20.857         19356.729      3266.5362      3235.7965      1131.6171      556.89055      1101.2611      334.41449    
  22843000   262.98656     -347.8885      -270.82483     -347.91734      0              5028.3592      46.333724      20.047001      20.857         19373.07       5309.5685      6046.814       3728.6952      2139.497       534.3648      -1683.6177    
  22843500   261.37856     -350.00052     -273.40805     -350.0264       0              5108.066       46.355427      20.047001      20.857         19382.145      7164.6529      3469.6378      4689.9073      272.62742      916.82057      745.82144    
  22844000   267.74824     -349.82691     -271.36791     -349.85036      0              5809.0364      46.500364      20.047001      20.857         19442.746      4033.1215      4512.7171      8881.2705     -672.0632      -332.07942      1059.2685    
  22844500   265.44136     -349.98239     -272.19938     -350.0145       0              4192.6517      46.405674      20.047001      20.857         19403.154      2933.2158      4814.3874      4830.3518      45.060956     -742.08431     -1517.8933    
  22845000   268.08234     -351.95028     -273.39338     -351.96655      0              5108.717       46.262747      20.047001      20.857         19343.394      6465.7324      5837.6652      3022.7534     -80.531713      6.0594229      1837.1976    
  22845500   256.89869     -349.63265     -274.35293     -349.73123      0              3003.8528      46.405599      20.047001      20.857         19403.123      3700.9771      2041.247       3269.3343     -606.21123     -369.75855      585.92268    
  22846000   261.73672     -349.59278     -272.89535     -349.66555      0              4022.5426      46.493457      20.047001      20.857         19439.858      3024.7595      6108.6949      2934.1733      572.81554     -115.43129     -109.60638    
  22846500   266.72618     -349.67114     -271.51164     -349.69262      0              4426.34        46.273187      20.047001      20.857         19347.759      3040.447       6864.7881      3373.7849     -1376.2696     -1274.6954     -201.24723    
  22847000   263.4437      -347.56896     -270.37133     -347.59979      0              4367.895       46.00477       20.047001      20.857         19235.528      2870.216       4746.6671      5486.8019      440.22746      1252.1489     -305.88659    
  22847500   265.94494     -348.01862     -270.08805     -348.03507      0              4601.1995      46.009784      20.047001      20.857         19237.625      5344.2203      3381.6114      5077.7668      306.68872     -1214.9451      564.39542    
  22848000   269.98632     -348.37613     -269.26129     -348.40991      0              2742.6447      46.665455      20.047001      20.857         19511.774      3852.008       26.754592      4349.1714     -853.35141      586.08885     -1053.7792    
  22848500   260.95854     -347.76288     -271.29349     -347.78852      0              3993.9305      46.549837      20.047001      20.857         19463.432      1379.3154      5773.3957      4829.0803     -1631.9953      1363.1558      567.04792    
  22849000   256.62543     -348.63412     -273.43446     -348.72876      0              4987.0429      46.179959      20.047001      20.857         19308.778      8380.5062      2207.9232      4372.6994     -1189.5655      1447.5114     -269.57158    
  22849500   264.28876     -348.59826     -271.153       -348.63486      0              5219.7064      46.352534      20.047001      20.857         19380.935      5982.7595      3149.872       6526.4878     -548.38713     -253.02916      633.21581    
  22850000   260.83839     -349.84938     -273.41519     -349.89721      0              4333.0397      46.638957      20.047001      20.857         19500.695      2743.976       6465.2374      3789.9059     -234.32092     -179.09453      414.59469    
  22850500   255.26548     -350.64912     -275.84797     -350.6827       0              5705.8773      46.613723      20.047001      20.857         19490.144      6048.9896      3937.7476      7130.8946     -1721.6327      1130.0415     -1583.4345    
  22851000   260.26495     -349.33401     -273.06785     -349.36129      0              3375.2011      46.401137      20.047001      20.857         19401.257      5941.9439      3285.7106      897.9489      -274.66985      265.74227      592.26354    
  22851500   266.66005     -349.85734     -271.71721     -349.89218      0              3569.3571      46.375071      20.047001      20.857         19390.359      3258.9271      3308.7245      4140.4196      249.11912      249.43776     -2006.2845    
  22852000   264.60501     -348.5442      -271.00626     -348.57179      0              4818.2188      46.596968      20.047001      20.857         19483.138      4530.9         6443.8781      3479.8782      897.105        1101.6983      610.76556    
  22852500   266.5379      -349.68907     -271.58474     -349.71137      0              6042.0854      46.581152      20.047001      20.857         19476.525      6703.5996      5350.5129      6072.1437     -487.71731      356.04153     -1457.2246    
  22853000   265.29706     -349.32668     -271.58596     -349.33846      0              4048.0537      46.508839      20.047001      20.857         19446.29       5607.7955      4078.0937      2458.2719     -1005.5969      730.96413      288.15748    
  22853500   259.36936     -347.97003     -271.96632     -348.04609      0              3200.5612      46.563961      20.047001      20.857         19469.337      5474.9892      1360.5166      2766.1777     -200.66328     -1172.1312      622.00894    
  22854000   256.98662     -346.49495     -271.18946     -346.53099      0              4570.7079      46.460736      20.047001      20.857         19426.177      3155.5291      6320.2472      4236.3473      936.74321      2367.2941     -516.10932    
  22854500   269.07576     -348.72653     -269.87852     -348.74178      0              6491.6119      46.111196      20.047001      20.857         19280.027      6242.6523      6598.8747      6633.3086      1488.5559     -489.53321      1037.9584    
  22855000   272.7901      -351.2589      -271.32247     -351.25279      0              6224.8448      46.130345      20.047001      20.857         19288.034      6726.9445      5735.7086      6211.8811     -940.74776      843.14559     -718.86675    
  22855500   262.52985     -347.53781     -270.60796     -347.60033      0              3871.7743      46.600756      20.047001      20.857         19484.722      3370.7029      5073.7434      3170.8768     -374.48063     -667.56468      1677.8674    
  22856000   257.13624     -348.31596     -272.96662     -348.34795      0              4277.8658      46.926288      20.047001      20.857         19620.833      3182.399       3971.9344      5679.2639      1059.6548     -984.72026      1363.1745    
  22856500   264.41718     -348.09492     -270.61203     -348.13572      0              4105.0493      46.485966      20.047001      20.857         19436.726      4534.4999      4527.7788      3252.8692      238.70547      1426.9315      2002.9318    
  22857000   270.48938     -349.06914     -269.8069      -349.08605      0              5979.9062      46.296004      20.047001      20.857         19357.299      7058.1088      6301.4304      4580.1795     -987.74147      270.369       -944.6713     
  22857500   268.70139     -349.84734     -271.10903     -349.87393      0              4783.5108      46.63106       20.047001      20.857         19497.393      5495.3408      4726.7615      4128.43       -401.98285     -1953.2777     -233.98717    
  22858000   274.20222     -348.57826     -268.22803     -348.62882      0              3173.3509      46.838295      20.047001      20.857         19584.042      3633.1665      2183.6771      3703.209       1158.2718     -1093.0275     -27.927549    
  22858500   261.48751     -347.75602     -271.13162     -347.86308      0              3484.9323      46.576961      20.047001      20.857         19474.773      3932.4548      5061.1043      1461.2378     -1350.5904      303.32226      1335.4198    
  22859000   270.71898     -348.84039     -269.51086     -348.88726      0              4997.9505      46.34744       20.047001      20.857         19378.805      6184.5732      4184.7936      4624.4848     -681.99422      848.90104      954.30043    
  22859500   261.74505     -350.13093     -273.43106     -350.14474      0              4881.5847      46.475427      20.047001      20.857         19432.319      7212.266       4241.5014      3190.9868      2222.7072      3755.2504      1252.8894    
  22860000   264.90506     -348.27436     -270.6485      -348.29571      0              6102.2001      46.591703      20.047001      20.857         19480.937      5732.1775      8193.9458      4380.477      -1194.333       390.15982     -37.933088    
  22860500   266.25386     -349.53373     -271.51262     -349.56421      0              6496.4403      46.544494      20.047001      20.857         19461.198      6135.955       5183.8506      8169.5154     -1874.451      -2567.7851      427.75082    
  22861000   263.40999     -348.67228     -271.48452     -348.7058       0              5602.091       46.48593       20.047001      20.857         19436.711      6484.0599      6478.7585      3843.4546     -483.27575      7.0585924     -1186.1769    
  22861500   261.05874     -346.43719     -269.93843     -346.45549      0              3618.8376      46.518844      20.047001      20.857         19450.473      4971.9356      4719.6889      1164.8882     -951.40243      628.11738     -816.40432    
  22862000   263.76264     -347.79992     -270.50883     -347.84583      0              4531.4033      46.472385      20.047001      20.857         19431.048      6293.935       3217.2511      4083.0237      438.28491     -718.82398     -741.54558    
  22862500   265.43328     -347.44705     -269.66641     -347.49203      0              3566.4462      46.54368       20.047001      20.857         19460.857      5374.6206      3251.6182      2073.0997     -943.60583      573.86672      1296.9765    
  22863000   264.64081     -349.17548     -271.62706     -349.19587      0              3875.6838      46.647532      20.047001      20.857         19504.28       4936.7603      5388.3012      1301.99       -342.78077     -711.49204      2327.5909    
  22863500   270.14532     -349.23565     -270.07422     -349.27271      0              3587.9881      46.489896      20.047001      20.857         19438.369      4347.3601      4271.6568      2144.9473     -1266.3959     -191.9732       917.01683    
  22864000   258.31154     -350.87649     -275.18274     -350.91         0              1985.6114      46.546307      20.047001      20.857         19461.956      4146.4184      2189.5594     -379.14356     -862.38373      1589.6965     -1080.0607    
  22864500   263.49849     -351.90782     -274.69413     -351.9276       0              3860.6404      46.737809      20.047001      20.857         19542.027      5079.6605      1395.8787      5106.3821      461.48155      1271.5825      997.90367    
  22865000   259.92049     -349.34643     -273.18122     -349.44124      0              3126.1584      46.470586      20.047001      20.857         19430.296      3644.6282      3350.6693      2383.1776      407.78894      619.40817     -739.42853    
  22865500   263.41425     -346.78889     -269.59989     -346.82581      0              5284.5501      46.239355      20.047001      20.857         19333.613      5392.7433      5260.584       5200.3231      342.65458     -479.3035      -219.96906    
  22866000   269.06546     -348.26595     -269.42096     -348.29549      0              4855.2334      46.454599      20.047001      20.857         19423.611      6595.6208      4679.6747      3290.4047      206.56322     -335.6516      -1992.1929    
  22866500   260.88903     -348.33254     -271.88351     -348.37798      0              2043.8978      46.703274      20.047001      20.857         19527.587      3054.4462      795.40209      2281.8452     -88.288887      851.49801     -432.18121    
  22867000   265.91034     -350.32037     -272.39994     -350.34523      0              5858.8588      46.365957      20.047001      20.857         19386.548      6833.3784      5293.2916      5449.9063     -1053.0714      2146.4243     -1188.5049    
  22867500   271.71536     -349.2935      -269.672       -349.32994      0              2681.5609      46.281633      20.047001      20.857         19351.29       3448.7729      2711.719       1884.1908      1304.5168      343.4775      -1057.8109    
  22868000   258.63988     -349.97121     -274.18126     -350.00059      0              5001.7997      46.516899      20.047001      20.857         19449.66       7256.5482      4348.8839      3399.9669      441.23426     -512.10643     -401.62085    
  22868500   257.60701     -348.02819     -272.5409      -348.05355      0              2143.0899      46.696659      20.047001      20.857         19524.821      3250.874       2339.3686      839.02707      312.10655     -980.03601     -40.896251    
  22869000   269.11527     -350.04625     -271.18667     -350.08011      0              4878.1286      46.572892      20.047001      20.857         19473.072      7556.71        2759.2392      4318.4365      863.89255      21.081728     -1476.9763    
  22869500   261.74765     -346.14944     -269.44881     -346.17375      0              4935.1035      46.363549      20.047001      20.857         19385.541      6173.8569      4571.3055      4060.1482     -862.94488      475.16036     -689.97776    
  22870000   272.40245     -349.61237     -269.78953     -349.64325      0              3883.672       46.284816      20.047001      20.857         19352.621      4830.1198      2963.2325      3857.6637     -1421.6133     -909.72722     -1052.2448    
  22870500   268.53254     -346.06555     -267.37672     -346.09016      0              3810.657       46.686689      20.047001      20.857         19520.652      3626.5074      3820.3952      3985.0683     -1131.5693      1868.7769      344.93072    
  22871000   268.17102     -347.96198     -269.37909     -347.98778      0              4933.7454      46.788471      20.047001      20.857         19563.21       8776.5709      3168.9456      2855.7196     -385.05291     -1781.7666     -720.9301     
  22871500   263.2153      -347.81941     -270.6887      -347.95142      0              3769.5852      46.200313      20.047001      20.857         19317.289      4774.027       2016.4531      4518.2754      743.30353      610.98629     -782.84361    
  22872000   259.7687      -350.7686      -274.64786     -350.79171      0              4662.2937      46.191095      20.047001      20.857         19313.435      6078.3169      4086.7544      3821.8098     -1005.8521     -618.42682      1122.3439    
  22872500   270.00408     -350.73649     -271.61645     -350.77243      0              4700.6692      46.461204      20.047001      20.857         19426.373      5494.2043      3100.5487      5507.2546      803.8932      -1577.2292      1021.8792    
  22873000   262.73973     -346.13629     -269.14495     -346.16364      0              4785.9343      46.623         20.047001      20.857         19494.023      5959.9818      3706.6424      4691.1787     -518.77516     -491.80819      1789.5798    
  22873500   271.69342     -347.27412     -267.65905     -347.3349       0              2716.4513      46.509846      20.047001      20.857         19446.711      3597.5409      2430.8599      2120.9532     -292.23714      946.52493     -875.50711    
  22874000   268.17431     -348.46885     -269.88499     -348.49318      0              4973.3984      46.242031      20.047001      20.857         19334.732      7944.8582      4097.1836      2878.1534      976.78741     -778.21781     -590.76277    
  22874500   263.56083     -348.95385     -271.7219      -348.98527      0              5713.4817      46.340611      20.047001      20.857         19375.95       4657.6099      7313.2879      5169.5472     -39.558814     -951.19705     -624.57648    
  22875000   268.53445     -350.08879     -271.3994      -350.11029      0              3796.18        46.626896      20.047001      20.857         19495.652      2659.1221      4480.0526      4249.3652      377.2003       381.76541     -907.73389    
  22875500   267.92654     -347.31118     -268.79993     -347.34156      0              5396.2731      46.353148      20.047001      20.857         19381.192      5915.5145      5290.3367      4982.9682     -769.97133     -435.66357      225.70296    
  22876000   263.71787     -348.12575     -270.84778     -348.14126      0              8588.4179      46.217198      20.047001      20.857         19324.349      7475.4749      10747.663      7542.1155      1849.3553      1322.6484     -1618.0586    
  22876500   267.58698     -349.1547      -270.74295     -349.18649      0              4423.2544      46.577105      20.047001      20.857         19474.833      3383.2941      4922.0416      4964.4276      547.93033      352.7016       691.09682    
  22877000   264.52416     -349.32785     -271.81361     -349.36205      0              4915.055       46.528766      20.047001      20.857         19454.621      5646.0688      5048.6823      4050.4139      330.97017     -294.11546     -583.01035    
  22877500   263.44795     -347.52011     -270.32123     -347.55086      0              5551.8267      46.352375      20.047001      20.857         19380.869      5586.4883      4679.6285      6389.3633      940.64558      788.1794       479.59606    
  22878000   261.66116     -347.99246     -271.31717     -348.02131      0              4564.9272      46.305602      20.047001      20.857         19361.312      5668.9491      4318.6686      3707.1638     -1670.2227      468.99464     -2491.7626    
  22878500   264.58387     -349.44067     -271.90893     -349.47397      0              5626.6311      46.443724      20.047001      20.857         19419.064      5374.588       7184.431       4320.8744      216.44235     -2100.3046     -1187.8506    
  22879000   260.20716     -348.75274     -272.50353     -348.79193      0              5947.2961      46.329742      20.047001      20.857         19371.405      4087.2133      7750.1581      6004.5169      1191.8496      1801.9369      905.67192    
[...]
  25573500   263.7812      -349.70908     -272.41255     -349.6217       0              3690.7538      46.101141      20.047001      20.857         19275.823      5170.1797      4704.9131      1197.1686     -1517.4656     -371.48296      2113.3213    
  25574000   263.74806     -348.69729     -271.41047     -348.64844      0              4289.3692      46.208871      20.047001      20.857         19320.867      7111.0136      1657.5967      4099.4974     -62.066069      437.14915     -913.97436    
  25574500   265.70136     -351.38532     -273.52612     -351.28561      0              7859.8006      46.325281      20.047001      20.857         19369.54       6824.4341      6933.605       9821.3627      1075.7445      429.05989      770.45112    
  25575000   266.48868     -353.71475     -275.62484     -353.63857      0              5509.5202      46.288928      20.047001      20.857         19354.34       5632.8304      5942.2188      4953.5114      237.42972      689.87339      822.8566     
  25575500   271.74954     -352.47792     -272.8464      -352.3931       0              5480.1208      45.876129      20.047001      20.857         19181.741      6418.8629      5027.9008      4993.5986      1006.0245     -1173.1222      1748.1577    
  25576000   260.41854     -350.83927     -274.52811     -350.77845      0              6047.5812      45.893007      20.047001      20.857         19188.798      7829.3245      5245.7029      5067.7162     -806.18629      2683.5997      268.19032    
  25576500   262.33148     -350.16152     -273.28981     -350.11309      0              3657.135       46.191714      20.047001      20.857         19313.693      1093.3221      5919.7995      3958.2834     -789.39718     -60.449801     -431.98806    
  25577000   261.79873     -351.59052     -274.87491     -351.51678      0              3246.0267      46.491946      20.047001      20.857         19439.226      2365.6368      4459.2374      2913.206      -473.98459     -826.57972     -2100.9097    
  25577500   264.37005     -352.96814     -275.49906     -352.90647      0              4019.4636      46.299749      20.047001      20.857         19358.865      3379.2453      3982.707       4696.4387     -492.34559     -346.18905      1132.99      
  25578000   260.42908     -350.69642     -274.38217     -350.63733      0              5230.3202      46.152414      20.047001      20.857         19297.261      8228.6659      2567.2517      4895.043       1601.368      -1425.2277     -324.44376    
  25578500   264.9751      -350.05336     -272.40698     -349.98006      0              3931.2624      46.126498      20.047001      20.857         19286.425      4475.7743      4736.3976      2581.6154     -698.2312      -508.7923      -965.74206    
  25579000   266.34746     -350.26154     -272.21301     -350.20193      0              4050.3272      46.071942      20.047001      20.857         19263.614      3448.2937      3507.7656      5194.9223     -588.92986      808.10364      703.33289    
  25579500   266.84838     -351.64826     -273.45294     -351.58579      0              3134.1558      46.368924      20.047001      20.857         19387.789      2274.5897      2068.4945      5059.3832     -62.32119       1550.0481     -250.10584    
  25580000   258.72776     -350.07152     -274.25582     -349.97383      0              3578.7995      46.121988      20.047001      20.857         19284.54       1727.0589      5083.9855      3925.3541     -344.63352     -1239.7258     -1499.3085    
  25580500   258.29876     -349.37453     -273.68453     -349.27018      0              6054.3379      45.91028       20.047001      20.857         19196.02       6417.8367      7324.5838      4420.593      -448.47843     -894.00276     -1630.001     
  25581000   264.13112     -350.77887     -273.3798      -350.73239      0              4487.6328      46.247192      20.047001      20.857         19336.89       6653.7664      2439.8834      4369.2487     -1.4464453     -1053.4953     -659.5018     
  25581500   258.78378     -351.62566     -275.79353     -351.57772      0              2876.5039      46.653133      20.047001      20.857         19506.622      2046.373       4178.9395      2404.1993     -380.13587      2280.2727     -294.12307    
  25582000   262.55583     -348.98414     -272.04668     -348.96462      0              4659.492       46.204599      20.047001      20.857         19319.081      6791.512       3645.5085      3541.4554      197.04258     -167.61971     -922.75709    
  25582500   260.02538     -348.00752     -271.81157     -347.94969      0              3684.1602      46.045453      20.047001      20.857         19252.539      2513.6084      5568.3416      2970.5305      718.83997      1361.9566      1742.1743    
  25583000   265.19242     -352.07235     -274.36229     -351.9996       0              4151.7824      46.187155      20.047001      20.857         19311.787      4879.8253      3939.1786      3636.3433      926.87481      968.95508     -2045.4197    
  25583500   271.49302     -352.92422     -273.36788     -352.91125      0              3293.4836      46.263178      20.047001      20.857         19343.574      3610.5262      2575.8128      3694.1117      1151.7173     -212.2776       86.770352    
  25584000   271.15855     -348.70399     -269.24566     -348.69223      0              5485.173       46.083193      20.047001      20.857         19268.319      4994.7927      6291.0063      5169.7199     -607.90015      105.23801     -960.72066    
  25584500   265.27973     -348.22988     -270.49423     -348.22631      0              3900.6987      45.982978      20.047001      20.857         19226.417      5836.6195      1473.6615      4391.8151     -929.92863      1800.4667     -1622.2302    
  25585000   263.26624     -348.7008      -271.55517     -348.69275      0              3767.9837      46.086688      20.047001      20.857         19269.78       3098.88        3300.3717      4904.6995      56.93494      -218.41537      112.0688     
  25585500   266.91986     -349.23777     -271.02151     -349.22142      0              2977.0239      46.308703      20.047001      20.857         19362.609      3199.2624      1658.5568      4073.2526      992.51312     -579.02286     -208.2822     
  25586000   266.87027     -349.10413     -270.9024      -349.07623      0              3389.1999      46.453969      20.047001      20.857         19423.347      4975.2404      1350.1254      3842.2338      394.44543     -989.93508      879.83454    
  25586500   264.95406     -347.82281     -270.1826      -347.8196       0              3740.7674      46.328659      20.047001      20.857         19370.953      5811.8723      4096.0624      1314.3676     -620.07577     -826.7258       61.470963    
  25587000   270.95799     -349.58368     -270.18411     -349.58138      0              4013.2681      46.296572      20.047001      20.857         19357.537      3805.3702      5505.519       2728.915       938.30602     -1062.5212      707.28725    
  25587500   270.86916     -348.99761     -269.62408     -348.9917       0              3437.6848      46.202467      20.047001      20.857         19318.19       3790.7823      2537.4859      3984.7861     -264.58162     -2107.0919      1316.3967    
  25588000   278.71055     -349.90368     -268.23236     -349.89709      0              4897.0376      46.188729      20.047001      20.857         19312.445      7936.0899      2781.0479      3973.975      -1640.2941     -1225.7449     -1301.7877    
  25588500   264.05156     -350.14353     -272.76777     -350.1531       0              2412.1593      46.602709      20.047001      20.857         19485.539      2680.5241      2696.4864      1859.4675      278.9875      -155.3308      -1656.2551    
  25589000   261.23924     -349.97311     -273.42146     -349.98654      0              4879.4818      46.320654      20.047001      20.857         19367.606      7219.5885      4868.7057      2550.1512      213.68405     -669.42935      199.36317    
  25589500   268.6713      -350.32434     -271.59485     -350.28144      0              5170.9229      46.026747      20.047001      20.857         19244.717      10252.064      989.43249      4271.2726     -1254.0723     -1398.0231      413.12898    
  25590000   252.92047     -350.30203     -276.18805     -350.28695      0              3846.3247      46.010821      20.047001      20.857         19238.058      5111.7841      3340.7278      3086.4623     -677.20562      661.64766     -792.25601    
  25590500   262.09337     -350.45364     -273.6517      -350.41078      0              6326.6276      45.90773       20.047001      20.857         19194.954      7074.2299      5955.7124      5949.9404     -323.75944      2555.2427     -1106.3956    
  25591000   264.85528     -353.53767     -275.92639     -353.50608      0              3131.1317      46.241344      20.047001      20.857         19334.445      2879.8382      2334.491       4179.0658     -666.31068     -1332.4455      1480.1722    
  25591500   267.11167     -353.28614     -275.01367     -353.24115      0              4255.3806      46.355922      20.047001      20.857         19382.352      4056.6743      3997.728       4711.7396     -296.06557      846.80229     -2190.6436    
  25592000   266.99941     -352.06866     -273.82908     -351.9983       0              5636.3995      45.917204      20.047001      20.857         19198.915      5712.1334      7392.0083      3805.0569     -1364.9845      1558.3307      1653.7003    
  25592500   262.58044     -352.7757      -275.83103     -352.71134      0              5175.2924      45.856272      20.047001      20.857         19173.438      4487.7011      4422.6343      6615.5417      1779.5854      659.00187     -2153.2796    
  25593000   255.96092     -350.82654     -275.82161     -350.82038      0              3510.0236      46.526139      20.047001      20.857         19453.523      2418.5462      5097.7542      3013.7706     -1328.4539     -623.82135     -929.92668    
  25593500   266.15406     -348.3509      -270.35905     -348.34495      0              1292.7335      46.588636      20.047001      20.857         19479.654      2009.6891      1125.4202      743.09105      1323.6744     -330.35791      552.5876     
  25594000   268.01464     -347.72175     -269.18469     -347.72529      0              4334.3461      46.169639      20.047001      20.857         19304.463      6350.1601      3647.8046      3005.0737      621.44321      532.37322     -1953.6747    
  25594500   260.14435     -350.36839     -274.13757     -350.313        0              3678.0069      46.11571       20.047001      20.857         19281.915      4841.4335      5218.0086      974.57845      1172.2157     -576.1451      -337.42296    
  25595000   262.74557     -348.47495     -271.4819      -348.42496      0              3472.7802      46.243003      20.047001      20.857         19335.138      5288.5275      3107.9972      2021.8157     -190.83684      179.25138      676.24685    
  25595500   267.13119     -345.98785     -267.70966     -345.9901       0              2287.0718      46.307634      20.047001      20.857         19362.162      3407.3986      961.31609      2492.5007     -60.453748     -2101.9977      1523.4427    
  25596000   273.65994     -349.00536     -268.81404     -348.98352      0              7072.1746      46.321508      20.047001      20.857         19367.963      7475.1739      7214.7746      6526.5752     -16.952883      1213.44       -450.64648    
  25596500   262.02368     -350.41618     -273.63466     -350.39183      0              2025.0235      46.313491      20.047001      20.857         19364.611      4248.0168      1590.3541      236.69971     -100.87195      60.311983     -840.67081    
  25597000   261.35948     -350.51321     -273.92632     -350.49205      0              2599.8728      46.237028      20.047001      20.857         19332.64       3317.2187      2948.4478      1533.9518     -431.54752     -444.47245      312.12034    
  25597500   267.57966     -350.80037     -272.39077     -350.73954      0              5436.7395      46.342164      20.047001      20.857         19376.6        7998.0896      5389.422       2922.7068     -434.32596     -2195.9872      1231.2133    
  25598000   262.53794     -348.33356     -271.40135     -348.33319      0              3479.9563      46.627987      20.047001      20.857         19496.108      3671.0633      5430.9193      1337.8861      558.3558       312.94476      387.48961    
  25598500   263.47835     -348.59619     -271.3884      -348.56933      0              2757.6589      46.306693      20.047001      20.857         19361.768      3514.1497      2781.2775      1977.5495     -1039.8155     -1201.749       956.85959    
  25599000   262.41956     -349.6465      -272.74898     -349.62554      0              6269.6951      45.927222      20.047001      20.857         19203.104      8428.5806      5978.466       4402.0386     -360.04193      325.64503     -1611.6122    
  25599500   264.87721     -349.63687     -272.01917     -349.58216      0              4200.1425      46.255898      20.047001      20.857         19340.53       5160.0772      3453.2112      3987.1389     -263.81218      1377.556       1172.3158    
  25600000   258.17041     -348.2251      -272.57272     -348.20141      0              2063.5029      46.5272        20.047001      20.857         19453.967      3688.3575      3506.9347     -1004.7835      63.885887      1255.308      -123.09378    
  25600500   267.18607     -351.30779     -273.01352     -351.23783      0              3263.0371      46.315021      20.047001      20.857         19365.25       1893.5418      2462.2557      5433.314      -440.82247      2041.3457     -115.63342    
  25601000   262.14271     -346.67805     -269.86165     -346.61785      0              5361.9562      45.959127      20.047001      20.857         19216.444      6826.149       4182.2497      5077.4698      30.649018      520.09213     -531.62253    
  25601500   261.98058     -349.6594      -272.89051     -349.60032      0              4301.5696      46.231647      20.047001      20.857         19330.39       5063.1872      6025.448       1816.0737      1078.8624     -1459.6832     -92.211263    
  25602000   263.72433     -351.26754     -273.98768     -351.21649      0              4026.8027      46.591269      20.047001      20.857         19480.755      1299.3222      6849.1438      3931.9421     -920.63417     -289.65922     -381.12399    
  25602500   261.33691     -349.43107     -272.8508      -349.38471      0              6549.3221      46.443858      20.047001      20.857         19419.12       7245.5825      6088.2006      6314.1833     -669.67243      1358.8571      1159.0847    
  25603000   262.2861      -349.49742     -272.63901     -349.48771      0              4942.529       46.078311      20.047001      20.857         19266.277      7095.057       2670.6243      5061.9058      289.6163      -209.73762      3253.8022    
  25603500   262.66856     -354.1831      -277.21261     -354.0614       0              4765.2503      46.083452      20.047001      20.857         19268.427      7178.3809      3310.814       3806.556       156.52347      696.90068      1164.6822    
  25604000   266.95992     -350.95062     -272.72262     -350.85883      0              3383.6579      46.416283      20.047001      20.857         19407.59       4373.1218      5921.16       -143.3082      -612.32059     -1966.5061      2272.0212    
  25604500   260.61165     -349.91118     -273.54343     -349.84759      0              5873.0837      46.595424      20.047001      20.857         19482.492      5748.9613      4512.5639      7357.7258      256.39321      1964.2348      594.16748    
  25605000   262.02778     -352.74876     -275.96604     -352.67666      0              3852.5013      46.422805      20.047001      20.857         19410.317      4938.7103      3508.0474      3110.7463      808.01417      93.414869     -155.99087    
  25605500   259.84719     -351.1298      -274.98607     -351.04874      0              8168.6392      46.178454      20.047001      20.857         19308.149      8492.9676      8600.055       7412.895      -761.42085      1843.1357     -231.83615    
  25606000   263.98393     -353.92502     -276.56909     -353.81659      0              3534.5374      46.261319      20.047001      20.857         19342.796      3893.8505      2968.1198      3741.642      -767.57255      2049.8393     -570.35038    
  25606500   268.19886     -353.62237     -275.03132     -353.48597      0              3302.3644      46.406431      20.047001      20.857         19403.471      4319.6601      2441.6511      3145.7821      756.71605      475.2848       358.28262    
  25607000   264.95316     -349.94714     -272.30718     -349.87022      0              3962.9452      46.58094       20.047001      20.857         19476.437      3413.4158      4020.5218      4454.8981     -795.81419     -1962.6954     -2221.0461    
  25607500   269.2917      -351.01598     -272.10469     -350.96192      0              3722.4768      46.252523      20.047001      20.857         19339.119      5317.7927      4310.1168      1539.5209     -221.51992     -2099.9798      1646.2734    
  25608000   264.21104     -349.18308     -271.7606      -349.09809      0              4153.9009      46.124363      20.047001      20.857         19285.533      5264.9201      3031.1503      4165.6325      309.96159      1303.4771      937.60501    
  25608500   264.39692     -352.56982     -275.09287     -352.50657      0              2951.9733      46.347825      20.047001      20.857         19378.967      3259.5237      3724.129       1872.2673     -675.77933      798.48161     -1133.057     
  25609000   260.83846     -350.2175      -273.78329     -350.1602       0              4326.4005      46.408133      20.047001      20.857         19404.183      5087.241       2935.4276      4956.5328      578.25831     -449.90911      1587.3784    
  25609500   268.02549     -350.86698     -272.32673     -350.78943      0              4922.8638      46.514892      20.047001      20.857         19448.821      3635.0308      6581.2961      4552.2643      1009.0835     -1190.2089      1228.1772    
  25610000   257.7898      -350.87359     -275.33274     -350.77813      0              4306.3744      46.40712       20.047001      20.857         19403.759      4543.6839      5112.6708      3262.7686      294.25559      1077.0848      27.161373    
  25610500   266.60045     -352.00244     -273.87978     -351.92063      0              4821.966       46.619139      20.047001      20.857         19492.408      5952.8315      4052.8986      4460.168       286.29534     -1277.9371      2226.9164    
  25611000   269.22542     -347.33314     -268.44128     -347.27127      0              3444.417       46.790678      20.047001      20.857         19564.132      4970.104       1331.1528      4031.9941     -677.5249       1106.4655     -1322.0367    
  25611500   268.25841     -350.22199     -271.61349     -350.1555       0              2608.293       46.584031      20.047001      20.857         19477.729      4058.4903      1727.8331      2038.5555      1504.3078     -1369.3076     -75.272307    
  25612000   267.19985     -351.80909     -273.51079     -351.74592      0              4699.8601      46.20714       20.047001      20.857         19320.143      7027.1897      3039.0405      4033.3501      945.87353     -2144.5508     -1317.575     
ERROR on proc 0: Cannot open restart file restart.lmp.0: Permission denied (../write_restart.cpp:233)
Last command: run             40000000 upto
