LAMMPS (23 Jun 2022)
echo both

include		in.partitions
variable        pid world 0
include		in.temp
variable	temperature equal 265.0
variable        tempDamp equal 0.100 # this is 0.1 ps
include		in.pressure
variable        pressure equal 5066.25
variable        pressureDamp equal 1.0 #this is 1ps
include		in.seed
variable        seed world 745823

units           metal
atom_style	full
read_restart	restart.lmp.${pid}
read_restart	restart.lmp.0
Reading restart file ...
  restart file = 23 Jun 2022, LAMMPS = 23 Jun 2022
  restoring atom style full from restart
  orthogonal box = (0.50542184 0 0) to (46.945277 20.047001 20.857)
  4 by 1 by 1 MPI processor grid
Summary of lammps deepmd module ...
  >>> Info of deepmd-kit:
  installed to:       /u/sigbjobo/software/DEEPMD_FROM_SOURCE/deepmd-kit/install
  source:             v2.1.3
  source branch:       master
  source commit:      5a32c49
  source commit at:   2022-07-01 09:52:58 +0800
  surpport model ver.:1.1 
  build float prec:   double
  build with tf inc:  /u/sigbjobo/software/DEEPMD_FROM_SOURCE/tensorflow/install/include;/u/sigbjobo/software/DEEPMD_FROM_SOURCE/tensorflow/install/include
  build with tf lib:  /u/sigbjobo/software/DEEPMD_FROM_SOURCE/tensorflow/install/lib/libtensorflow_cc.so;/u/sigbjobo/software/DEEPMD_FROM_SOURCE/tensorflow/install/lib/libtensorflow_framework.so
  set tf intra_op_parallelism_threads: 0
  set tf inter_op_parallelism_threads: 0
  >>> Info of lammps module:
  use deepmd-kit at:  /u/sigbjobo/software/DEEPMD_FROM_SOURCE/deepmd-kit/install
  source:             v2.1.3
  source branch:      master
  source commit:      5a32c49
  source commit at:   2022-07-01 09:52:58 +0800
  build float prec:   double
  build with tf inc:  /u/sigbjobo/software/DEEPMD_FROM_SOURCE/tensorflow/install/include;/u/sigbjobo/software/DEEPMD_FROM_SOURCE/tensorflow/install/include
  build with tf lib:  /u/sigbjobo/software/DEEPMD_FROM_SOURCE/tensorflow/install/lib/libtensorflow_cc.so;/u/sigbjobo/software/DEEPMD_FROM_SOURCE/tensorflow/install/lib/libtensorflow_framework.so
  restoring pair style deepmd from restart
  2268 atoms
Finding 1-2 1-3 1-4 neighbors ...
  special bond factors lj:    0        0        0       
  special bond factors coul:  0        0        0       
     0 = max # of 1-2 neighbors
     0 = max # of 1-3 neighbors
     0 = max # of 1-4 neighbors
     1 = max # of special neighbors
  special bonds CPU = 0.000 seconds
  read_restart CPU = 0.005 seconds
include 	in.setup
variable	out_freq equal 500
variable	out_freq2 equal 1000
variable	out_freq3 equal 5000

timestep        0.0005

neigh_modify    delay 7 every 1

include         in.deepmd
# This is deepMD model

# create groups ###
#group ox type 2
#group hy type 1

mass 2 15.999
mass 1 1.008

pair_style      deepmd ../graph.pb
pair_coeff      * *

bond_style      none
angle_style     none
dihedral_style  none
improper_style  none
neigh_modify exclude none


neighbor        2.0 bin
neigh_modify    every 10 delay 0 check no

thermo          ${out_freq}
thermo          500
thermo_style 	custom step temp pe etotal epair emol press lx ly lz vol pxx pyy pzz pxy pxz pyz
#thermo_modify	flush yes
restart 	${out_freq} restart.lmp.${pid} restart2.lmp.${pid}
restart 	500 restart.lmp.${pid} restart2.lmp.${pid}
restart 	500 restart.lmp.0 restart2.lmp.${pid}
restart 	500 restart.lmp.0 restart2.lmp.0

include		in.dump
dump            myDump all atom ${out_freq3} dump.water.${pid}
dump            myDump all atom 5000 dump.water.${pid}
dump            myDump all atom 5000 dump.water.0
dump            myDump2 all dcd ${out_freq2} dump.dcd.${pid}
dump            myDump2 all dcd 1000 dump.dcd.${pid}
dump            myDump2 all dcd 1000 dump.dcd.0
dump_modify     myDump append yes
dump_modify     myDump2 append yes


timer           timeout 23:50:00 every 1000
New timer settings: style=normal  mode=nosync  timeout=23:50:00

fix             1 all plumed plumedfile plumed.dat outfile plumed.out
fix             3 all nph x ${pressure} ${pressure} ${pressureDamp}
fix             3 all nph x 5066.25 ${pressure} ${pressureDamp}
fix             3 all nph x 5066.25 5066.25 ${pressureDamp}
fix             3 all nph x 5066.25 5066.25 1
fix             4 all temp/csvr ${temperature} ${temperature} ${tempDamp} ${seed}
fix             4 all temp/csvr 265 ${temperature} ${tempDamp} ${seed}
fix             4 all temp/csvr 265 265 ${tempDamp} ${seed}
fix             4 all temp/csvr 265 265 0.1 ${seed}
fix             4 all temp/csvr 265 265 0.1 745823

run             40000000 upto

CITE-CITE-CITE-CITE-CITE-CITE-CITE-CITE-CITE-CITE-CITE-CITE-CITE

Your simulation uses code contributions which should be cited:

- USER-DEEPMD package:

@article{Wang_ComputPhysCommun_2018_v228_p178,
  author = {Wang, Han and Zhang, Linfeng and Han, Jiequn and E, Weinan},
  doi = {10.1016/j.cpc.2018.03.016},
  url = {https://doi.org/10.1016/j.cpc.2018.03.016},
  year = 2018,
  month = {jul},
  publisher = {Elsevier {BV}},
  volume = 228,
  journal = {Comput. Phys. Commun.},
  title = {{DeePMD-kit: A deep learning package for many-body potential energy representation and molecular dynamics}},
  pages = {178--184}
}

CITE-CITE-CITE-CITE-CITE-CITE-CITE-CITE-CITE-CITE-CITE-CITE-CITE

Generated 0 of 1 mixed pair_coeff terms from geometric mixing rule
Neighbor list info ...
  update every 10 steps, delay 0 steps, check no
  max neighbors/atom: 2000, page size: 100000
  master list distance cutoff = 8
  ghost atom cutoff = 8
  binsize = 4, bins = 12 6 6
  1 neighbor lists, perpetual/occasional/extra = 1 0 0
  (1) pair deepmd, perpetual
      attributes: full, newton on
      pair build: full/bin
      stencil: full/bin/3d
      bin: standard
Per MPI rank memory allocation (min/avg/max) = 6.191 | 6.192 | 6.192 Mbytes
   Step          Temp          PotEng         TotEng         E_pair         E_mol          Press            Lx             Ly             Lz           Volume          Pxx            Pyy            Pzz            Pxy            Pxz            Pyz      
  11451000   268.31267     -350.35569     -271.73129     -350.35569      0              4261.3103      46.439855      20.047001      20.857         19417.446      5278.3926      3825.0747      3680.4636      6.6058893      1495.876       1409.6876    
  11451500   267.5498      -348.74631     -270.34546     -348.75389      0              4552.4894      46.219583      20.047001      20.857         19325.346      4415.3421      3639.0764      5603.0496     -329.61337      1263.3665     -143.70281    
  11452000   265.0441      -347.79095     -270.12435     -347.80982      0              5146.913       46.105283      20.047001      20.857         19277.555      7328.3623      3898.872       4213.5048     -104.79167     -601.32748     -1028.0279    
  11452500   266.936       -350.26563     -272.04464     -350.27343      0              5154.5361      46.328511      20.047001      20.857         19370.891      5863.169       3921.9143      5678.5248      442.07204      1136.7896      912.93941    
  11453000   271.41741     -350.12315     -270.58896     -350.15688      0              3300.433       46.589336      20.047001      20.857         19479.947      4197.488       2455.5095      3248.3015      629.08154     -807.55816     -806.67695    
  11453500   273.43198     -349.33868     -269.21416     -349.35111      0              2173.7522      46.445097      20.047001      20.857         19419.638      3163.5658      3915.2801     -557.58918      745.63058      592.62892      1089.3974    
  11454000   270.54082     -349.00587     -269.72855     -348.99164      0              5611.7726      46.053424      20.047001      20.857         19255.871      6639.8723      3552.9825      6642.463       202.04597     -487.02946     -318.59179    
  11454500   262.5068      -349.71089     -272.7878      -349.73194      0              5396.7049      46.447892      20.047001      20.857         19420.806      4995.7122      5993.613       5200.7896      1540.6219     -448.6474      -729.59256    
  11455000   262.17636     -350.17463     -273.34837     -350.18425      0              3908.1953      46.627996      20.047001      20.857         19496.112      3832.2547      2991.3842      4900.947       1126.5403     -447.79737      105.65783    
  11455500   262.13756     -349.11824     -272.30335     -349.13918      0              6001.5096      46.39706       20.047001      20.857         19399.553      6138.893       7022.1205      4843.5154      384.80303      342.28669      568.27216    
  11456000   265.00505     -349.26982     -271.61467     -349.27416      0              2473.827       46.345371      20.047001      20.857         19377.941      4152.5536      2132.2667      1136.6608      214.00544      517.88064      889.37912    
  11456500   260.59309     -350.09109     -273.72878     -350.06368      0              3787.7537      46.532705      20.047001      20.857         19456.268      5472.4724      3740.7268      2150.062      -177.29385      1165.389       874.42734    
  11457000   268.17984     -351.47048     -272.885       -351.48678      0              6259.7671      46.595808      20.047001      20.857         19482.653      5847.5054      7410.7377      5521.0582      590.31419     -1840.8655     -366.84629    
  11457500   263.13271     -350.95717     -273.85067     -350.97306      0              3297.4912      46.499811      20.047001      20.857         19442.515      4366.6303      2632.7542      2893.089      -437.18297      331.57072      273.56525    
  11458000   270.00326     -350.51715     -271.39735     -350.53117      0              2512.2753      46.494204      20.047001      20.857         19440.171      3988.0579      2436.6634      1112.1047     -1319.7103      506.5715      -1250.2963    
  11458500   267.39354     -348.84127     -270.48621     -348.83573      0              7139.8597      46.375222      20.047001      20.857         19390.422      8381.1263      4818.3617      8220.0911     -143.78838      2072.3721     -1517.5903    
  11459000   258.65042     -348.49649     -272.70345     -348.49673      0              4833.1477      46.429611      20.047001      20.857         19413.163      5998.6135      4941.8124      3559.017      -1116.2776      1411.4834      1226.2011    
  11459500   262.03728     -348.92772     -272.14221     -348.91437      0              1555.9985      46.52883       20.047001      20.857         19454.648      2898.1253      1431.9794      337.89076     -72.961013      325.77891      342.4513     
  11460000   271.3318      -348.21134     -268.70224     -348.21074      0              3705.0973      46.572832      20.047001      20.857         19473.046      4273.9104      2456.5296      4384.8519      2320.0596      102.92715     -688.17184    
  11460500   262.94726     -346.40792     -269.35576     -346.41542      0              4775.9962      46.379309      20.047001      20.857         19392.131      3416.1788      6338.2289      4573.581       1172.8754     -838.47074      1429.4151    
  11461000   268.80702     -346.42703     -267.65777     -346.44399      0              4166.5996      46.132305      20.047001      20.857         19288.853      6121.2728      2108.2728      4270.2533     -183.04352      560.06032     -201.11015    
  11461500   268.18477     -345.08635     -266.49943     -345.1003       0              3920.4736      46.509693      20.047001      20.857         19446.647      3410.6046      4110.5154      4240.301       1396.4074     -140.63485      133.15649    
  11462000   260.4562      -345.34599     -269.02379     -345.34611      0              3126.972       46.819366      20.047001      20.857         19576.128      4206.0911      5480.7548     -305.92987     -506.79608     -572.76063     -643.37965    
  11462500   269.33635     -350.88839     -271.96402     -350.89875      0              4936.1849      46.410841      20.047001      20.857         19405.315      5704.0891      3983.2545      5121.2112      595.02404     -485.87473      25.278954    
  11463000   269.07656     -349.62456     -270.77631     -349.6172       0              6262.3559      46.03336       20.047001      20.857         19247.482      5691.8469      6501.2713      6593.9495     -332.97327      24.095001     -1466.4557    
  11463500   265.72182     -347.27429     -269.4091      -347.24957      0              3962.0876      46.307429      20.047001      20.857         19362.076      3318.4097      4764.6265      3803.2266      88.302385      1094.3642     -744.66478    
  11464000   263.27925     -346.05603     -268.90659     -346.06215      0              4812.4698      46.385187      20.047001      20.857         19394.588      6293.871       3541.8629      4601.6755     -977.52827      545.99543      1105.9875    
  11464500   262.73599     -349.23305     -272.2428      -349.22216      0              3008.9726      46.435185      20.047001      20.857         19415.493      2908.139       4501.0401      1617.7385      175.34826     -362.75782     -1253.9944    
  11465000   265.35795     -351.30282     -273.54425     -351.33114      0              3551.4233      46.357403      20.047001      20.857         19382.971      4003.5824      4424.6686      2226.0189     -442.8933       179.72939     -230.28359    
  11465500   258.17314     -351.5006      -275.84742     -351.49109      0              3777.5673      46.392887      20.047001      20.857         19397.808      4233.3333      2334.5075      4764.8611      869.43692     -1727.0969     -148.61364    
  11466000   267.11202     -349.48152     -271.20895     -349.47683      0              4162.6236      46.49326       20.047001      20.857         19439.776      3115.6869      5972.3963      3399.7876     -570.70343      77.947077     -84.924257    
  11466500   267.37813     -350.27593     -271.92539     -350.27809      0              3962.4978      46.386859      20.047001      20.857         19395.288      5078.0615      5034.9445      1774.4875     -466.76358      31.044087     -498.22276    
  11467000   269.1128      -351.22131     -272.36244     -351.21624      0              6963.1974      46.335413      20.047001      20.857         19373.777      7862.4061      6868.4343      6158.7519     -1956.8849      876.11987     -96.224202    
  11467500   267.75693     -351.11041     -272.64886     -351.09834      0              3971.5505      46.259389      20.047001      20.857         19341.99       5629.0081      5200.6338      1085.0096      912.14942      747.48636     -2704.4694    
  11468000   266.43012     -350.15611     -272.08336     -350.13756      0              4205.4279      46.451137      20.047001      20.857         19422.163      4148.9937      4714.1759      3753.1141     -186.51475     -332.8254      -1724.3343    
  11468500   260.61536     -348.60025     -272.23141     -348.55573      0              3699.8497      46.405082      20.047001      20.857         19402.907      3509.1986      2730.5955      4859.7552      644.79108      1152.0345      1729.3065    
  11469000   260.80488     -352.19681     -275.77244     -352.17573      0              3581.4512      46.311946      20.047001      20.857         19363.965      4971.2032      4327.8367      1445.3138     -926.2373       700.39782     -1848.5769    
  11469500   259.72642     -350.41666     -274.30831     -350.4266       0              4679.6667      46.326408      20.047001      20.857         19370.012      6732.5255      4923.0359      2383.4387     -1591.4065      194.66879      49.005733    
  11470000   258.01874     -347.41497     -271.80703     -347.4234       0              2936.8661      46.207571      20.047001      20.857         19320.323      4025.6798      1198.4113      3586.5073     -372.26873     -448.84443     -1335.0668    
  11470500   260.85531     -348.36305     -271.9239      -348.36574      0              6779.6662      46.040699      20.047001      20.857         19250.551      11190.089      3563.3027      5585.6069     -338.71345     -900.93377     -671.21166    
  11471000   256.34282     -349.52483     -274.40799     -349.51296      0              4372.7574      46.412335      20.047001      20.857         19405.939      7101.7859      1256.7513      4759.7349      532.04034     -448.55896     -868.58996    
  11471500   263.82866     -350.20006     -272.88962     -350.18127      0              4168.3184      46.699925      20.047001      20.857         19526.186      3788.2101      6071.4461      2645.2991     -738.36684      202.80161     -259.36613    
  11472000   261.65119     -350.86716     -274.19479     -350.85536      0              6497.7119      46.462368      20.047001      20.857         19426.859      4858.9234      6407.0109      8227.2014      900.28884     -417.1947       1382.6049    
  11472500   258.12654     -350.86673     -275.2272      -350.86396      0              4733.5396      46.058646      20.047001      20.857         19258.055      6709.162       3123.6347      4367.8221      1612.2693      614.23525     -430.13181    
  11473000   260.11762     -349.79863     -273.57565     -349.81169      0              5392.562       46.406926      20.047001      20.857         19403.678      7382.7668      5653.3328      3141.5866     -842.05479      969.91748      2410.0044    
  11473500   258.76654     -348.44134     -272.61428     -348.45649      0              3400.8563      46.789445      20.047001      20.857         19563.617      1407.7101      6036.278       2758.5807      1166.946      -1512.8478     -1452.4877    
  11474000   261.18499     -351.85191     -275.31615     -351.83648      0              4929.8755      46.357777      20.047001      20.857         19383.128      7232.6468      3608.1927      3948.787      -2151.1074     -847.97056      895.05775    
  11474500   264.10488     -349.26104     -271.86966     -349.26618      0              5729.3403      46.111197      20.047001      20.857         19280.028      2996.4609      8081.5531      6110.0069      536.35276      1087.2741      131.96225    
  11475000   270.15833     -349.10932     -269.94408     -349.163        0              3577.6818      46.266486      20.047001      20.857         19344.957      2971.2132      3951.8956      3809.9367      872.99742     -1120.5729     -767.05461    
  11475500   263.66767     -349.4584      -272.19514     -349.45452      0              3836.9029      46.385639      20.047001      20.857         19394.777      4073.8888      3006.0442      4430.7758     -427.11299      635.7989      -8.7635556    
  11476000   272.47946     -348.52367     -268.67827     -348.53392      0              5974.2782      46.430756      20.047001      20.857         19413.642      5772.6198      7045.6434      5104.5715      931.22884     -1766.3089      310.10152    
  11476500   265.96242     -349.42997     -271.49427     -349.4439       0              4716.3044      46.589297      20.047001      20.857         19479.931      4634.9098      4270.0996      5243.9039     -1021.9029      15.959823      1370.489     
  11477000   269.67195     -347.10664     -268.08393     -347.09684      0              5795.7145      46.632941      20.047001      20.857         19498.179      5615.0085      5686.6187      6085.5164     -1390.3442     -570.109        1194.4655    
  11477500   263.60429     -351.05892     -273.81423     -351.04677      0              6116.4134      46.49591       20.047001      20.857         19440.884      4451.4317      8511.0418      5386.7667     -861.39986      226.55542     -1065.0956    
  11478000   269.48749     -349.85605     -270.88739     -349.86938      0              4479.4123      46.172185      20.047001      20.857         19305.528      5564.6373      3149.1177      4724.4818      1743.8976     -347.42601     -510.32287    
  11478500   270.39789     -350.35337     -271.11793     -350.36036      0              6212.0169      46.171102      20.047001      20.857         19305.075      7288.443       7136.7641      4210.8435     -74.772212      54.811846      853.04078    
  11479000   264.43992     -350.89748     -273.40792     -350.89977      0              4624.4557      46.362319      20.047001      20.857         19385.027      4016.6107      3186.9637      6669.7926     -1200.0949      280.74621      248.53253    
  11479500   266.8883      -351.2281      -273.02108     -351.23064      0              4275.1623      46.465519      20.047001      20.857         19428.177      3244.1291      4859.8805      4721.4772     -867.48271     -1156.5813      904.46785    
  11480000   260.75845     -351.38582     -274.97506     -351.39705      0              4315.5292      46.305595      20.047001      20.857         19361.309      4486.0422      4199.4881      4261.0575     -135.12385      484.50666     -1047.67      
  11480500   273.71568     -352.58012     -272.37247     -352.57429      0              5303.8969      45.941784      20.047001      20.857         19209.192      6076.5802      5515.1947      4319.9158      1015.1479      4.0991045      1848.0333    
  11481000   273.01918     -348.47982     -268.47626     -348.50421      0              5330.8968      46.452748      20.047001      20.857         19422.837      7314.3113      1466.134       7212.245      -189.50646     -973.86607     -105.40053    
  11481500   271.25149     -351.09215     -271.60658     -351.10403      0              2528.1753      47.128939      20.047001      20.857         19705.566     -424.6606       5165.4008      2843.7856      105.70769      1110.1287      823.87107    
  11482000   274.25263     -349.73924     -269.37424     -349.74209      0              6325.7023      46.636728      20.047001      20.857         19499.763      5649.0279      6222.6916      7105.3873     -506.12279     -246.55978      512.14429    
  11482500   269.41704     -351.32901     -272.381       -351.32634      0              4691.3921      46.352185      20.047001      20.857         19380.789      5994.0592      3611.9751      4468.1419      45.708605     -1090.8258      255.52663    
  11483000   267.18276     -351.80086     -273.50756     -351.81394      0              4902.3883      46.383617      20.047001      20.857         19393.932      6322.2231      4024.8296      4360.1121      156.17541     -204.46836     -1207.4867    
  11483500   267.72307     -349.63291     -271.18129     -349.637        0              5091.0662      46.373405      20.047001      20.857         19389.662      3989.6182      6057.3323      5226.2482      972.47776      650.63683      1681.4784    
  11484000   266.15162     -348.99047     -270.99933     -348.98233      0              6546.713       46.293574      20.047001      20.857         19356.283      8709.317       4996.7633      5934.0587      397.676       -709.21593      121.27475    
  11484500   261.3514      -352.04981     -275.46529     -352.07337      0              4833.9892      46.258036      20.047001      20.857         19341.424      4892.2471      6194.582       3415.1385      134.80672     -402.11773     -591.07687    
  11485000   260.95964     -352.55328     -276.08356     -352.55685      0              6581.6852      46.087581      20.047001      20.857         19270.153      8829.846       6820.6833      4094.5261      378.50078      269.08356     -704.12824    
  11485500   258.4427      -352.71069     -276.97852     -352.73728      0              3053.829       46.418776      20.047001      20.857         19408.632      1797.5881      3714.6177      3649.2811     -403.6394      -370.06346     -985.19068    
  11486000   266.1386      -354.12941     -276.14209     -354.11495      0              2354.5147      46.347004      20.047001      20.857         19378.623      2775.268       2461.7103      1826.5658      1052.6503      209.15802     -2087.4908    
  11486500   264.53918     -351.36489     -273.84625     -351.35298      0              4379.8489      46.15163       20.047001      20.857         19296.933      4512.4729      5442.8373      3184.2364     -20.964066      40.594419     -503.25242    
  11487000   269.79464     -352.71942     -273.66076     -352.71351      0              4819.4489      46.411229      20.047001      20.857         19405.477      6587.0462      3018.9744      4852.3261      825.97922      150.14666     -866.91624    
  11487500   266.18734     -353.28975     -275.28815     -353.29496      0              2303.4671      46.554116      20.047001      20.857         19465.221      2276.0841      2525.4586      2108.8586      393.70603      571.46417      637.04712    
  11488000   262.8437      -352.04806     -275.02625     -352.0496       0              3497.5445      46.267074      20.047001      20.857         19345.203      5426.6142      2385.4169      2680.6022      4.4526942     -651.28194     -561.44767    
  11488500   259.10515     -350.8185      -274.8922      -350.83443      0              6480.6684      46.294603      20.047001      20.857         19356.713      6797.6203      4813.9027      7830.4821     -2035.2419      213.31693     -206.13103    
  11489000   268.96536     -350.07826     -271.2626      -350.09922      0              5240.5089      46.610477      20.047001      20.857         19488.787      6355.5796      4284.7548      5081.1921      897.45621      65.606545      916.18938    
  11489500   261.59871     -348.9275      -272.27051     -348.94285      0              5001.1348      46.659557      20.047001      20.857         19509.308      5583.008       5754.5526      3665.8439      1259.4236      1814.6434      841.66814    
  11490000   263.6758      -350.71511     -273.44946     -350.71207      0              6001.086       46.395355      20.047001      20.857         19398.84       7022.9319      4657.6724      6322.6536     -389.71152     -434.44668      355.57098    
  11490500   278.82245     -351.59666     -269.89255     -351.6043       0              3378.9257      46.368872      20.047001      20.857         19387.767      3074.9021      6236.898       824.97695     -91.931771     -669.40704      862.78724    
  11491000   262.95426     -350.91959     -273.86538     -350.92866      0              4061.1122      46.502412      20.047001      20.857         19443.603      5959.542       3433.4565      2790.338      -437.98721      834.01375     -776.77007    
  11491500   266.1556      -352.58888     -274.59657     -352.58822      0              4503.9431      46.479947      20.047001      20.857         19434.209      5016.5449      3565.8394      4929.445      -377.38267     -55.98178       1017.4855    
  11492000   257.46487     -350.91159     -275.46595     -350.92971      0              6211.9268      46.329023      20.047001      20.857         19371.105      6244.955       5818.9247      6571.9008      484.91884     -748.20746     -494.65636    
  11492500   260.91299     -349.00438     -272.54834     -349.00082      0              4043.118       46.466824      20.047001      20.857         19428.723      4610.2684      3313.5896      4205.4961     -1206.2479     -1430.8503      664.69715    
  11493000   258.84045     -348.84133     -272.9926      -348.83952      0              2726.1703      46.446576      20.047001      20.857         19420.256      2066.5978      4199.7597      1912.1534      1396.8908     -615.67451      938.15343    
  11493500   269.15421     -351.82943     -272.95843     -351.82361      0              5531.5539      46.370234      20.047001      20.857         19388.336      7739.3371      3703.9981      5151.3265     -659.56548     -745.18348      963.17664    
  11494000   264.64272     -349.97341     -272.42443     -349.96182      0              5400.0552      46.308804      20.047001      20.857         19362.651      5273.9763      6243.535       4682.6542      864.05131      637.76957      1497.2773    
  11494500   268.82161     -350.93169     -272.15816     -350.91571      0              2960.2377      46.384955      20.047001      20.857         19394.491      953.46023      4118.078       3809.175      -97.583623     -564.44707     -115.47847    
  11495000   265.70113     -352.80497     -274.94584     -352.81459      0              3694.8994      46.41269       20.047001      20.857         19406.088      3444.0075      3828.6952      3811.9955      1271.834      -1388.8027      350.19215    
  11495500   267.12348     -351.1239      -272.84797     -351.11964      0              5630.7878      46.297232      20.047001      20.857         19357.812      7883.3994      5079.1967      3929.7673      588.59259      576.76239     -423.97684    
  11496000   260.91706     -352.74399     -276.28674     -352.73619      0              6038.3209      46.287303      20.047001      20.857         19353.661      6112.5159      7539.7344      4462.7124      690.16011     -186.22634     -129.05447    
  11496500   257.21795     -352.40591     -277.03262     -352.4392       0              3692.6588      46.40624       20.047001      20.857         19403.391      5082.3975      2935.4823      3060.0966     -992.02159     -608.38329     -474.17772    
  11497000   266.05606     -352.23246     -274.26932     -352.25279      0              5443.9523      46.448292      20.047001      20.857         19420.974      6481.5691      5245.2322      4605.0555     -301.63031     -565.64272      103.79221    
  11497500   259.03172     -348.36818     -272.4634      -348.37537      0              5160.7699      46.366983      20.047001      20.857         19386.977      5944.9291      5364.6641      4172.7166      41.36363       533.50226     -1339.0162    
  11498000   264.55629     -350.17495     -272.65129     -350.17279      0              4487.429       46.302345      20.047001      20.857         19359.95       3763.2047      3959.8817      5739.2006     -120.42343     -148.17317     -740.42294    
  11498500   264.17262     -348.59541     -271.18418     -348.60618      0              1872.4383      46.46261       20.047001      20.857         19426.96       1018.6612      2467.6612      2130.9925     -678.40228     -387.10351      319.94751    
  11499000   256.07145     -349.04603     -274.00871     -349.05038      0              5727.7018      46.511591      20.047001      20.857         19447.44       5717.6727      6902.9709      4562.4618     -1222.2931     -258.86281     -406.22308    
  11499500   267.50416     -350.90348     -272.516       -350.89766      0              6963.5037      46.375664      20.047001      20.857         19390.606      9668.5783      4666.4241      6555.5087      1108.5147      762.55007      310.24649    
  11500000   266.56373     -347.88513     -269.77323     -347.90228      0              3776.842       46.317128      20.047001      20.857         19366.132      5100.8328      4634.549       1595.1443     -1163.1941     -1117.479       1487.147     
  11500500   279.31291     -348.98379     -267.13596     -349.00067      0              6561.1747      46.398701      20.047001      20.857         19400.239      7762.4096      5271.6175      6649.4971      1074.2957     -451.5773       1387.5188    
  11501000   267.62113     -350.41305     -271.99129     -350.39916      0              2492.6488      46.45541       20.047001      20.857         19423.95       1838.8712      1775.497       3863.5781     -885.40843     -1088.1197     -1741.6803    
  11501500   263.17976     -350.24584     -273.12556     -350.24708      0              7263.2222      46.300555      20.047001      20.857         19359.202      10467.326      5430.5577      5891.7831     -282.48022      819.2957       942.25177    
  11502000   273.29187     -350.73455     -270.65108     -350.74647      0              7564.5651      46.425274      20.047001      20.857         19411.349      9381.4147      7550.6495      5761.6313      238.39057     -70.447694     -665.27367    
  11502500   266.5349      -350.12673     -272.02328     -350.14501      0              1159.8696      46.355106      20.047001      20.857         19382.011      961.45341      303.62828      2214.5271      94.846737     -288.57342     -151.37758    
  11503000   270.2761      -353.37591     -274.17616     -353.38596      0              5516.9326      46.219254      20.047001      20.857         19325.208      6140.9768      3889.0947      6520.7264     -1266.9484      1432.5086      420.71851    
  11503500   266.23239     -348.5659      -270.55109     -348.58513      0              4345.7644      46.303805      20.047001      20.857         19360.561      4575.6036      4573.7473      3887.9423     -212.94144     -903.21001     -595.10321    
  11504000   263.61847     -350.89907     -273.65023     -350.96234      0              1908.9512      46.494255      20.047001      20.857         19440.192      1230.124       3254.6934      1242.036       606.00284      459.53131      248.04713    
  11504500   266.79473     -351.81487     -273.63528     -351.81023      0              6164.8382      46.182111      20.047001      20.857         19309.678      7905.741       4771.1057      5817.6678      21.102939      1983.5284     -505.77211    
  11505000   273.58102     -350.13054     -269.96234     -350.13042      0              5851.5748      46.020335      20.047001      20.857         19242.036      6345.1387      6784.0624      4425.5232     -577.62953      804.65583      996.48609    
  11505500   257.68833     -351.26852     -275.7574      -351.255        0              4019.4054      46.106618      20.047001      20.857         19278.113      2742.328       6566.3541      2749.5341      406.23265     -1008.3267      601.864      
  11506000   270.38708     -350.69977     -271.4675      -350.69644      0              3914.6822      46.121105      20.047001      20.857         19284.17       4353.7253      3579.0303      3811.2911      268.15469      113.7124       377.47893    
  11506500   270.4132      -352.44873     -273.20881     -352.42636      0              4415.2578      46.078281      20.047001      20.857         19266.265      5231.5865      4372.2708      3641.9159     -81.843585      1445.6719      731.08048    
  11507000   273.00256     -350.28668     -270.28798     -350.29456      0              4619.7454      46.312039      20.047001      20.857         19364.004      3699.6065      5630.7143      4528.9153     -3.2596339      877.19255      123.89242    
  11507500   263.77819     -349.65162     -272.35597     -349.66835      0              4344.2365      46.340767      20.047001      20.857         19376.015      5101.7772      4707.2522      3223.6801      243.57108     -352.75573     -840.99157    
  11508000   259.16474     -351.09334     -275.14958     -351.09586      0              5766.6524      46.279423      20.047001      20.857         19350.366      6732.1974      4902.7293      5665.0306      744.2722       2050.5211     -1755.1812    
  11508500   262.85519     -349.90315     -272.87797     -349.906        0              5318.0192      46.252805      20.047001      20.857         19339.237      5843.5103      5725.9677      4384.5795     -1316.9533     -674.49609     -410.2659     
  11509000   265.17637     -351.64382     -273.93846     -351.65334      0              4261.5519      46.279781      20.047001      20.857         19350.516      3615.5929      5357.9556      3811.1071      1152.6887      7.5872157      693.59946    
  11509500   263.5454      -348.44414     -271.21671     -348.44041      0              4777.2549      46.200677      20.047001      20.857         19317.441      7820.1859      1699.6749      4811.9041      280.59684      534.01026     -151.37662    
  11510000   262.01037     -350.10386     -273.32624     -350.1066       0              5417.7779      46.445385      20.047001      20.857         19419.758      6152.8117      5645.6083      4454.9138     -538.00538      231.58747     -2244.6909    
  11510500   263.84518     -349.60707     -272.29179     -349.63434      0              3170.4548      46.637152      20.047001      20.857         19499.94       4160.8536      2774.216       2576.2947      974.04815     -92.779386     -2202.8275    
  11511000   265.379       -351.16671     -273.40197     -351.17996      0              5107.5862      46.124212      20.047001      20.857         19285.469      2789.3468      5104.627       7428.7846     -882.3282       628.69948      783.78502    
  11511500   265.34108     -351.52698     -273.77336     -351.5459       0              5959.3263      45.880476      20.047001      20.857         19183.559      5084.3798      6376.5437      6417.0554     -1299.2124      1626.0331     -1334.4692    
  11512000   266.0891      -351.09817     -273.12535     -351.12125      0              4559.371       46.258665      20.047001      20.857         19341.687      5132.1476      4957.6183      3588.3472     -538.17636      71.375312      1070.8085    
  11512500   270.35768     -350.06472     -270.84107     -350.04637      0              4519.9735      46.460845      20.047001      20.857         19426.222      4689.2009      6268.2792      2602.4404     -511.90902     -39.986485      66.762161    
  11513000   268.13124     -351.11507     -272.54383     -351.11342      0              5419.2221      46.278065      20.047001      20.857         19349.798      6311.8162      5753.9827      4191.8673      861.54166     -14.24009      -214.28756    
  11513500   268.91167     -353.36468     -274.56475     -353.35918      0              3224.3043      46.08133       20.047001      20.857         19267.539      3383.6772      3283.5117      3005.7241     -1687.7158     -67.734633     -372.92003    
  11514000   273.00422     -349.35021     -269.35104     -349.33666      0              7664.1112      46.130807      20.047001      20.857         19288.227      9504.1122      7547.192       5941.0293      342.67069     -15.327278     -284.61608    
  11514500   263.8696      -350.53387     -273.21143     -350.53681      0              3539.7843      46.505819      20.047001      20.857         19445.027      2496.3887      5232.9284      2890.0359     -532.56197      1537.3784      1748.4816    
  11515000   264.61182     -347.37681     -269.83688     -347.39227      0              2187.9073      46.340369      20.047001      20.857         19375.849      2898.7581      2185.7028      1479.261       377.1128      -887.22659      650.98254    
  11515500   263.43299     -350.43582     -273.24133     -350.43196      0              6010.9809      46.059043      20.047001      20.857         19258.221      6813.1321      6055.5716      5164.2391      872.71104      891.5131       3096.128     
  11516000   259.50477     -352.14083     -276.09744     -352.14606      0              4592.3077      46.246963      20.047001      20.857         19336.794      6019.2341      3964.7443      3792.9446     -804.84904      209.17922     -1467.2153    
  11516500   257.21231     -350.64938     -275.27775     -350.6579       0              2617.6782      46.443931      20.047001      20.857         19419.15       677.64585      4418.1728      2757.2161      1028.6825     -328.90127     -2149.5751    
  11517000   264.89435     -347.76108     -270.13835     -347.77535      0              4563.3859      46.362277      20.047001      20.857         19385.009      3953.7656      7098.2639      2638.1282     -498.26813      1450.3541      933.67432    
  11517500   272.15741     -348.70241     -268.95138     -348.70336      0              4531.0617      46.106999      20.047001      20.857         19278.272      3059.0706      3854.6559      6679.4587     -438.4345       1471.7308     -558.12791    
  11518000   271.7825      -353.35372     -273.71255     -353.33758      0              4027.3207      46.10229       20.047001      20.857         19276.303      3940.9139      4491.0306      3650.0176     -403.96851      625.68407      2205.9314    
  11518500   270.85335     -352.22994     -272.86104     -352.2262       0              4942.778       46.31904       20.047001      20.857         19366.931      5981.5471      5206.6241      3640.1629      126.39502     -554.577       -241.83374    
  11519000   261.44722     -351.16461     -274.55201     -351.12719      0              1519.5178      46.404052      20.047001      20.857         19402.476      2942.3794      1614.3923      1.7816309      915.62124      647.97816     -157.69108    
  11519500   268.30152     -348.82308     -270.20194     -348.83526      0              5950.9433      46.164807      20.047001      20.857         19302.443      6516.3926      5345.1013      5991.3361     -627.3242       1892.2774      467.23429    
  11520000   263.97561     -351.67642     -274.32292     -351.62942      0              5947.7072      46.192525      20.047001      20.857         19314.032      7267.2374      4703.1471      5872.7371     -1049.1343     -559.72275      106.82376    
  11520500   259.36432     -349.05046     -273.04823     -349.02309      0              2831.9038      46.368837      20.047001      20.857         19387.752      2148.9615      2670.9461      3675.8039      749.49196      696.55976      1617.1648    
  11521000   260.73553     -350.56732     -274.16327     -350.5278       0              4152.5806      46.144895      20.047001      20.857         19294.117      4099.5862      5489.7176      2868.4381     -135.44415      206.88719     -404.13905    
  11521500   261.11785     -349.95333     -273.43725     -349.92105      0              5027.4069      46.068212      20.047001      20.857         19262.055      8194.275       2545.6713      4342.2745      873.21504      792.32102     -1058.9112    
  11522000   256.30728     -349.06834     -273.96191     -349.01985      0              3277.0468      46.437865      20.047001      20.857         19416.614      4703.3579      3603.4725      1524.31        445.0891      -1291.9942     -902.73167    
  11522500   266.73292     -349.67682     -271.51534     -349.62483      0              6195.8706      46.402187      20.047001      20.857         19401.696      7031.0247      4940.4357      6616.1513      1922.5938     -288.24017      612.65343    
  11523000   272.2628      -347.09043     -267.30851     -347.07068      0              5352.7621      45.966517      20.047001      20.857         19219.534      7666.4966      4473.6756      3918.1142     -1211.5493      10.748633     -1239.7174    
  11523500   267.34692     -350.72036     -272.37896     -350.68971      0              4912.4256      46.17492       20.047001      20.857         19306.671      5902.9034      4091.2677      4743.1057      94.645999      1108.753      -1129.9191    
  11524000   263.19653     -349.97205     -272.84685     -349.97148      0              3237.5407      46.459077      20.047001      20.857         19425.483      5002.5132      2724.3871      1985.7217     -1425.0688      880.22709      1213.3045    
  11524500   271.36113     -349.08829     -269.57059     -349.09249      0              4493.0914      46.212058      20.047001      20.857         19322.2        5352.9502      3960.1207      4166.2032      1610.5215      1441.9607     -575.87499    
  11525000   269.52842     -350.40104     -271.42039     -350.36243      0              6225.1702      45.92643       20.047001      20.857         19202.773      7350.007       4942.2065      6383.2972     -302.34176      767.25612      999.3249     
  11525500   259.29554     -348.11513     -272.13304     -348.08357      0              5131.4437      46.073253      20.047001      20.857         19264.162      7118.0605      4710.5548      3565.7158      1055.9066     -93.711932      1201.842     
  11526000   268.19802     -349.73137     -271.14057     -349.70828      0              5271.7823      46.450644      20.047001      20.857         19421.957      5591.1137      5175.0277      5049.2056     -222.56041     -162.13018      785.8867     
  11526500   262.77908     -348.90253     -271.89965     -348.90396      0              4175.8411      46.362974      20.047001      20.857         19385.301      6803.0616      2018.3711      3706.0905     -776.22186      158.51459      471.29515    
  11527000   263.84867     -349.55801     -272.24171     -349.5707       0              3200.8858      46.094223      20.047001      20.857         19272.931      1734.8798      5165.3059      2702.4718     -634.75713     -623.45503      162.36484    
  11527500   255.01204     -352.21003     -277.48315     -352.21746      0              6482.7662      46.207041      20.047001      20.857         19320.102      5974.921       8595.2003      4878.1774     -66.625442      1271.8785      1116.0553    
  11528000   256.04117     -351.39696     -276.36851     -351.39557      0              4343.6668      46.22799       20.047001      20.857         19328.861      3748.7511      3148.38        6133.8693     -262.45344     -507.04372      372.35124    
  11528500   264.85248     -351.25489     -273.64444     -351.22035      0              7546.1518      46.144001      20.047001      20.857         19293.744      8675.1404      5760.1227      8203.1924      675.40619      357.55874     -847.60282    
  11529000   269.41735     -348.36352     -269.41541     -348.37105      0              3913.9213      46.129092      20.047001      20.857         19287.51       5550.7658      2616.0613      3574.9369     -1244.4041      17.292293      662.4823     
  11529500   267.02189     -353.18883     -274.94267     -353.14732      0              3299.0958      46.217415      20.047001      20.857         19324.439      4760.5204      1346.5206      3790.2465      242.28646     -462.23116      231.87245    
  11530000   256.75925     -350.83243     -275.59356     -350.8071       0              6480.2193      46.351347      20.047001      20.857         19380.439      5927.569       7508.6833      6004.4057      915.49135      1516.3425     -1767.824     
  11530500   266.39604     -349.53982     -271.47706     -349.49279      0              6378.9324      46.241702      20.047001      20.857         19334.594      6375.7518      6894.4997      5866.5457      1673.1158      483.33079      1298.656     
  11531000   256.98461     -347.35538     -272.05048     -347.33146      0              3443.1313      46.447283      20.047001      20.857         19420.552      4209.3219      2738.0843      3381.9876      824.82404      2539.7628     -884.30096    
  11531500   259.82858     -348.74256     -272.60427     -348.69967      0              2605.5588      46.486379      20.047001      20.857         19436.899      3946.0674      1150.813       2719.7961      576.65302     -825.12679     -1283.0257    
  11532000   262.23844     -349.49612     -272.65167     -349.47021      0              4543.7498      46.319653      20.047001      20.857         19367.187      4313.7762      3934.1193      5383.354       465.06909      27.4878       -314.5184     
  11532500   268.75942     -351.14617     -272.39086     -351.10345      0              6072.756       46.094879      20.047001      20.857         19273.205      6980.5771      8175.8812      3061.8096     -162.58946      1008.3809     -6.0131644    
  11533000   263.64769     -350.30768     -273.05027     -350.29841      0              5816.3017      46.076562      20.047001      20.857         19265.546      3923.0759      6412.4848      7113.3443     -930.03019     -184.46097     -678.38059    
  11533500   266.08563     -346.58889     -268.61709     -346.57816      0              4574.28        46.522131      20.047001      20.857         19451.847      2852.2257      4666.9669      6203.6474     -303.90231      756.03199     -170.06131    
  11534000   268.90998     -350.21798     -271.41855     -350.17718      0              5115.1996      46.605743      20.047001      20.857         19486.807      5790.8069      4466.0161      5088.7758     -1676.9903     -308.71214      1361.697     
  11534500   268.56796     -351.69002     -272.99081     -351.65627      0              3986.5281      46.354708      20.047001      20.857         19381.844      4492.3667      5575.3406      1891.8769      685.69957      1639.3833     -1720.0044    
  11535000   267.89134     -347.4014      -268.90047     -347.39901      0              2401.3459      46.223652      20.047001      20.857         19327.047      2443.6189      1558.8116      3201.6071     -521.06044     -1303.3656     -523.50945    
  11535500   257.45639     -349.27307     -273.82992     -349.21667      0              4157.3393      46.487129      20.047001      20.857         19437.212      3402.3872      6415.6613      2653.9694     -595.17715      1997.4558     -1184.0239    
  11536000   260.69966     -349.27055     -272.87701     -349.25343      0              4955.0603      46.467453      20.047001      20.857         19428.985      6516.0451      4320.815       4028.3208     -113.64659      1825.5224      1194.3263    
  11536500   266.50722     -346.7785      -268.68316     -346.75107      0              4746.1561      46.04857       20.047001      20.857         19253.842      4097.9016      5420.564       4720.0027      79.099532      335.19612      221.02284    
  11537000   270.30229     -350.20437     -270.99695     -350.16535      0              4499.1837      46.039632      20.047001      20.857         19250.105      6420.2187      3218.612       3858.7203      1029.5465     -1218.3118      1846.3079    
  11537500   262.18982     -351.15536     -274.32516     -351.12969      0              3100.2027      46.304198      20.047001      20.857         19360.725      3117.2286      2671.7734      3511.6063     -825.35909      1264.7693     -99.060149    
  11538000   268.79609     -351.16872     -272.40267     -351.14513      0              4121.7786      46.235315      20.047001      20.857         19331.924      4416.0985      2727.7371      5221.5003     -425.03334     -1441.1808     -2667.2881    
  11538500   263.19187     -349.08429     -271.96045     -349.06378      0              6464.9953      46.179274      20.047001      20.857         19308.492      7184.8342      8010.212       4199.9399     -1374.1138      381.54571     -423.28944    
  11539000   261.79993     -347.03525     -270.3193      -347.04875      0              4929.7583      46.516765      20.047001      20.857         19449.604      5778.7844      4753.154       4257.3364      348.62887     -848.88361      680.4951     
  11539500   271.37144     -351.40291     -271.88219     -351.40679      0              3520.0187      46.624828      20.047001      20.857         19494.787      5468.3684      2600.1714      2491.5164     -663.18765     -289.81902     -495.08743    
  11540000   259.4249      -352.54861     -276.52862     -352.55294      0              4103.9368      46.464983      20.047001      20.857         19427.953      3455.6961      3606.9069      5249.2075      172.16511     -2065.9276     -220.93713    
  11540500   261.24375     -352.62849     -276.07552     -352.63778      0              5404.4522      46.360433      20.047001      20.857         19384.238      5574.2877      4034.6214      6604.4476      108.35485      337.14522     -258.12742    
  11541000   253.62234     -350.93731     -276.61766     -350.92155      0              3256.5136      46.438786      20.047001      20.857         19416.999      4061.8193      3432.0655      2275.6561      1147.1403     -996.71671     -781.02064    
  11541500   259.79455     -348.03288     -271.90457     -348.04026      0              3573.9835      46.394599      20.047001      20.857         19398.524      6057.8406      3025.3281      1638.7817     -97.891731     -2091.1109      1766.8297    
  11542000   263.50044     -349.96358     -272.74932     -349.95514      0              5566.8233      46.301767      20.047001      20.857         19359.709      3962.4731      7383.2176      5354.7793      1103.9478     -804.23641     -409.59219    
  11542500   262.37754     -351.38561     -274.5004      -351.34769      0              2814.3258      46.279628      20.047001      20.857         19350.452      2762.4992      3395.8119      2284.6662     -428.83149     -630.79572      986.60867    
  11543000   269.70712     -350.78511     -271.75209     -350.76309      0              5480.7814      46.129121      20.047001      20.857         19287.522      6230.3303      4412.1814      5799.8326     -278.80664     -208.28828     -2235.1612    
  11543500   262.98132     -348.70318     -271.64104     -348.68483      0              6103.4725      45.918921      20.047001      20.857         19199.633      6004.7982      9041.4267      3264.1926     -2213.3642     -1961.1599      126.024      
  11544000   269.65119     -351.21479     -272.19816     -351.17634      0              5346.2567      45.943287      20.047001      20.857         19209.821      5132.8904      5838.3093      5067.5704      1301.4391      2012.5527     -2325.3094    
  11544500   254.91638     -349.58736     -274.88851     -349.60211      0              6315.0193      46.336699      20.047001      20.857         19374.314      5127.6038      8109.1466      5708.3075     -312.09157     -1408.6022      436.89153    
  11545000   259.39449     -349.91334     -273.90226     -349.88856      0              6193.7131      46.528639      20.047001      20.857         19454.568      6158.2094      7383.2361      5039.6939      1237.7245      2258.0621      197.12067    
  11545500   262.75719     -350.30273     -273.30626     -350.30687      0              5139.4834      46.367996      20.047001      20.857         19387.401      5776.1805      4443.8113      5198.4585     -563.52911      92.616635     -1142.0777    
  11546000   260.31919     -350.62939     -274.34734     -350.60232      0              4308.6049      46.148205      20.047001      20.857         19295.501      5482.4091      4194.2327      3249.1728      382.65157      1341.9635     -67.69552     
  11546500   264.47633     -350.76334     -273.26311     -350.73811      0              6147.3251      46.270278      20.047001      20.857         19346.542      3788.644       9087.2776      5566.0536      327.45296      432.29183      785.79023    
  11547000   262.67039     -350.51238     -273.54136     -350.52777      0              4673.8707      46.492294      20.047001      20.857         19439.372      7090.9111      1156.6268      5774.0743     -984.26803     -539.36905     -109.60488    
  11547500   268.26308     -351.92766     -273.3178      -351.91793      0              2934.1137      46.566803      20.047001      20.857         19470.526      3899.421       2067.2371      2835.6832      1180.6784      496.26582      17.585952    
  11548000   268.07683     -351.74196     -273.18667     -351.73097      0              4756.8026      46.238428      20.047001      20.857         19333.225      5139.4331      4038.7252      5092.2496      635.8326       848.68434      123.54212    
  11548500   259.58483     -349.0998      -273.03294     -349.12554      0              2982.0385      46.378611      20.047001      20.857         19391.839      3658.0393      4050.1888      1237.8875      134.61752      1430.835      -6.4343529    
  11549000   264.04721     -350.72196     -273.34748     -350.72494      0              5248.1173      46.716217      20.047001      20.857         19532.999      6054.4257      6702.9838      2986.9426     -347.85211     -1231.9671      877.17905    
  11549500   259.7179      -350.05315     -273.9473      -350.07315      0              3357.4332      46.528685      20.047001      20.857         19454.588      2359.766       3289.8699      4422.6636      446.72273     -106.3391      -1156.8628    
  11550000   270.93802     -350.35752     -270.9638      -350.35209      0              6312.0332      46.221263      20.047001      20.857         19326.049      7021.4229      6683.997       5230.6796      449.2829      -326.48899     -598.63763    
  11550500   266.21055     -348.12747     -270.11906     -348.12296      0              3495.134       46.445932      20.047001      20.857         19419.987      5073.8142      3129.5451      2282.0427     -647.12987      392.91811     -87.232856    
  11551000   269.45409     -348.80432     -269.84544     -348.82558      0              2539.5103      46.925819      20.047001      20.857         19620.637      500.28103      3982.1015      3136.1485     -711.23865     -1173.101      -1644.3394    
  11551500   263.79053     -348.22868     -270.92942     -348.24554      0              4782.3176      46.834761      20.047001      20.857         19582.564      6278.2031      4801.3029      3267.4468      588.73396     -168.40204      1641.7434    
  11552000   257.85696     -347.875       -272.31447     -347.88569      0              3570.0184      46.563441      20.047001      20.857         19469.12       4334.504       2335.1824      4040.3687      690.27462      2043.848       2764.3194    
  11552500   264.75188     -349.01768     -271.43671     -349.01493      0              2604.4732      46.574856      20.047001      20.857         19473.893      4169.735       1349.0801      2294.6045     -1354.8367      1487.797      -461.75165    
  11553000   271.04097     -349.94212     -270.51824     -349.93293      0              5255.4085      46.521309      20.047001      20.857         19451.504      5697.6438      5095.0207      4973.5609      265.94179      98.954001      1959.8829    
  11553500   262.70071     -349.5655      -272.58559     -349.56428      0              3447.9741      46.590729      20.047001      20.857         19480.529      4272.0872      3263.0584      2808.7768     -826.42373     -1866.2344     -771.97366    
  11554000   265.60462     -350.95846     -273.12761     -350.94458      0              3966.6127      46.460121      20.047001      20.857         19425.92       5787.949       4973.5959      1138.2933      1098.1579      1412.2292      307.69373    
  11554500   268.4313      -350.82048     -272.16131     -350.82805      0              5721.215       46.359023      20.047001      20.857         19383.649      4406.6762      6717.9259      6039.0428      337.61685     -896.77281     -801.77451    
  11555000   265.621       -349.07419     -271.23854     -349.07336      0              966.8286       46.372021      20.047001      20.857         19389.083      1385.7396      1971.5091     -456.76284     -141.76508      1417.8614     -1468.952     
  11555500   264.96785     -350.61335     -272.96909     -350.62416      0              3308.7596      46.547148      20.047001      20.857         19462.307      3147.2286      4693.0073      2086.0431      1175.8532      1704.3585      134.17197    
  11556000   264.18645     -348.54129     -271.126       -348.53215      0              2194.8958      46.641995      20.047001      20.857         19501.965      4441.5362     -272.47374      2415.6249      51.016895      312.97847     -99.2805      
  11556500   272.68026     -349.02035     -269.11611     -349.0112       0              6234.2962      46.452222      20.047001      20.857         19422.617      6580.2536      7120.9726      5001.6623      312.92523      2479.1916      48.94114     
  11557000   260.71006     -349.17725     -272.78067     -349.17323      0              3934.7532      46.529046      20.047001      20.857         19454.739      2268.6464      5463.7149      4071.8984      1262.0511     -95.278808     -332.6364     
  11557500   273.76939     -350.59445     -270.37105     -350.61368      0              7869.1238      46.599593      20.047001      20.857         19484.236      8563.5638      7923.6689      7120.1387      373.355        287.1728       2047.2354    
  11558000   264.3984      -349.18486     -271.70747     -349.19773      0              5068.7446      46.602804      20.047001      20.857         19485.579      3233.8633      6531.4962      5440.8744      1083.5862      340.82467     -656.01694    
  11558500   267.40907     -349.22846     -270.86885     -349.24903      0              5444.228       46.470112      20.047001      20.857         19430.097      5077.6332      7351.1952      3903.8557     -359.72179      399.96226      869.1628     
  11559000   270.29671     -349.98866     -270.78287     -350.01505      0              5701.1017      46.515359      20.047001      20.857         19449.016      6397.5071      5012.9791      5692.8188      562.29603     -1847.9045      364.87862    
  11559500   264.81964     -349.26324     -271.66241     -349.30674      0              2846.1152      46.9491        20.047001      20.857         19630.372      2474.7959      2090.53        3973.0197     -1921.1234      92.415459     -1158.021     
  11560000   270.3926      -351.87252     -272.63863     -351.88876      0              3644.433       46.705519      20.047001      20.857         19528.526      4299.2411      4560.0214      2074.0364      1275.9558      101.98987      1707.4674    
  11560500   267.70454     -349.83822     -271.39202     -349.85377      0              7734.0355      46.086241      20.047001      20.857         19269.593      8730.8834      7170.8994      7300.3237     -1087.5321      1259.382       92.610938    
  11561000   270.31873     -351.20589     -271.99365     -351.21058      0              4730.7045      46.307213      20.047001      20.857         19361.986      6070.3137      2647.4865      5474.3133     -274.56247      1329.9526      1068.671     
  11561500   260.49525     -350.0512      -273.71756     -350.06957      0              1728.1769      46.649659      20.047001      20.857         19505.169      2298.202       1406.5033      1479.8254      72.524497     -760.45588      625.71199    
  11562000   264.85577     -348.02973     -270.41831     -348.06517      0              3952.5082      46.308277      20.047001      20.857         19362.431      4915.8468      5996.1721      945.50584      294.74606      1099.5108     -23.915961    
  11562500   266.7362      -350.10771     -271.94527     -350.10407      0              5627.2345      46.166632      20.047001      20.857         19303.206      4581.7734      6657.19        5642.7401      184.61451     -39.724259     -141.74752    
  11563000   264.0123      -350.71276     -273.34851     -350.72092      0              2772.895       46.289986      20.047001      20.857         19354.783      2531.9327      2309.4692      3477.2829     -930.10637      1132.8256     -1308.3329    
  11563500   261.54871     -351.00904     -274.3667      -351.03158      0              5280.2781      46.434998      20.047001      20.857         19415.415      6176.488       5257.3697      4406.9765      412.60691     -482.72291     -151.37958    
  11564000   262.94934     -350.40627     -273.3535      -350.4215       0              3918.9226      46.368019      20.047001      20.857         19387.41       2650.9752      4738.4045      4367.3881     -117.63142     -1746.614      -32.219469    
  11564500   268.57453     -349.82942     -271.12828     -349.84268      0              5719.01        46.228459      20.047001      20.857         19329.057      5230.2029      5730.4787      6196.3482      526.91192     -127.16887      22.863611    
  11565000   269.37332     -350.77282     -271.83762     -350.80167      0              4528.4233      46.242931      20.047001      20.857         19335.108      5115.5272      5979.3353      2490.4074     -305.28045     -651.23504     -1513.9732    
  11565500   265.7432      -348.91849     -271.04703     -348.93166      0              4146.9381      46.544431      20.047001      20.857         19461.171      4510.1077      3004.8828      4925.824      -1079.4176     -93.939284      875.94807    
  11566000   269.11749     -348.97543     -270.11519     -348.99609      0              3723.7674      46.513344      20.047001      20.857         19448.173      5885.7202      3144.7557      2140.8264      1540.2107     -677.54451     -1076.5727    
  11566500   262.50005     -348.38154     -271.46043     -348.38708      0              5609.5413      46.388925      20.047001      20.857         19396.151      6775.5659      5969.1257      4083.9323      286.74593     -1108.4237     -317.51892    
  11567000   262.24974     -350.62707     -273.77931     -350.65138      0              4095.6338      46.520709      20.047001      20.857         19451.253      4008.0787      4113.291       4165.5317      1115.3082      357.89219     -1421.8079    
  11567500   270.9856      -350.79709     -271.38943     -350.81846      0              4241.3677      46.459007      20.047001      20.857         19425.454      4203.607       3712.5861      4807.91       -824.10544      1547.0834     -790.86935    
  11568000   266.51035     -351.18166     -273.0854      -351.22423      0              2739.2727      46.20427       20.047001      20.857         19318.943      3700.7663      1442.5186      3074.5332      1241.6852      1701.9848      1555.7568    
  11568500   259.26056     -351.33265     -275.36081     -351.35804      0              5556.1491      45.962064      20.047001      20.857         19217.672      3842.5721      7645.0108      5180.8643      1287.6636      211.69601     -1942.9819    
  11569000   266.04003     -351.53118     -273.57273     -351.62216      0              3156.7052      46.230926      20.047001      20.857         19330.089      3851.2744      2493.3153      3125.5259     -48.854635      147.81267      477.55625    
  11569500   260.98417     -348.31835     -271.84144     -348.33706      0              4773.4634      46.392982      20.047001      20.857         19397.848      5592.499       4667.2176      4060.6737      966.48245      1651.2666      1659.9973    
  11570000   272.77247     -350.06958     -270.13832     -350.09371      0              2449.294       46.455961      20.047001      20.857         19424.18       993.76268      3558.1972      2795.9221      1445.5695      796.43711     -413.95063    
  11570500   268.31606     -349.72468     -271.09928     -349.73683      0              4521.356       46.343893      20.047001      20.857         19377.322      7617.6274      3592.7311      2353.7095     -1549.3391     -1774.2225      608.98674    
  11571000   268.0266      -349.6408      -271.10023     -349.65999      0              4080.4207      46.133193      20.047001      20.857         19289.225      5227.0966      2216.5428      4797.6226      130.45132     -1246.3103      1246.9955    
  11571500   271.231       -351.70322     -272.22366     -351.71343      0              6277.5994      46.279164      20.047001      20.857         19350.258      6973.6366      6032.7631      5826.3985     -85.568939     -1484.4329     -309.48128    
  11572000   259.96288     -348.57105     -272.39341     -348.63864      0              1830.632       46.424573      20.047001      20.857         19411.056      2554.6424     -402.71913      3339.9727      716.7669      -2335.305       956.98924    
  11572500   267.15459     -349.76441     -271.47937     -349.80581      0              3384.0668      46.412069      20.047001      20.857         19405.828      4678.8776      1844.6435      3628.6794     -637.21241     -63.54322       363.25972    
  11573000   265.44032     -349.85092     -272.06822     -349.86182      0              4788.5979      46.236218      20.047001      20.857         19332.302      5255.2235      5477.5693      3633.0009      450.08699     -1187.4327     -1279.4533    
  11573500   266.21012     -348.84879     -270.8405      -348.85073      0              3805.8381      46.294112      20.047001      20.857         19356.508      6075.3646      2875.4747      2466.675       1099.4101      2203.9438     -2540.9889    
  11574000   263.30448     -350.22245     -273.06561     -350.24335      0              5773.0733      46.698713      20.047001      20.857         19525.68       6703.7606      6498.8632      4116.5962     -220.51127      299.95211      529.05795    
  11574500   265.12765     -349.03617     -271.34509     -349.04582      0              3039.727       46.803525      20.047001      20.857         19569.504      1995.556       4846.3943      2277.2308      429.24119      2187.3029     -287.25149    
  11575000   267.00334     -348.77826     -270.53754     -348.81201      0              3746.8674      46.431513      20.047001      20.857         19413.958      3564.188       3328.3181      4348.0961     -290.80313     -863.00009      1464.3403    
  11575500   267.14962     -349.7077      -271.42411     -349.71814      0              4553.9245      46.564078      20.047001      20.857         19469.386      7045.6624      3996.4689      2619.6422      304.59254      756.94978      962.78192    
  11576000   275.85506     -349.3375      -268.50293     -349.36819      0              1560.9854      46.867915      20.047001      20.857         19596.427      2614.4356     -527.46616      2595.9868      471.66881      20.386748     -831.39919    
  11576500   260.05965     -347.66789     -271.46189     -347.69209      0              4854.1773      46.802405      20.047001      20.857         19569.036      7279.4462      5101.0948      2181.9909     -6.0243882      441.09559     -498.48765    
  11577000   269.39565     -348.81261     -269.87087     -348.82508      0              2095.7258      46.658771      20.047001      20.857         19508.979      721.10985      3216.6892      2349.3785     -439.40563     -1903.5455      828.91672    
  11577500   265.98224     -352.2552      -274.31369     -352.24168      0              3843.6505      46.429857      20.047001      20.857         19413.266      6325.7505      3258.2583      1946.9427      100.12406      451.28284      101.76872    
  11578000   263.83147     -348.78139     -271.47013     -348.80419      0              5995.7505      46.377882      20.047001      20.857         19391.534      7200.4151      5078.8188      5708.0176      627.1462      -669.15098     -833.70334    
  11578500   260.02473     -348.07771     -271.88195     -348.09446      0              5737.9869      46.353108      20.047001      20.857         19381.175      5434.4181      5326.6311      6452.9115     -244.10024      988.44456     -1345.816     
  11579000   258.17465     -347.80216     -272.14853     -347.82718      0              4739.3005      46.579526      20.047001      20.857         19475.845      6274.2968      4759.4187      3184.1859      760.16867     -2298.4326     -1073.5569    
  11579500   264.83851     -349.25391     -271.64755     -349.27093      0              4967.1094      46.508388      20.047001      20.857         19446.101      5886.3709      3611.7145      5403.2427      961.45204      992.29745      736.06617    
  11580000   262.32363     -348.12411     -271.2547      -348.13886      0              5759.7941      46.347873      20.047001      20.857         19378.987      8105.9967      5089.4431      4083.9426      835.89274      2324.564      -556.6542     
  11580500   260.00126     -347.27809     -271.0892      -347.2874       0              3936.6652      46.459889      20.047001      20.857         19425.823      3667.2047      4481.5747      3661.2161     -8.2048337     -293.55216      792.92155    
  11581000   263.2335      -350.70262     -273.56659     -350.71004      0              2940.0526      46.588731      20.047001      20.857         19479.694      4083.1317      3318.8979      1418.1282      674.36065     -771.75741     -1582.7827    
  11581500   256.67863     -346.90779     -271.69255     -346.93573      0              4968.7247      46.598927      20.047001      20.857         19483.957      3177.3209      5239.3607      6489.4926      78.583408      774.64885      2686.7526    
  11582000   256.11989     -350.51724     -275.46572     -350.54701      0              4413.4547      46.304162      20.047001      20.857         19360.71       5835.5447      2101.7944      5303.0251      125.59083      490.51252     -60.259289    
  11582500   261.61056     -351.73287     -275.07241     -351.74661      0              5906.8145      45.830436      20.047001      20.857         19162.635      5931.4135      7191.5735      4597.4566      1067.8139     -1383.754      -652.56445    
  11583000   265.23501     -350.90718     -273.18464     -350.93749      0              6306.5037      45.80016       20.047001      20.857         19149.977      6166.4783      7413.8034      5339.2293     -186.25745      249.66014     -2377.9558    
  11583500   261.40529     -347.09266     -270.49235     -347.11841      0              3477.0176      46.453897      20.047001      20.857         19423.317      1899.5444      4145.7862      4385.7222     -787.83723     -888.68587     -189.361      
  11584000   273.86423     -348.92047     -268.66928     -348.95361      0              4325.8645      46.593166      20.047001      20.857         19481.549      4419.2504      4660.2893      3898.0537     -902.02345      2545.445       164.89409    
  11584500   261.62821     -347.87983     -271.2142      -347.89999      0              4896.7951      46.048635      20.047001      20.857         19253.869      3681.0314      6181.0764      4828.2774      582.78532      644.5575       247.50028    
  11585000   265.89794     -351.12761     -273.21081     -351.17876      0              5049.1185      45.97131       20.047001      20.857         19221.538      6065.6424      6369.5844      2712.1286     -1359.8245      665.77954      681.62217    
  11585500   264.0112      -348.07676     -270.71283     -348.09886      0              1722.0822      46.301191      20.047001      20.857         19359.468      1743.3498      2552.7962      870.10083      374.29872     -1754.5383      677.85381    
  11586000   258.56764     -350.16609     -274.3973      -350.18457      0              4740.2501      46.203721      20.047001      20.857         19318.714      6890.0569      4117.583       3213.1103     -1090.8606     -1683.363       1135.2653    
  11586500   267.43658     -350.31795     -271.95028     -350.32031      0              5499.132       46.006488      20.047001      20.857         19236.247      5552.7584      5517.057       5427.5806     -292.41062      1195.2909      1370.8777    
  11587000   263.32348     -347.83525     -270.67284     -347.86136      0              5454.9547      46.350028      20.047001      20.857         19379.888      5514.0006      6980.3522      3870.5112      169.24365      554.83961     -16.77043     
  11587500   262.42884     -347.28807     -270.38783     -347.33355      0              2804.4388      46.596488      20.047001      20.857         19482.937      3937.6469      478.50769      3997.1617     -116.50859     -1372.7062      268.13175    
  11588000   268.50369     -348.51374     -269.83336     -348.53362      0              3190.4524      46.382003      20.047001      20.857         19393.257      5266.2171      1442.9995      2862.1405     -1556.0451      51.373166     -807.39577    
  11588500   273.64744     -348.13258     -267.94491     -348.15381      0              4351.93        46.322481      20.047001      20.857         19368.37       5097.9085      5147.5308      2810.3508      750.85214     -2057.0545     -1118.2521    
  11589000   270.54948     -349.40022     -270.12036     -349.41936      0              4859.445       46.412501      20.047001      20.857         19406.009      5715.5657      2388.5019      6474.2673      1049.1832      465.14402      2455.8933    
  11589500   263.39453     -349.3468      -272.16358     -349.3634       0              6222.3647      46.292432      20.047001      20.857         19355.806      6069.9628      7926.6265      4670.5047     -989.42539      371.5814      -1814.1874    
  11590000   255.21588     -351.48708     -276.70047     -351.50526      0              4896.5293      46.346433      20.047001      20.857         19378.384      3616.8192      4134.2735      6938.4951     -181.08954     -1609.3908     -978.0015     
  11590500   268.921       -351.03755     -272.23489     -351.05514      0              4237.9767      46.189157      20.047001      20.857         19312.624      4656.0003      3660.9871      4396.9428     -452.76633      355.44487      1507.7027    
  11591000   270.89364     -349.93676     -270.55605     -349.95985      0              5885.0159      46.237263      20.047001      20.857         19332.738      7030.5651      5427.0049      5197.4777     -612.72856     -1288.8252     -726.03594    
  11591500   264.67678     -346.84513     -269.28616     -346.88195      0              1934.2584      46.537844      20.047001      20.857         19458.417      912.21671      2672.6289      2217.9295      242.4193       1617.3973      1076.8657    
  11592000   256.39211     -345.95507     -270.82378     -345.96464      0              5383.9624      46.420213      20.047001      20.857         19409.234      3802.9886      6120.9956      6227.9031     -1070.4545     -668.83811     -912.99469    
  11592500   272.45358     -351.59828     -271.76046     -351.58678      0              4903.8865      46.210998      20.047001      20.857         19321.757      7960.4433      4244.6126      2506.6037      1853.3866     -1566.4722     -738.76606    
  11593000   260.65918     -347.80084     -271.41916     -347.82791      0              3827.3904      46.18237       20.047001      20.857         19309.786      4610.0213      1538.0571      5334.0928      622.18864      309.93663      478.31976    
  11593500   262.81964     -346.31781     -269.30305     -346.32749      0              5494.0018      46.281902      20.047001      20.857         19351.403      6414.1353      6185.3871      3882.4831      421.0037      -721.63574     -439.58713    
  11594000   259.83391     -346.77666     -270.63681     -346.76821      0              4468.8461      46.308694      20.047001      20.857         19362.605      3179.0118      7259.6072      2967.9193     -412.65816     -1441.6106      912.30122    
  11594500   270.78925     -349.28094     -269.93082     -349.30373      0              5027.3009      46.275089      20.047001      20.857         19348.554      3890.7626      3786.1592      7404.981       1115.3117     -355.00339     -363.28433    
  11595000   264.54265     -347.06327     -269.54361     -347.09404      0              4041.3588      46.102596      20.047001      20.857         19276.431      4889.9092      4954.6463      2279.521       622.45707     -1228.1465     -767.33465    
  11595500   268.32312     -347.47261     -268.84515     -347.48745      0              5039.6602      45.868465      20.047001      20.857         19178.536      4431.6382      5077.1371      5610.2053     -1114.9979      1127.9834     -729.81692    
  11596000   268.40059     -349.57294     -270.92278     -349.58885      0              5150.7845      46.139596      20.047001      20.857         19291.902      5866.3619      4919.4443      4666.5474     -66.016263     -302.15201      487.87208    
  11596500   267.672       -349.80066     -271.36399     -349.81615      0              7166.5519      46.257752      20.047001      20.857         19341.305      7103.2387      7479.7304      6916.6866     -397.50355     -605.36764     -2561.173     
  11597000   261.31636     -348.22755     -271.6533      -348.22431      0              3805.8517      46.166032      20.047001      20.857         19302.955      5533.9349      3793.3671      2090.2531     -164.06857      126.26487      1249.0562    
[...]
  15182500   264.59633     -349.17942     -271.64403     -349.19557      0              3318.0903      46.318186      20.047001      20.857         19366.574      4425.6008      3935.7236      1592.9466     -524.30459     -2112.3464      882.3567     
  15183000   262.28531     -348.8169      -271.95872     -348.78591      0              5642.3107      46.223038      20.047001      20.857         19326.79       4869.5956      5701.5976      6355.7389      898.2858       1007.9158     -1274.6039    
  15183500   266.25732     -351.15683     -273.13471     -351.10245      0              3610.6582      46.110466      20.047001      20.857         19279.722      3787.9715      3759.7741      3284.2289      844.1269      -863.86155      1198.6681    
  15184000   266.94711     -350.84625     -272.622       -350.79318      0              3598.3784      46.069291      20.047001      20.857         19262.506      2952.2787      3855.2691      3987.5874      1136.437       1086.9743     -231.04146    
  15184500   260.37477     -350.29914     -274.0008      -350.29353      0              5283.5292      46.132844      20.047001      20.857         19289.078      4876.1862      6666.4344      4307.9669     -354.56279      677.52255      202.35638    
  15185000   264.00565     -351.56405     -274.20174     -351.56288      0              6100.8251      46.004841      20.047001      20.857         19235.558      6208.2027      5092.5412      7001.7315     -1080.8442     -362.89602      726.45268    
  15185500   265.76156     -350.43889     -272.56205     -350.40957      0              3555.1677      45.895853      20.047001      20.857         19189.988      3609.1857      3731.8829      3324.4344      908.6353      -177.65057      441.15951    
  15186000   269.04655     -352.38803     -273.54858     -352.36484      0              6325.7001      45.862948      20.047001      20.857         19176.23       7512.9733      5953.5585      5510.5685     -367.70714     -2007.9762     -704.00859    
  15186500   258.14557     -352.53406     -276.88895     -352.50227      0              2033.1625      46.136375      20.047001      20.857         19290.555      3140.787       1842.4574      1116.2432     -893.51462      1096.5019      57.475223    
  15187000   264.14659     -353.7239      -276.3203      -353.71035      0              3154.2088      46.199808      20.047001      20.857         19317.078      4190.4131      2695.0343      2577.179      -772.26379      594.424        155.88412    
  15187500   262.71071     -350.35715     -273.37431     -350.33242      0              7419.5904      46.010668      20.047001      20.857         19237.994      8129.4419      6520.8747      7608.4546      583.01864     -1416.0987      493.53604    
  15188000   259.55346     -353.11759     -277.05993     -353.09942      0              5643.8216      46.143101      20.047001      20.857         19293.367      7374.9754      3519.9363      6036.5532      1077.1042      887.56627      2530.1997    
  15188500   256.14208     -349.92395     -274.86593     -349.90723      0              4635.0876      46.083237      20.047001      20.857         19268.337      3422.3043      4956.732       5526.2266     -95.884251      1417.0141     -345.97614    
  15189000   265.98721     -349.47631     -271.53334     -349.45605      0              4069.2054      45.985761      20.047001      20.857         19227.58       4954.6116      3621.169       3631.8358      451.73169      1636.739      -198.67412    
  15189500   259.33715     -350.74621     -274.75193     -350.75525      0              3191.4198      46.338161      20.047001      20.857         19374.926      2471.5547      3420.6825      3682.0221      47.812174      505.85916      720.03058    
  15190000   263.59496     -349.15335     -271.9114      -349.14872      0              4845.3283      46.363315      20.047001      20.857         19385.443      3012.9679      7300.3103      4222.7067     -509.46271     -635.5026       282.71571    
  15190500   264.51715     -350.75559     -273.2434      -350.69776      0              4959.161       45.918722      20.047001      20.857         19199.55       5723.2262      4868.2703      4285.9865      252.72593     -330.73776      209.90469    
  15191000   266.10032     -350.23387     -272.25776     -350.18885      0              4397.344       45.77385       20.047001      20.857         19138.976      2194.1669      5251.155       5746.7099      292.0283       1386.7018     -909.93104    
  15191500   268.58031     -350.02022     -271.31739     -350.0251       0              5077.9531      46.198774      20.047001      20.857         19316.645      4483.4289      5612.693       5137.7375     -1834.9591      1130.0093      653.92136    
  15192000   266.53043     -349.83457     -271.73243     -349.80656      0              3939.8464      46.425977      20.047001      20.857         19411.643      3875.0625      4471.6069      3472.8699      1478.1023     -1411.1242      139.70503    
  15192500   257.25198     -348.36359     -272.98033     -348.36872      0              4335.7894      45.951669      20.047001      20.857         19213.326      5837.34        4009.3689      3160.6592      260.7467       995.89906     -1903.9598    
  15193000   263.75719     -351.30615     -274.01666     -351.26599      0              3799.083       45.87961       20.047001      20.857         19183.196      4125.1228      2897.0096      4375.1166      618.99187     -812.56529      216.39687    
  15193500   268.06521     -350.56768     -272.0158      -350.54819      0              4352.6916      46.185533      20.047001      20.857         19311.109      5178.493       4895.5417      2984.0401     -637.93344     -352.71628      1148.2329    
  15194000   269.70173     -351.9242      -272.89276     -351.8696       0              4921.3038      46.138897      20.047001      20.857         19291.609      4492.7894      4825.8635      5445.2584      295.75802      73.506625     -859.21125    
  15194500   262.08629     -350.27988     -273.48002     -350.21199      0              5282.9468      46.10022       20.047001      20.857         19275.438      6823.7382      5317.5786      3707.5235     -1141.2702      701.83376     -565.1406     
  15195000   261.37807     -351.88137     -275.28904     -351.80498      0              2412.5409      45.971774      20.047001      20.857         19221.732      3766.5631      1495.1239      1975.9356     -402.63012     -82.660766      186.00094    
  15195500   268.58023     -350.68704     -271.98423     -350.64694      0              5221.8156      45.829829      20.047001      20.857         19162.382      4783.6078      3944.3162      6937.5227     -1264.6976      370.6266       1045.6674    
  15196000   268.55947     -354.14526     -275.44854     -354.0946       0              6081.3188      46.057607      20.047001      20.857         19257.621      6219.1357      7063.9878      4960.833      -395.51198     -1697.0441     -770.33233    
  15196500   263.86283     -350.88615     -273.5657      -350.8522       0              5686.4774      46.079228      20.047001      20.857         19266.661      5998.0288      4587.2729      6474.1304     -934.85363     -587.93825     -13.371205    
  15197000   264.22097     -351.28705     -273.86166     -351.24676      0              7765.5106      45.971052      20.047001      20.857         19221.43       8669.2686      8607.8712      6019.392      -154.60558     -1092.9479     -876.43777    
  15197500   263.58638     -349.8896      -272.65016     -349.85983      0              6360.4551      45.876302      20.047001      20.857         19181.813      4901.9627      7568.5831      6610.8194     -1202.1466      415.35791      45.043696    
  15198000   268.67        -351.42931     -272.7002      -351.35941      0              4173.9729      45.847294      20.047001      20.857         19169.684      5470.0392      4012.5343      3039.3451      22.049135      178.32404      1936.9791    
  15198500   273.7447      -348.32959     -268.11343     -348.26133      0              4825.8113      45.928478      20.047001      20.857         19203.629      3851.7311      7118.6119      3507.0911      1529.7096      494.99422      252.94944    
  15199000   267.38998     -346.93009     -268.57607     -346.8866       0              4391.9157      46.009237      20.047001      20.857         19237.396      4770.1001      4561.2932      3844.3537      764.13301      1118.0312     -1712.6197    
  15199500   258.91056     -350.73025     -274.86097     -350.65807      0              5542.0661      45.793622      20.047001      20.857         19147.243      10434.735      2277.9608      3913.5025     -650.13316      416.59402     -821.37671    
  15200000   262.01844     -352.69443     -275.91444     -352.63164      0              4450.942       45.72896       20.047001      20.857         19120.206      4724.0337      3711.0399      4917.7523      490.95176     -177.606       -1295.8512    
  15200500   254.91926     -352.65678     -277.95709     -352.6067       0              2108.4855      46.007053      20.047001      20.857         19236.483      2722.9824      2473.3225      1129.1515      1204.6325     -1808.9163     -155.86406    
  15201000   257.01087     -351.641       -276.32839     -351.63763      0              6544.2145      46.068946      20.047001      20.857         19262.361      7035.6864      5894.5103      6702.447      -531.55881      512.16304      101.24448    
  15201500   263.56962     -353.55068     -276.31615     -353.50506      0              2930.1945      45.915547      20.047001      20.857         19198.222      3421.4162      2675.253       2693.9142      379.77148      686.60516     -276.37783    
  15202000   261.73536     -349.15934     -272.46231     -349.11301      0              3951.1393      45.702832      20.047001      20.857         19109.282      4744.6114      4389.3242      2719.4823     -806.08551     -733.44495      294.29828    
  15202500   268.87775     -348.95517     -270.16519     -348.94149      0              7167.803       45.908433      20.047001      20.857         19195.248      8778.6003      6639.8436      6084.9649      312.85759      624.95581      1706.8731    
  15203000   264.49387     -350.62633     -273.12097     -350.63353      0              2450.7246      46.276264      20.047001      20.857         19349.045      1950.0834      2485.1886      2916.9019     -1297.9203     -497.06973     -694.5539     
  15203500   258.59575     -349.35778     -273.58076     -349.36019      0              3736.0412      46.253162      20.047001      20.857         19339.386      3355.8013      2654.2634      5198.0591     -326.9503      -720.70498      1673.1899    
  15204000   263.20738     -352.66316     -275.53478     -352.59613      0              5983.1265      46.142159      20.047001      20.857         19292.973      6178.2417      6336.5552      5434.5824     -879.42549      1227.8903      900.89282    
  15204500   258.77099     -348.67747     -272.84909     -348.68186      0              3522.5382      45.981764      20.047001      20.857         19225.909      3886.2415      3040.7575      3640.6156      409.23607     -1025.2244      1184.5903    
  15205000   259.37017     -350.31504     -274.31109     -350.26657      0              2277.9093      46.218474      20.047001      20.857         19324.882      3513.0363      2762.7292      557.96254     -561.29095      1402.7561      673.29465    
  15205500   266.09321     -350.25564     -272.28162     -350.23099      0              3429.6761      46.572507      20.047001      20.857         19472.911      4300.773       3081.9375      2906.3178      2088.7162      193.3233      -37.268293    
  15206000   268.99436     -350.80165     -271.97749     -350.77807      0              6145.8064      46.19741       20.047001      20.857         19316.075      4279.3015      7370.011       6788.1068      559.15169      1145.4418     -463.87095    
  15206500   260.77412     -350.13192     -273.71657     -350.12344      0              4701.8736      46.012843      20.047001      20.857         19238.904      2188.772       7031.0668      4885.7819      321.37783      548.36641      239.4431     
  15207000   267.03841     -350.17339     -271.9224      -350.17836      0              7231.3009      46.14877       20.047001      20.857         19295.738      6715.37        7097.6178      7880.9149     -799.55121      461.24528      302.23928    
  15207500   266.86185     -350.55109     -272.35182     -350.51277      0              4141.8477      46.326446      20.047001      20.857         19370.028      1951.1075      5525.8137      4948.622       498.24544     -825.59983     -1722.5       
  15208000   266.91839     -351.78743     -273.5716      -351.72844      0              3973.9714      46.121508      20.047001      20.857         19284.339      7129.5825      2279.4073      2512.9244     -424.11491     -410.71024      1932.0619    
  15208500   268.03963     -352.26426     -273.71987     -352.20559      0              4810.1324      46.068156      20.047001      20.857         19262.031      6657.0575      5155.5685      2617.7712      277.75938      95.352173     -132.10363    
  15209000   265.48979     -350.42449     -272.62729     -350.40833      0              2800.7979      46.27594       20.047001      20.857         19348.91       1993.2941      4890.1846      1518.9149     -1269.6963      1407.3636      1539.7474    
  15209500   267.22583     -350.44404     -272.13812     -350.44812      0              3231.9628      46.418503      20.047001      20.857         19408.518      2131.9824      4408.7725      3155.1336     -357.18719      763.95447      2264.8413    
  15210000   261.07391     -351.58402     -275.08082     -351.54064      0              4962.9117      46.334647      20.047001      20.857         19373.456      5607.5089      4811.8146      4469.4117     -328.91825     -52.551144     -1433.4353    
  15210500   259.1686      -349.02834     -273.08345     -349.01429      0              5246.6068      46.202873      20.047001      20.857         19318.359      5529.6855      6310.1069      3900.0279     -458.42138      3151.5756     -365.04051    
  15211000   266.31858     -353.45191     -275.41185     -353.439        0              2976.1468      46.12255       20.047001      20.857         19284.774      1756.8169      4413.3558      2758.2675     -443.43417     -524.49959     -1396.8036    
  15211500   263.99632     -350.49172     -273.13216     -350.45912      0              6143.469       46.045898      20.047001      20.857         19252.724      6223.2461      6661.5667      5545.5942     -1015.6043     -514.04751      1147.5516    
  15212000   259.96958     -349.9535      -273.7739      -349.91832      0              3906.2733      46.177268      20.047001      20.857         19307.653      4906.3942      4272.6256      2539.8001     -151.91529      370.0496       1158.4446    
  15212500   264.4664      -350.60893     -273.11161     -350.58925      0              4556.9729      46.227652      20.047001      20.857         19328.72       4202.4889      4609.4528      4858.9769      155.19523      871.96898     -1889.5599    
  15213000   262.59172     -350.21532     -273.26735     -350.18482      0              3919.2553      46.075764      20.047001      20.857         19265.212      5087.1079      3505.6012      3165.0568      383.9208       2084.6129      48.34188     
  15213500   267.11029     -347.09412     -268.82205     -347.06718      0              7448.9087      46.344076      20.047001      20.857         19377.399      8567.2472      7472.9089      6306.5699     -666.06486     -1242.2426      1695.3301    
  15214000   272.44036     -349.86396     -270.03001     -349.86259      0              3705.2983      46.747552      20.047001      20.857         19546.101      3441.0478      4455.6906      3219.1565     -521.03224      720.77878     -568.45574    
  15214500   267.04628     -346.47252     -268.21922     -346.47191      0              2147.5507      46.82504       20.047001      20.857         19578.5        3052.7148      2059.9349      1330.0024      796.43        -1565.195       127.67178    
  15215000   260.20972     -348.78505     -272.53508     -348.75137      0              2010.8836      46.693296      20.047001      20.857         19523.415      3572.3734      1582.8973      877.38013      134.34014     -418.51707      1193.3762    
  15215500   269.78346     -349.35425     -270.29886     -349.31132      0              5853.5576      46.283921      20.047001      20.857         19352.247      6583.5886      5711.7643      5265.3198     -422.6095       1324.0929     -720.12628    
  15216000   264.02544     -348.92473     -271.55663     -348.88237      0              5303.0858      46.157502      20.047001      20.857         19299.388      4193.8292      6832.7191      4882.7089     -601.16807      828.88864     -32.124202    
  15216500   276.83479     -349.87508     -268.75342     -349.8661       0              4627.6059      46.556633      20.047001      20.857         19466.274      2448.181       5282.8175      6151.8193     -613.72854      162.25898      1325.9337    
  15217000   265.80108     -348.12924     -270.24082     -348.10476      0              2778.4866      46.720229      20.047001      20.857         19534.676      4987.1246      1319.1952      2029.1402      528.12982     -105.9574       659.54063    
  15217500   268.92673     -350.75389     -271.94955     -350.71703      0              3479.9007      46.456971      20.047001      20.857         19424.603      3601.2545      4652.9262      2185.5214      121.87582     -453.55136     -537.83245    
  15218000   256.77744     -348.86575     -273.62155     -348.81754      0              6218.6827      46.194794      20.047001      20.857         19314.981      6394.3634      5871.951       6389.7337      350.3882       443.66336      1225.7646    
WARNING: Wall time limit reached (../timer.cpp:193)
Loop time of 85807.3 on 4 procs for 3767000 steps with 2268 atoms

Performance: 1.897 ns/day, 12.655 hours/ns, 43.901 timesteps/s
959.3% CPU use with 4 MPI tasks x no OpenMP threads

MPI task timing breakdown:
Section |  min time  |  avg time  |  max time  |%varavg| %total
---------------------------------------------------------------
Pair    | 47197      | 47643      | 48019      | 140.9 | 55.52
Bond    | 0.47034    | 0.4787     | 0.48626    |   0.8 |  0.00
Neigh   | 1244.6     | 1261       | 1285.2     |  42.9 |  1.47
Comm    | 4654.5     | 5015       | 5448.2     | 402.6 |  5.84
Output  | 2151.7     | 2151.7     | 2151.8     |   0.1 |  2.51
Modify  | 29642      | 29725      | 29818      |  39.0 | 34.64
Other   |            | 10.82      |            |       |  0.01

Nlocal:            567 ave         581 max         557 min
Histogram: 1 0 1 0 1 0 0 0 0 1
Nghost:        3743.75 ave        3767 max        3719 min
Histogram: 1 0 1 0 0 0 0 1 0 1
Neighs:              0 ave           0 max           0 min
Histogram: 4 0 0 0 0 0 0 0 0 0
FullNghs:       142518 ave      146021 max      140433 min
Histogram: 1 1 0 1 0 0 0 0 0 1

Total # of neighbors = 570074
Ave neighs/atom = 251.35538
Ave special neighs/atom = 0
Neighbor list builds = 376700
Dangerous builds not checked

unfix		4
unfix		3
unfix		1

write_data	data.final.${pid}
write_data	data.final.0
System init for write_data ...
Generated 0 of 1 mixed pair_coeff terms from geometric mixing rule
write_restart	restart.lmp.${pid}
write_restart	restart.lmp.0
System init for write_restart ...
Generated 0 of 1 mixed pair_coeff terms from geometric mixing rule
Total wall time: 23:50:26
