LAMMPS (23 Jun 2022)
echo both

include		in.partitions
variable        pid world 0
include		in.temp
variable	temperature equal 265.0
variable        tempDamp equal 0.100 # this is 0.1 ps
include		in.pressure
variable        pressure equal 5066.25
variable        pressureDamp equal 1.0 #this is 1ps
include		in.seed
variable        seed world 745823

units           metal
atom_style	full
read_restart	restart.lmp.${pid}
read_restart	restart.lmp.0
Reading restart file ...
  restart file = 23 Jun 2022, LAMMPS = 23 Jun 2022
  restoring atom style full from restart
  orthogonal box = (0.66655514 0 0) to (46.784144 20.047001 20.857)
  4 by 1 by 1 MPI processor grid
Summary of lammps deepmd module ...
  >>> Info of deepmd-kit:
  installed to:       /u/sigbjobo/software/DEEPMD_FROM_SOURCE/deepmd-kit/install
  source:             v2.1.3
  source branch:       master
  source commit:      5a32c49
  source commit at:   2022-07-01 09:52:58 +0800
  surpport model ver.:1.1 
  build float prec:   double
  build with tf inc:  /u/sigbjobo/software/DEEPMD_FROM_SOURCE/tensorflow/install/include;/u/sigbjobo/software/DEEPMD_FROM_SOURCE/tensorflow/install/include
  build with tf lib:  /u/sigbjobo/software/DEEPMD_FROM_SOURCE/tensorflow/install/lib/libtensorflow_cc.so;/u/sigbjobo/software/DEEPMD_FROM_SOURCE/tensorflow/install/lib/libtensorflow_framework.so
  set tf intra_op_parallelism_threads: 0
  set tf inter_op_parallelism_threads: 0
  >>> Info of lammps module:
  use deepmd-kit at:  /u/sigbjobo/software/DEEPMD_FROM_SOURCE/deepmd-kit/install
  source:             v2.1.3
  source branch:      master
  source commit:      5a32c49
  source commit at:   2022-07-01 09:52:58 +0800
  build float prec:   double
  build with tf inc:  /u/sigbjobo/software/DEEPMD_FROM_SOURCE/tensorflow/install/include;/u/sigbjobo/software/DEEPMD_FROM_SOURCE/tensorflow/install/include
  build with tf lib:  /u/sigbjobo/software/DEEPMD_FROM_SOURCE/tensorflow/install/lib/libtensorflow_cc.so;/u/sigbjobo/software/DEEPMD_FROM_SOURCE/tensorflow/install/lib/libtensorflow_framework.so
  restoring pair style deepmd from restart
  2268 atoms
Finding 1-2 1-3 1-4 neighbors ...
  special bond factors lj:    0        0        0       
  special bond factors coul:  0        0        0       
     0 = max # of 1-2 neighbors
     0 = max # of 1-3 neighbors
     0 = max # of 1-4 neighbors
     1 = max # of special neighbors
  special bonds CPU = 0.000 seconds
  read_restart CPU = 0.011 seconds
include 	in.setup
variable	out_freq equal 500
variable	out_freq2 equal 1000
variable	out_freq3 equal 5000

timestep        0.0005

neigh_modify    delay 7 every 1

include         in.deepmd
# This is deepMD model

# create groups ###
#group ox type 2
#group hy type 1

mass 2 15.999
mass 1 1.008

pair_style      deepmd ../graph.pb
pair_coeff      * *

bond_style      none
angle_style     none
dihedral_style  none
improper_style  none
neigh_modify exclude none


neighbor        2.0 bin
neigh_modify    every 10 delay 0 check no

thermo          ${out_freq}
thermo          500
thermo_style 	custom step temp pe etotal epair emol press lx ly lz vol pxx pyy pzz pxy pxz pyz
#thermo_modify	flush yes
restart 	${out_freq} restart.lmp.${pid} restart2.lmp.${pid}
restart 	500 restart.lmp.${pid} restart2.lmp.${pid}
restart 	500 restart.lmp.0 restart2.lmp.${pid}
restart 	500 restart.lmp.0 restart2.lmp.0

include		in.dump
dump            myDump all atom ${out_freq3} dump.water.${pid}
dump            myDump all atom 5000 dump.water.${pid}
dump            myDump all atom 5000 dump.water.0
dump            myDump2 all dcd ${out_freq2} dump.dcd.${pid}
dump            myDump2 all dcd 1000 dump.dcd.${pid}
dump            myDump2 all dcd 1000 dump.dcd.0
dump_modify     myDump append yes
dump_modify     myDump2 append yes


timer           timeout 23:50:00 every 1000
New timer settings: style=normal  mode=nosync  timeout=23:50:00

fix             1 all plumed plumedfile plumed.dat outfile plumed.out
fix             3 all nph x ${pressure} ${pressure} ${pressureDamp}
fix             3 all nph x 5066.25 ${pressure} ${pressureDamp}
fix             3 all nph x 5066.25 5066.25 ${pressureDamp}
fix             3 all nph x 5066.25 5066.25 1
Resetting global fix info from restart file:
  fix style: nph, fix ID: 3
fix             4 all temp/csvr ${temperature} ${temperature} ${tempDamp} ${seed}
fix             4 all temp/csvr 265 ${temperature} ${tempDamp} ${seed}
fix             4 all temp/csvr 265 265 ${tempDamp} ${seed}
fix             4 all temp/csvr 265 265 0.1 ${seed}
fix             4 all temp/csvr 265 265 0.1 745823
Resetting global fix info from restart file:
  fix style: temp/csvr, fix ID: 4

run             40000000 upto

CITE-CITE-CITE-CITE-CITE-CITE-CITE-CITE-CITE-CITE-CITE-CITE-CITE

Your simulation uses code contributions which should be cited:

- USER-DEEPMD package:

@article{Wang_ComputPhysCommun_2018_v228_p178,
  author = {Wang, Han and Zhang, Linfeng and Han, Jiequn and E, Weinan},
  doi = {10.1016/j.cpc.2018.03.016},
  url = {https://doi.org/10.1016/j.cpc.2018.03.016},
  year = 2018,
  month = {jul},
  publisher = {Elsevier {BV}},
  volume = 228,
  journal = {Comput. Phys. Commun.},
  title = {{DeePMD-kit: A deep learning package for many-body potential energy representation and molecular dynamics}},
  pages = {178--184}
}

CITE-CITE-CITE-CITE-CITE-CITE-CITE-CITE-CITE-CITE-CITE-CITE-CITE

Generated 0 of 1 mixed pair_coeff terms from geometric mixing rule
All restart file global fix info was re-assigned
Neighbor list info ...
  update every 10 steps, delay 0 steps, check no
  max neighbors/atom: 2000, page size: 100000
  master list distance cutoff = 8
  ghost atom cutoff = 8
  binsize = 4, bins = 12 6 6
  1 neighbor lists, perpetual/occasional/extra = 1 0 0
  (1) pair deepmd, perpetual
      attributes: full, newton on
      pair build: full/bin
      stencil: full/bin/3d
      bin: standard
Per MPI rank memory allocation (min/avg/max) = 6.186 | 6.188 | 6.191 Mbytes
   Step          Temp          PotEng         TotEng         E_pair         E_mol          Press            Lx             Ly             Lz           Volume          Pxx            Pyy            Pzz            Pxy            Pxz            Pyz      
  32582000   268.37879     -351.13299     -272.48921     -351.13299      0              4897.3314      46.117589      20.047001      20.857         19282.7        5784.1757      4152.6357      4755.1828     -87.570213     -985.26328      670.34927    
  32582500   257.91991     -349.16377     -273.58479     -349.18161      0              3395.5472      46.175514      20.047001      20.857         19306.92       2821.046       4291.0895      3074.506      -427.33913      900.25224     -1028.026     
  32583000   265.33991     -349.61702     -271.86374     -349.65088      0              3633.2456      46.101153      20.047001      20.857         19275.828      2870.172       4297.99        3731.5748     -179.46303      85.959368     -371.66807    
  32583500   258.42915     -348.90347     -273.17526     -348.93089      0              5132.6171      46.298302      20.047001      20.857         19358.26       4912.266       5667.1907      4818.3948     -388.39463      651.63987      443.28767    
  32584000   263.51733     -350.20211     -272.9829      -350.21532      0              5955.3298      46.073753      20.047001      20.857         19264.371      6826.1796      4764.7317      6275.078      -272.67189     -406.78191      663.30448    
  32584500   262.76913     -349.72458     -272.72462     -349.75713      0              4041.3736      45.917258      20.047001      20.857         19198.938      2701.6327      3943.1291      5479.3589      716.51001     -2357.1343     -1262.8878    
  32585000   267.70979     -350.66161     -272.21388     -350.67026      0              4936.7954      45.950699      20.047001      20.857         19212.92       4113.592       5833.5243      4863.2698     -744.37137      1939.7115      1462.9657    
  32585500   264.88509     -350.35241     -272.73241     -350.36159      0              4155.2177      46.129395      20.047001      20.857         19287.637      6710.6631      1347.5674      4407.4225     -32.751665     -861.52036     -148.4228     
  32586000   260.7013      -349.76811     -273.37409     -349.7755       0              4039.1173      46.169374      20.047001      20.857         19304.353      3308.8197      5095.4096      3713.1225      544.77658     -1854.8555     -671.9894     
  32586500   263.21245     -348.38389     -271.25402     -348.39693      0              5108.7131      46.212227      20.047001      20.857         19322.27       6869.5561      3464.3147      4992.2685      283.35283      107.96563      587.45212    
  32587000   254.98391     -351.1931      -276.47446     -351.15142      0              5567.2802      46.084438      20.047001      20.857         19268.839      6968.8206      4070.8908      5662.1293      21.817363     -585.3033      -2340.1965    
  32587500   265.32249     -352.42121     -274.67303     -352.43617      0              4086.0894      46.034327      20.047001      20.857         19247.887      7196.1086      2586.9054      2475.2542     -1473.3904      57.017591      501.70867    
  32588000   264.21252     -347.68668     -270.26376     -347.69884      0              5024.8652      46.125124      20.047001      20.857         19285.851      3810.6035      3351.6694      7912.3227      842.25906     -71.586529     -134.913      
  32588500   260.01239     -348.71234     -272.52019     -348.6786       0              6112.3983      46.102365      20.047001      20.857         19276.335      5801.52        4394.8705      8140.8043     -28.817053     -1586.7023      120.98548    
  32589000   258.15955     -348.93472     -273.28551     -348.93674      0              4918.2673      46.396842      20.047001      20.857         19399.461      3484.9107      5486.1388      5783.7524      465.87748     -171.61481      981.62239    
  32589500   268.05355     -350.20383     -271.65536     -350.2135       0              3266.1738      46.509138      20.047001      20.857         19446.415      3763.2237      2845.2067      3190.0911     -1390.2943     -1324.6746     -560.02264    
  32590000   270.00555     -348.64737     -269.5269      -348.62594      0              4751.3598      46.052625      20.047001      20.857         19255.537      4748.5018      4040.5884      5464.9893     -1071.2418     -161.68713      1302.2957    
  32590500   266.31752     -348.64445     -270.6047      -348.61726      0              5558.2523      45.903442      20.047001      20.857         19193.161      6917.4476      4340.7256      5416.5835      1481.442      -445.91452      403.9301     
  32591000   263.95968     -349.26505     -271.91622     -349.25954      0              3922.537       46.266635      20.047001      20.857         19345.019      5756.8442      3117.7482      2893.0186      430.63989      272.67242     -899.99492    
  32591500   262.32782     -350.84278     -273.97214     -350.87146      0              1489.6652      46.392774      20.047001      20.857         19397.76       3007.0567     -441.21218      1903.1512      43.269576     -257.5771      -223.10049    
  32592000   265.90884     -350.4247      -272.5047      -350.45339      0              4803.8014      46.083083      20.047001      20.857         19268.272      5563.8734      4663.0503      4184.4806     -1648.1806     -345.93841      415.62056    
  32592500   263.48681     -348.96723     -271.75696     -348.9674       0              4378.4215      46.048493      20.047001      20.857         19253.81       4336.6915      2799.607       5998.966       352.54456      1374.7842     -108.25692    
  32593000   270.14149     -347.55392     -268.39362     -347.56477      0              5933.786       46.231384      20.047001      20.857         19330.28       7263.5159      8338.5917      2199.2506      228.21931     -324.04047      142.43862    
  32593500   264.04839     -346.65066     -269.27584     -346.67583      0              4968.48        46.469859      20.047001      20.857         19429.991      4657.1888      4622.5733      5625.6779     -1360.3061      689.12885     -543.71819    
  32594000   261.00265     -348.24406     -271.76173     -348.23831      0              6953.6192      46.124528      20.047001      20.857         19285.601      8735.5638      5521.9832      6603.3105      462.23733      662.84693     -173.01103    
  32594500   263.4318      -345.74867     -268.55452     -345.76774      0              6194.5792      45.88164       20.047001      20.857         19184.045      8012.961       5971.2873      4599.4893     -766.32077      1329.3609      293.93694    
  32595000   260.06569     -348.82326     -272.61549     -348.79491      0              6292.6395      46.292299      20.047001      20.857         19355.75       8877.4762      3367.0342      6633.4082     -281.41337     -1145.7458     -296.37836    
  32595500   268.60346     -350.44118     -271.73157     -350.44064      0              3474.7354      46.473025      20.047001      20.857         19431.315      3535.3387      3187.1194      3701.7483      557.874       -69.373368     -44.528082    
  32596000   261.54806     -349.36381     -272.72166     -349.38049      0              2845.2096      46.284688      20.047001      20.857         19352.568      5177.4338     -0.38545175     3358.5805     -1430.6456     -320.70044      31.190689    
  32596500   269.19998     -351.00956     -272.12515     -351.01405      0              4936.815       46.085925      20.047001      20.857         19269.461      5872.9532      2851.6468      6085.845       962.3906      -429.34791      149.16855    
  32597000   259.48214     -351.01079     -274.97402     -351.00142      0              4310.6166      46.200602      20.047001      20.857         19317.41       4466.2251      4316.0631      4149.5615     -947.25368     -188.34914     -1262.7398    
  32597500   262.51942     -351.1145      -274.18771     -351.10327      0              4166.2751      46.240025      20.047001      20.857         19333.893      5138.5513      1396.2449      5964.029      -386.07088      77.299999     -2686.3387    
  32598000   265.36646     -350.81404     -273.05298     -350.81409      0              5416.5721      46.21447       20.047001      20.857         19323.208      6436.8973      5684.2479      4128.571      -608.19821     -94.322202     -1030.9241    
  32598500   259.37433     -349.81952     -273.81435     -349.78361      0              4902.1183      46.086796      20.047001      20.857         19269.825      5557.154       4710.5581      4438.6428     -18.791489      450.15473     -141.87907    
  32599000   270.52814     -352.57019     -273.29659     -352.54766      0              4506.4728      46.044         20.047001      20.857         19251.931      4356.9571      6440.932       2721.5293     -557.67489      1086.9669     -294.64771    
  32599500   268.35081     -351.20343     -272.56785     -351.16006      0              4932.019       46.005131      20.047001      20.857         19235.679      5800.7029      4471.1292      4524.225      -678.77278     -382.13451      2259.3182    
  32600000   264.36913     -348.98788     -271.51907     -348.99852      0              4499.7416      46.080434      20.047001      20.857         19267.165      3269.8832      4636.0018      5593.3398     -909.49448     -19.184943      2214.2824    
  32600500   260.61924     -349.68437     -273.3144      -349.67443      0              6658.8538      46.378213      20.047001      20.857         19391.672      7282.4463      7040.8147      5653.3004     -661.84362     -603.68749      2096.3822    
  32601000   260.50134     -345.73654     -269.40112     -345.73104      0              4698.7106      46.397097      20.047001      20.857         19399.568      5997.5283      3624.5511      4474.0525     -1113.1459     -328.16709     -1395.2306    
  32601500   264.97007     -350.71136     -273.06645     -350.71449      0              3600.4021      46.012824      20.047001      20.857         19238.896      3670.6561      4695.7485      2434.8017      741.61109      754.94053     -201.70025    
  32602000   258.97251     -349.79849     -273.91106     -349.80132      0              3287.4509      46.041018      20.047001      20.857         19250.684      3666.1974      2609.1238      3587.0316     -490.98449      1117.848      -2031.3185    
  32602500   266.7443      -348.74058     -270.57576     -348.76486      0              4472.2089      46.584616      20.047001      20.857         19477.974      3885.4082      3442.3083      6088.9104     -108.08802     -1035.3187      1359.6704    
  32603000   260.54613     -348.05282     -271.70427     -348.06588      0              2720.0185      46.521392      20.047001      20.857         19451.538      3889.1671      4011.55        259.33842      243.55007      451.8465      -84.859399    
  32603500   267.98223     -350.5373      -272.00973     -350.55877      0              5383.7493      46.202488      20.047001      20.857         19318.198      6348.4257      5010.7869      4792.0353     -1815.426      -641.7252      -545.04095    
  32604000   258.40063     -351.42848     -275.70863     -351.4088       0              4812.1984      46.222959      20.047001      20.857         19326.757      6526.0621      3644.862       4265.6712      537.25054      460.19039      2792.9165    
  32604500   264.60163     -349.83362     -272.29667     -349.84735      0              2961.8171      46.358078      20.047001      20.857         19383.253      4907.9905      1693.5124      2283.9485     -316.78827      2889.9731     -290.42689    
  32605000   258.95511     -349.16282     -273.2805      -349.20516      0              3456.2478      46.412101      20.047001      20.857         19405.841      3888.386       3278.6159      3201.7414     -1114.2623     -291.02183     -722.12224    
  32605500   263.24109     -345.08285     -267.94459     -345.1122       0              7146.6613      46.146986      20.047001      20.857         19294.992      6195.7423      8878.1158      6366.1258      863.30705      469.35407     -1172.3301    
  32606000   266.91532     -350.25603     -272.0411      -350.26298      0              5806.0818      46.060302      20.047001      20.857         19258.747      5337.089       5671.9331      6409.2233     -47.715935     -164.36239      1379.0422    
  32606500   271.29388     -347.66512     -268.16713     -347.67937      0              5936.4896      46.331286      20.047001      20.857         19372.051      7085.1906      6451.0237      4273.2545      168.79816      338.10026     -1460.7415    
  32607000   265.1496      -346.08079     -268.38327     -346.10854      0              4130.5703      46.517223      20.047001      20.857         19449.795      7276.9769      2637.3018      2477.4322      1260.9587      420.74297      554.94751    
  32607500   268.83177     -348.43871     -269.6622      -348.45184      0              4716.7287      46.406674      20.047001      20.857         19403.572      5490.0335      3887.6496      4772.503       1546.8335     -811.54534      603.309      
  32608000   265.77974     -348.53662     -270.65445     -348.53069      0              5420.3808      46.283688      20.047001      20.857         19352.149      5080.6948      6212.7502      4967.6973     -6.4821242      3754.1137     -897.94391    
  32608500   267.93485     -350.65536     -272.14168     -350.66491      0              5641.8076      46.47429       20.047001      20.857         19431.844      6710.1036      4483.78        5731.539       354.43126     -853.65305     -1865.3265    
  32609000   262.86797     -349.49744     -272.46852     -349.5245       0              4866.7354      46.716198      20.047001      20.857         19532.991      5765.2447      7719.4646      1115.4968     -834.56497     -1281.3439      601.28007    
  32609500   266.0073      -348.17789     -270.22903     -348.17584      0              2210.5745      46.38504       20.047001      20.857         19394.527      2860.085       1693.4066      2078.2319     -383.12188      74.847841     -78.745229    
  32610000   260.62731     -347.69713     -271.32479     -347.72827      0              5975.3258      46.143625      20.047001      20.857         19293.587      6613.3222      5599.5072      5713.1481     -583.55029      2440.3799     -2020.4964    
  32610500   259.50861     -347.692       -271.64748     -347.7307       0              6432.4034      46.134534      20.047001      20.857         19289.785      8109.6972      6054.025       5133.4881     -758.27715     -107.30542      430.02919    
  32611000   263.7473      -348.20224     -270.91565     -348.22303      0              4399.5185      46.272439      20.047001      20.857         19347.446      3702.271       5287.824       4208.4607     -454.44579      45.30115       722.23853    
  32611500   269.95884     -347.05139     -267.94461     -347.07191      0              5580.8325      46.114198      20.047001      20.857         19281.282      4678.5976      5152.6354      6911.2646     -1166.1985     -775.34465     -567.31433    
  32612000   274.399       -346.89531     -266.48742     -346.9024       0              3997.1229      45.901103      20.047001      20.857         19192.183      4974.0028      5297.8296      1719.5362      950.55271     -345.09758     -1258.492     
  32612500   273.65326     -348.27792     -268.08855     -348.32416      0              4041.1125      46.060407      20.047001      20.857         19258.791      3264.3974      4044.7351      4814.2051     -90.321948     -696.6069       2036.1786    
  32613000   263.25959     -346.69441     -269.55073     -346.70264      0              3487.7976      46.368255      20.047001      20.857         19387.509      5887.5802      1682.2606      2893.552      -1356.8146     -1609.882       972.71804    
  32613500   269.24766     -345.10089     -266.20251     -345.11585      0              3176.2635      46.405947      20.047001      20.857         19403.269      1525.4471      4581.4986      3421.8448     -690.97077     -847.7025       647.97087    
  32614000   265.05714     -344.91466     -267.24424     -344.93617      0              6644.2795      46.116197      20.047001      20.857         19282.118      6734.7117      6117.9813      7080.1455      98.733667      1212.0766     -1532.1128    
  32614500   259.77482     -347.49465     -271.37212     -347.51051      0              4147.8811      46.145539      20.047001      20.857         19294.387      4623.3334      5827.3267      1992.9831      758.01273     -111.60092     -61.340532    
  32615000   262.31883     -347.59564     -270.72763     -347.61485      0              3484.678       46.417863      20.047001      20.857         19408.251      2494.3157      2289.1945      5670.5239     -321.66606     -222.19502     -95.96914     
  32615500   260.27309     -349.01246     -272.74393     -349.04292      0              4657.6235      46.294903      20.047001      20.857         19356.839      3647.9143      4528.7745      5796.1816     -556.66604     -677.33861     -169.33877    
  32616000   260.54855     -348.18281     -271.83355     -348.19237      0              5173.9502      46.074535      20.047001      20.857         19264.698      5628.8043      5748.6147      4144.4317     -162.05355     -163.55893      1570.8544    
  32616500   263.31081     -349.95134     -272.79265     -349.96586      0              5895.2373      46.168801      20.047001      20.857         19304.113      6068.497       4558.3078      7058.9071     -2704.0627      27.562959      402.04108    
  32617000   266.83697     -346.93459     -268.74261     -346.94615      0              4056.9645      46.40401       20.047001      20.857         19402.459      4989.312       2606.4615      4575.12       -906.83653     -1835.4758      382.60518    
  32617500   271.74909     -347.13162     -267.50024     -347.10986      0              5908.5663      46.170992      20.047001      20.857         19305.029      6674.0889      5086.1117      5965.4983     -170.12973     -1780.9191      2328.4508    
  32618000   270.21925     -348.23773     -269.05464     -348.26832      0              4174.7144      45.934433      20.047001      20.857         19206.119      3015.9441      3743.1096      5765.0894     -381.92118      1706.274      -991.69486    
  32618500   263.33236     -345.32161     -268.15661     -345.33474      0              4356.3467      46.273453      20.047001      20.857         19347.87       5482.6474      3755.4307      3830.962       287.64966      706.97468     -280.85108    
  32619000   270.76366     -347.34049     -267.99787     -347.38841      0              381.82129      46.572656      20.047001      20.857         19472.973      982.77509      246.61572     -83.926945     -741.99599     -356.6017       445.39662    
  32619500   268.4653      -348.51698     -269.84785     -348.5425       0              4527.8516      46.102287      20.047001      20.857         19276.302      4514.7585      4230.5591      4838.2372      1156.9811     -1152.8358      1024.2532    
  32620000   266.28156     -348.78621     -270.75699     -348.82346      0              3161.6261      45.911065      20.047001      20.857         19196.348      5196.1518      1344.9326      2943.794      -1397.8292      270.32316     -892.39397    
  32620500   263.79759     -345.90349     -268.60216     -345.96574      0              2504.5346      46.116997      20.047001      20.857         19282.453      230.31955      4177.2027      3106.0816     -409.79351     -1668.2261     -414.57687    
  32621000   260.51539     -349.1092      -272.76966     -349.13188      0              5889.8547      46.392595      20.047001      20.857         19397.686      7683.0338      4921.7872      5064.7432     -1546.2854     -27.960789     -16.095769    
  32621500   263.20234     -350.36432     -273.23741     -350.37226      0              3420.5757      46.269227      20.047001      20.857         19346.103      3047.6324      4830.3022      2383.7926      1734.3255     -1648.785      -891.89963    
  32622000   267.82803     -348.76874     -270.28636     -348.79959      0              5787.5796      46.187322      20.047001      20.857         19311.857      4830.9189      6076.3506      6455.4693      25.738103     -876.85936     -709.15007    
  32622500   275.10815     -345.29576     -264.68006     -345.32452      0              4087.176       46.255745      20.047001      20.857         19340.466      4055.3721      4801.7781      3404.3777      1500.2526     -706.8664       509.73647    
  32623000   274.64564     -346.41594     -265.93577     -346.43144      0              5967.4543      46.297121      20.047001      20.857         19357.766      7426.4675      5130.2472      5345.6483     -782.49724     -899.7189       502.47605    
  32623500   260.79747     -346.59294     -270.17074     -346.61322      0              2385.82        46.448944      20.047001      20.857         19421.246      504.12761      4035.5719      2617.7605     -40.774323     -1666.0545      360.33645    
  32624000   270.51613     -348.8725      -269.60242     -348.89578      0              4209.7717      46.228364      20.047001      20.857         19329.017      5352.3469      3229.0929      4047.8754     -441.63724      11.44187       514.20952    
  32624500   265.67464     -348.24911     -270.39775     -348.2635       0              5375.5796      45.985639      20.047001      20.857         19227.529      3490.2517      6330.4596      6306.0275     -1089.1063     -905.6098      -279.94855    
  32625000   267.03605     -347.96264     -269.71233     -347.9766       0              3874.1603      45.978473      20.047001      20.857         19224.533      7799.7821      1051.1079      2771.591       605.64972      65.68443      -867.45675    
  32625500   264.99032     -349.24398     -271.59314     -349.25854      0              3042.2021      46.334389      20.047001      20.857         19373.349      4304.3957      3044.435       1777.7755      680.54183      83.17871       1216.7549    
  32626000   264.29727     -348.99971     -271.55196     -349.04117      0              2653.0529      46.626919      20.047001      20.857         19495.661      721.98387      5280.5682      1956.6067      1422.9415     -1023.5465      24.308388    
  32626500   265.66199     -348.79508     -270.94741     -348.8637       0              5370.3349      46.362547      20.047001      20.857         19385.122      5479.5339      4658.0934      5973.3773     -1946.8715     -785.76788      1024.8966    
  32627000   264.26475     -350.6037      -273.16547     -350.60411      0              5113.9484      46.16098       20.047001      20.857         19300.843      6209.6856      4749.2834      4382.8763      848.89949     -914.20132      118.24691    
  32627500   264.97965     -347.04347     -269.39576     -347.07032      0              4337.5333      46.390919      20.047001      20.857         19396.985      6029.6875      3134.723       3848.1894     -1160.7101      926.65943     -948.52375    
  32628000   259.06821     -346.79713     -270.88166     -346.81072      0              5552.6954      46.642092      20.047001      20.857         19502.005      6478.3339      5020.8806      5158.8718      847.25652     -705.99872     -859.43334    
  32628500   263.08687     -350.91542     -273.82235     -350.93         0              3795.9184      46.481895      20.047001      20.857         19435.024      4055.9081      2523.1089      4808.7381     -541.25674     -91.187649      832.86577    
  32629000   272.82846     -351.87956     -271.93189     -351.89476      0              6132.6242      46.257327      20.047001      20.857         19341.128      7363.7286      6212.9717      4821.1724     -2008.1869     -1067.3349     -1025.1462    
  32629500   260.39077     -349.05796     -272.75494     -349.06996      0              6484.3857      46.358353      20.047001      20.857         19383.368      8156.9957      5512.8665      5783.295       230.7299       1656.3174      405.48391    
  32630000   272.20687     -348.5689      -268.80337     -348.54585      0              4336.9458      46.380038      20.047001      20.857         19392.435      2712.5944      5961.9002      4336.3429     -93.668964      1792.6649     -1774.1699    
  32630500   258.03412     -348.37917     -272.76672     -348.35742      0              4481.3057      46.371558      20.047001      20.857         19388.89       4696.6466      3431.8945      5315.3761      923.17323      330.75152      670.64883    
  32631000   264.74111     -346.42783     -268.85001     -346.42543      0              4322.2476      46.289788      20.047001      20.857         19354.7        4885.5037      3089.5117      4991.7274     -175.34892      482.39601      677.25476    
  32631500   268.0659      -349.62466     -271.07258     -349.65451      0              4570.6985      46.498228      20.047001      20.857         19441.853      4462.2106      4763.5402      4486.3446      322.92278     -548.52451     -811.36976    
  32632000   260.21322     -350.69292     -274.44192     -350.68817      0              4541.1838      46.56951       20.047001      20.857         19471.657      4665.7659      4434.282       4523.5035     -597.92381      1019.8712     -75.349719    
  32632500   262.61461     -348.3418      -271.38712     -348.345        0              5564.9744      46.634403      20.047001      20.857         19498.791      7419.9554      4977.4389      4297.5289      814.1889      -1377.4033     -912.14515    
  32633000   267.1323      -349.87604     -271.59753     -349.86059      0              3539.8868      46.470142      20.047001      20.857         19430.11       3528.6828      4209.0603      2881.9172      407.94715     -1059.2596     -1567.168     
  32633500   266.45424     -350.92039     -272.84057     -350.91482      0              5690.18        46.446865      20.047001      20.857         19420.377      4793.8862      7111.4848      5165.1691      1624.2674     -468.66356      1901.7447    
  32634000   255.81109     -346.84846     -271.88743     -346.85898      0              5152.4568      46.452073      20.047001      20.857         19422.555      5084.0632      5283.9823      5089.3249      472.37527      1984.9465     -3570.9133    
  32634500   258.61047     -348.35341     -272.57207     -348.36654      0              5785.9206      46.31851       20.047001      20.857         19366.709      4392.3116      7182.1475      5783.3026     -65.92625       187.02039      719.68557    
  32635000   261.64593     -348.96482     -272.29399     -348.97514      0              5410.851       46.368861      20.047001      20.857         19387.762      5270.6487      5214.6564      5747.2478     -635.16297     -405.32699     -1499.1823    
  32635500   273.07429     -348.72426     -268.70455     -348.75573      0              3277.7185      46.405417      20.047001      20.857         19403.047      4018.6197      3499.662       2314.8738      609.44413     -1462.3186      1632.432     
  32636000   270.50713     -348.19336     -268.92591     -348.20841      0              4133.8127      46.26072       20.047001      20.857         19342.546      5762.404       3275.9454      3363.0886      1075.8619     -97.377085     -527.34201    
  32636500   258.39454     -348.96742     -273.24936     -348.98853      0              5561.6156      46.393285      20.047001      20.857         19397.974      5866.0699      3607.8575      7210.9194      844.31408     -605.65263     -687.82586    
  32637000   266.7307      -349.10588     -270.94505     -349.11339      0              6417.4982      46.52324       20.047001      20.857         19452.311      6544.5229      5236.5453      7471.4263     -252.92474      230.67462     -37.401541    
  32637500   258.76519     -349.42259     -273.59592     -349.4346       0              3833.6881      46.306351      20.047001      20.857         19361.625      4718.7661      4009.8864      2772.4117     -86.259182     -170.96706      319.35552    
  32638000   266.44577     -349.58241     -271.50508     -349.5658       0              4378.0092      46.14272       20.047001      20.857         19293.208      5094.679       4075.9692      3963.3796      91.935523      880.15716      497.5806     
  32638500   272.90512     -347.9542      -267.98406     -347.95006      0              5787.0795      46.415483      20.047001      20.857         19407.256      4103.0111      5979.8069      7278.4204      1463.5342     -129.72328      488.7689     
  32639000   265.01309     -347.20422     -269.54671     -347.22943      0              3283.3483      46.301086      20.047001      20.857         19359.424      2168.4671      3113.0927      4568.485       453.18111     -133.42488     -844.93986    
  32639500   268.67852     -348.74582     -270.01421     -348.7295       0              4915.8173      45.987085      20.047001      20.857         19228.134      5496.2728      3608.4439      5642.7351      1319.6058     -671.06489      609.38324    
  32640000   270.50656     -351.14221     -271.87493     -351.1205       0              5750.0291      46.120287      20.047001      20.857         19283.828      2556.6392      9070.6924      5622.7556      417.29495      1359.657       385.05376    
  32640500   282.25313     -350.38295     -267.67354     -350.35788      0              6934.1555      46.130941      20.047001      20.857         19288.283      8199.3834      5189.0322      7414.051       469.82291     -1374.5573      1271.8067    
  32641000   268.3047      -349.91168     -271.28962     -349.92465      0              5299.9978      46.167062      20.047001      20.857         19303.386      6380.9591      4362.6183      5156.416       939.63048     -771.95561     -255.70192    
  32641500   259.28722     -350.21545     -274.2358      -350.21139      0              4743.9284      46.326963      20.047001      20.857         19370.244      5219.8931      5288.7402      3723.152       1526.4877     -380.53953     -479.94275    
  32642000   258.1741      -350.4423      -274.78883     -350.4327       0              4906.1873      46.343347      20.047001      20.857         19377.094      6419.1807      4407.818       3891.5633      347.38101     -265.56874      1029.6227    
  32642500   266.40962     -348.74843     -270.68169     -348.73995      0              3494.5436      46.304251      20.047001      20.857         19360.747      3424.7932      4516.7103      2542.1272     -314.17459      1616.3687     -717.05125    
  32643000   259.17345     -350.0877      -274.14139     -350.09591      0              4122.8834      46.412649      20.047001      20.857         19406.071      3213.6581      4315.8602      4839.1319     -811.29285      404.85069      1097.9085    
  32643500   260.74464     -350.8607      -274.45398     -350.85924      0              2470.5407      46.159899      20.047001      20.857         19300.391      1561.0874      3553.8032      2296.7317     -1319.8078     -770.52952      1602.4643    
  32644000   258.72383     -351.32574     -275.51119     -351.33615      0              4910.6523      46.077035      20.047001      20.857         19265.744      4064.2007      4243.7236      6424.0324      305.48558      506.29551      68.817761    
  32644500   263.38894     -349.87736     -272.69578     -349.8953       0              5019.6088      46.229982      20.047001      20.857         19329.694      5035.4902      4569.0598      5454.2763      99.42666      -1537.6672     -751.86877    
  32645000   267.76007     -348.29055     -269.82808     -348.27306      0              2775.5907      46.38442       20.047001      20.857         19394.268      4218.5163      2052.6763      2055.5796      843.37089      154.70286      819.37453    
  32645500   272.31757     -349.12721     -269.32925     -349.11871      0              5649.1178      46.231806      20.047001      20.857         19330.457      7272.9429      4598.6871      5075.7234      161.11629      27.162642     -200.56836    
  32646000   266.40317     -351.66924     -273.60439     -351.65438      0              4997.0568      45.897652      20.047001      20.857         19190.74       6246.261       3257.4561      5487.4534      216.99569     -808.69191     -245.39043    
  32646500   265.32879     -350.47421     -272.72419     -350.41956      0              7181.499       45.974991      20.047001      20.857         19223.077      6189.6015      9092.4469      6262.4487     -1448.1675      1270.7622      1268.646     
  32647000   268.47649     -348.80344     -270.13104     -348.79262      0              4970.6861      46.228708      20.047001      20.857         19329.161      5723.487       4361.5382      4827.0331      1113.2849     -243.55904      504.21955    
  32647500   270.0017      -348.76547     -269.64612     -348.76942      0              4737.4593      46.144471      20.047001      20.857         19293.94       4487.3223      6944.3363      2780.7192      110.89943     -2494.6211      376.16826    
  32648000   277.0315      -350.38874     -269.20944     -350.35445      0              4160.4107      46.017257      20.047001      20.857         19240.749      5799.1185      4069.9767      2612.1368     -1338.3528      1849.1587     -979.45245    
  32648500   265.56768     -351.34149     -273.52146     -351.3018       0              4695.2955      46.227573      20.047001      20.857         19328.687      1939.944       5431.5406      6714.4018     -305.03005     -377.16328      420.58784    
  32649000   258.28513     -352.45424     -276.76824     -352.41189      0              4279.8388      46.135816      20.047001      20.857         19290.321      3878.1904      6124.6527      2836.6732      502.14976      1095.2816     -1749.8224    
  32649500   256.67808     -350.56098     -275.3459      -350.52388      0              5216.9941      46.152082      20.047001      20.857         19297.122      6358.8551      4941.2951      4350.8322     -733.61841      1415.8473      359.40156    
  32650000   264.59737     -350.98365     -273.44796     -350.92391      0              5005.0645      46.283083      20.047001      20.857         19351.896      4111.4978      7264.8491      3638.8465     -342.97519      793.00895      210.44898    
  32650500   269.40975     -349.63341     -270.68753     -349.62839      0              4748.5944      46.297977      20.047001      20.857         19358.124      4864.7514      5119.287       4261.7448      982.80121      2329.3421      367.98018    
  32651000   258.81829     -349.52037     -273.67813     -349.48497      0              3615.9247      46.262727      20.047001      20.857         19343.385      3202.5055      3787.3121      3857.9564      1133.7674      1197.4101      292.64982    
  32651500   263.67268     -352.89528     -275.63055     -352.88223      0              5755.3757      46.122406      20.047001      20.857         19284.714      7093.9828      4300.7017      5871.4427     -1531.9687     -318.06831      346.45028    
  32652000   259.89743     -348.37739     -272.21893     -348.31677      0              4500.468       46.063203      20.047001      20.857         19259.96       2969.6444      6038.2249      4493.5346      358.38064      789.42063      170.39883    
  32652500   268.16872     -354.70855     -276.12633     -354.70314      0              3274.3199      46.323025      20.047001      20.857         19368.597      4444.6268      1567.6121      3810.7207      636.49815      424.27198      309.83812    
  32653000   262.35785     -350.49176     -273.61232     -350.46618      0              4888.2697      46.258252      20.047001      20.857         19341.514      5583.8905      4757.0236      4323.895       481.54374      922.90548     -902.24132    
  32653500   263.97353     -348.63073     -271.27784     -348.60213      0              4102.2865      45.942349      20.047001      20.857         19209.429      2975.8629      6929.3653      2401.6314     -1106.5817     -1545.083      -1654.068     
  32654000   267.66236     -350.62392     -272.19009     -350.55936      0              5366.7672      45.853456      20.047001      20.857         19172.261      5068.2012      5461.0358      5571.0646     -641.54961      1742.4667     -577.68415    
  32654500   263.01791     -351.5505      -274.47764     -351.48952      0              3653.9688      46.170279      20.047001      20.857         19304.731      3713.6342      4470.723       2777.5492      4.0046685     -1720.072       349.676      
  32655000   265.67681     -348.64351     -270.79151     -348.60017      0              5118.5511      46.279851      20.047001      20.857         19350.545      7446.6468      2881.304       5027.7024      535.72617      1304.536       270.91003    
  32655500   266.84784     -348.7615      -270.56634     -348.73431      0              3690.6243      46.406404      20.047001      20.857         19403.459      5248.4299      2076.134       3747.3089      331.32793     -125.33351     -1422.1704    
  32656000   268.07421     -349.53535     -270.98082     -349.49211      0              7035.1082      46.016029      20.047001      20.857         19240.236      7737.1772      6056.9716      7311.1759     -577.67227     -983.35339      592.81109    
  32656500   265.93899     -349.62882     -271.69999     -349.59855      0              5432.176       45.890463      20.047001      20.857         19187.734      6456.582       5610.363       4229.5829     -579.52174     -506.091       -744.53556    
  32657000   264.6603      -347.65843     -270.1043      -347.64554      0              4828.8887      46.15146       20.047001      20.857         19296.862      5782.433       5210.9561      3493.277      -591.35099     -36.631195     -1261.01      
  32657500   273.44288     -349.42647     -269.29875     -349.40768      0              3629.0738      46.407326      20.047001      20.857         19403.845      4518.8973      2055.9026      4312.4216      381.92259     -1774.5158      69.61733     
  32658000   272.55678     -351.71984     -271.85178     -351.68257      0              4142.8241      46.187545      20.047001      20.857         19311.95       2093.0881      5237.2671      5098.117       554.64921     -140.7572      -267.1137     
  32658500   262.49359     -347.55742     -270.6382      -347.55712      0              4319.0049      45.986438      20.047001      20.857         19227.863      5572.2102      4011.4274      3373.3771      415.82095     -1828.3503     -216.00102    
  32659000   272.77862     -348.01587     -268.0828      -348.01045      0              3252.5451      46.28861       20.047001      20.857         19354.207      3634.7899      2046.5547      4076.2909      962.44487     -1090.4023      249.20736    
  32659500   260.3392      -349.28155     -272.99364     -349.31406      0              6370.847       46.64289       20.047001      20.857         19502.339      7610.7841      6686.6019      4815.1549      928.23665      411.60582      10.377561    
  32660000   265.70593     -350.04754     -272.18701     -350.02902      0              4667.699       46.541098      20.047001      20.857         19459.778      2796.944       5307.7129      5898.4401     -403.33195     -747.19701     -976.1959     
  32660500   267.03199     -349.29939     -271.05028     -349.30049      0              2893.4293      46.236831      20.047001      20.857         19332.558      2272.6153      3168.8295      3238.8429      43.74882       3293.5146     -811.29162    
  32661000   265.52221     -349.1466      -271.3399      -349.17446      0              2637.5125      46.381777      20.047001      20.857         19393.163      3008.5014      3154.3496      1749.6866     -659.80059      401.42704      534.46181    
  32661500   256.65043     -350.3742      -275.16722     -350.38562      0              3108.5849      46.471483      20.047001      20.857         19430.671      6618.7324      1477.876       1229.1461      125.43629      348.95192     -1557.6983    
  32662000   257.96239     -349.28832     -273.69689     -349.28873      0              4202.0486      46.349802      20.047001      20.857         19379.793      6361.1697      1442.4013      4802.5749      119.27245     -287.49893      175.96855    
  32662500   259.49224     -347.73393     -271.69421     -347.74487      0              4181.4787      46.151446      20.047001      20.857         19296.856      5709.6992      2389.8329      4444.904      -1213.656      -1837.3132     -1611.2775    
  32663000   255.55587     -348.37337     -273.48713     -348.3632       0              6122.8011      46.192631      20.047001      20.857         19314.077      4147.5685      8397.3215      5823.5132     -1276.0831      2193.8767     -453.36526    
  32663500   261.32492     -349.53284     -272.95608     -349.56305      0              5758.7093      46.256608      20.047001      20.857         19340.827      6731.9561      3965.381       6578.7907     -84.917674     -233.29972      277.38061    
  32664000   261.6685      -347.2149      -270.53746     -347.2024       0              5798.0753      46.2972        20.047001      20.857         19357.799      7012.9401      4487.9069      5893.379       930.44415      2901.4706     -1448.6659    
  32664500   262.86639     -350.32985     -273.30139     -350.335        0              3736.428       46.433499      20.047001      20.857         19414.788      3658.232       3873.6984      3677.3538      40.428628     -1065.5652      839.7389     
  32665000   264.21901     -351.60951     -274.18468     -351.62765      0              6234.9399      46.358771      20.047001      20.857         19383.543      7317.8165      4674.6042      6712.3991      47.289288      1101.8461     -234.46361    
  32665500   260.6367      -350.43665     -274.06156     -350.44921      0              6464.347       46.453117      20.047001      20.857         19422.991      7696.2813      5807.9195      5888.8402      245.38101     -1706.1552     -957.16178    
  32666000   258.85269     -347.24069     -271.38837     -347.26959      0              4590.8392      46.553993      20.047001      20.857         19465.169      5475.1207      4464.2843      3833.1125      33.517253     -1291.942       2298.9377    
  32666500   270.77407     -347.57997     -268.2343      -347.6057       0              4076.4795      46.283939      20.047001      20.857         19352.254      3353.9476      5036.8204      3838.6706      732.96836     -436.513       -68.37682     
  32667000   272.59591     -347.699       -267.81948     -347.71822      0              6576.2244      46.336799      20.047001      20.857         19374.356      5902.9896      6133.8766      7691.807      -1379.3801     -2.8044743      147.20562    
  32667500   267.60687     -347.88778     -269.4702      -347.90363      0              2001.7245      46.589796      20.047001      20.857         19480.14       1388.3705      2083.7178      2533.0852      1361.9475     -36.859464      964.55739    
  32668000   267.90027     -349.59709     -271.09354     -349.58892      0              6656.848       46.419013      20.047001      20.857         19408.732      4567.2525      9806.3252      5596.9662     -924.53702     -608.43074      321.51741    
  32668500   266.41173     -351.70181     -273.63445     -351.70935      0              5829.1988      46.247898      20.047001      20.857         19337.185      3846.991       9614.3072      4026.2981     -773.68017      1209.9067     -515.29207    
  32669000   266.59815     -352.23003     -274.10804     -352.23461      0              5828.0947      46.314511      20.047001      20.857         19365.037      6025.6766      4635.2987      6823.3089      289.41012      356.18366     -353.76315    
  32669500   258.71711     -351.88799     -276.07541     -351.88093      0              5220.7106      46.347661      20.047001      20.857         19378.898      3735.6505      7621.2751      4305.206       339.3571       131.19482     -348.32536    
  32670000   270.05364     -351.859       -272.72443     -351.84567      0              4855.7263      46.341153      20.047001      20.857         19376.177      5203.3047      4045.5994      5318.275       398.05025     -42.878031     -1447.2941    
  32670500   260.64353     -349.82365     -273.44656     -349.81859      0              4997.0273      46.353908      20.047001      20.857         19381.51       4485.5067      5962.8967      4542.6784      1094.3862      313.02954      570.28366    
  32671000   268.95806     -352.67372     -273.8602      -352.62992      0              3021.3428      46.546756      20.047001      20.857         19462.144      3123.7811      3002.3         2937.9474     -332.97357      1307.1465      1239.6775    
  32671500   264.6055      -347.40651     -269.86844     -347.41051      0              5011.4282      46.72236       20.047001      20.857         19535.567      3906.1257      5099.3539      6028.8051     -962.35253      590.73845      465.8114     
  32672000   261.50776     -348.32792     -271.69758     -348.31577      0              7022.7571      46.388091      20.047001      20.857         19395.803      6165.2236      7172.9617      7730.0861     -930.70246      472.96271      458.78201    
  32672500   269.73354     -347.39858     -268.35782     -347.37947      0              3916.375       46.311453      20.047001      20.857         19363.759      4368.7348      2882.3795      4498.0107      38.299778     -1849.2373      4.2621104    
  32673000   262.32724     -347.00311     -270.13264     -346.98559      0              2518.5014      46.685901      20.047001      20.857         19520.323      2999.018       3251.6741      1304.8121      48.069291      1493.1382      65.648192    
  32673500   276.47964     -347.21193     -266.19434     -347.22734      0              4437.9602      46.772233      20.047001      20.857         19556.42       3768.2692      4181.8965      5363.715      -296.10836     -202.41869      29.27904     
  32674000   266.93356     -348.68833     -270.46805     -348.67635      0              3781.9077      46.481586      20.047001      20.857         19434.895      5175.1848      4744.4005      1426.1379     -894.1024       878.45566     -976.85823    
  32674500   261.59362     -348.76292     -272.10742     -348.74916      0              4709.3334      46.215049      20.047001      20.857         19323.45       4557.2008      4479.4946      5091.3049      650.28467      185.27389     -60.048062    
  32675000   267.62864     -349.10767     -270.68371     -349.06751      0              3871.2008      46.194981      20.047001      20.857         19315.059      2811.9344      6015.4502      2786.2178      120.03509     -522.98927     -1058.9537    
  32675500   264.27436     -349.8675      -272.42645     -349.86791      0              2519.9224      46.601071      20.047001      20.857         19484.854      4320.0651      1559.8331      1679.869      -944.04352      1319.5763      39.726103    
  32676000   259.59549     -349.25902     -273.18903     -349.2924       0              3951.3988      47.060641      20.047001      20.857         19677.009      5093.1337      3707.14        3053.9228      1659.0548      328.31339     -727.64077    
  32676500   256.50173     -350.44687     -275.28346     -350.46052      0              4136.7864      46.86248       20.047001      20.857         19594.154      1162.5711      7119.316       4128.4723      88.030189      1237.4825     -571.26114    
  32677000   269.35432     -349.76416     -270.83452     -349.76052      0              5904.2333      46.395073      20.047001      20.857         19398.722      8212.8359      6203.7801      3296.084       597.98364     -279.20308     -254.20625    
  32677500   265.79714     -350.42464     -272.53738     -350.43453      0              6370.2989      46.667422      20.047001      20.857         19512.596      5440.203       7947.0067      5723.6872      1099.4059     -2090.4565      67.70328     
  32678000   263.64973     -349.36442     -272.10642     -349.39743      0              3878.8027      46.921991      20.047001      20.857         19619.037      4194.6255      3649.7247      3792.0579     -1110.4162     -1515.5449     -1568.9186    
  32678500   255.95463     -348.79875     -273.79566     -348.82603      0              5121.4616      46.818799      20.047001      20.857         19575.89       6379.5851      4278.8255      4705.9742     -671.89848      789.71515     -124.80087    
  32679000   257.05055     -347.74062     -272.41639     -347.79709      0              3258.101       46.566277      20.047001      20.857         19470.306      2526.8996      4747.2506      2500.1528      760.77476      2083.9341      1178.7534    
  32679500   260.06421     -350.50838     -274.30105     -350.5105       0              5033.9313      46.514155      20.047001      20.857         19448.512      4762.6782      4934.8023      5404.3135      608.77376     -1602.389       1639.618     
  32680000   260.15137     -350.09936     -273.86648     -350.11182      0              4766.554       46.746209      20.047001      20.857         19545.539      3063.9048      5215.7045      6020.0526      333.04121      843.24931     -51.84106     
  32680500   258.91652     -349.93344     -274.06242     -349.96544      0              4283.0226      46.655109      20.047001      20.857         19507.448      4876.0073      6507.9028      1465.1578      1228.6271     -547.12279      267.89573    
  32681000   262.27201     -350.80488     -273.95059     -350.83737      0              4846.1135      46.457936      20.047001      20.857         19425.006      6920.9289      3678.2732      3939.1385     -107.0458       1140.5878      713.28671    
  32681500   272.5697      -346.86318     -266.99133     -346.905        0              5522.5241      46.569086      20.047001      20.857         19471.48       6801.6811      5064.7121      4701.1791     -1091.7565     -382.77647      170.72247    
  32682000   265.54206     -349.08819     -271.27567     -349.1038       0              3918.6298      46.776827      20.047001      20.857         19558.341      4056.6944      3971.9037      3727.2912      240.11849      61.319258     -246.24431    
  32682500   260.97744     -349.76291     -273.28798     -349.77831      0              3305.4112      46.703171      20.047001      20.857         19527.544      3574.3666      3379.9908      2961.8762     -1889.4571      1453.9568      711.84647    
  32683000   274.11063     -349.51519     -269.1918      -349.51002      0              5476.5911      46.530912      20.047001      20.857         19455.519      5905.4701      4291.5161      6232.787       455.80441     -291.43572     -401.46094    
  32683500   274.8464      -347.65897     -267.11998     -347.68463      0              4203.857       46.650373      20.047001      20.857         19505.468      3448.5033      3856.3979      5306.6699      1864.9503      2539.8431     -383.38517    
  32684000   259.76976     -348.85713     -272.73609     -348.88541      0              4106.0367      46.626312      20.047001      20.857         19495.408      4466.8189      4858.2117      2993.0794     -312.84616      487.34768     -778.67053    
  32684500   267.53347     -352.44519     -274.04912     -352.43857      0              4335.6518      46.643155      20.047001      20.857         19502.45       2735.1658      4675.8913      5595.8984     -714.03837      1113.1339     -2599.3377    
  32685000   264.01836     -348.98446     -271.61843     -349.00436      0              4167.8139      46.630872      20.047001      20.857         19497.314      4039.6793      3366.5041      5097.2582     -632.43934      447.26524      1992.1233    
  32685500   269.56966     -348.91687     -269.92413     -348.94961      0              4833.2673      46.703583      20.047001      20.857         19527.716      6198.4715      4168.9862      4132.3443      1762.3052     -532.89011     -3313.677     
  32686000   269.27894     -349.95499     -271.04744     -349.96594      0              3107.9859      46.723986      20.047001      20.857         19536.247      1594.5275      2683.7255      5045.7047      497.94898     -1887.7685      723.38989    
  32686500   261.99177     -346.00086     -269.22869     -346.02978      0              3693.1947      46.494689      20.047001      20.857         19440.373      4442.3337      3505.9819      3131.2685      574.45909     -767.6007       2100.9883    
  32687000   266.39158     -347.34684     -269.28539     -347.36722      0              4873.3367      46.294867      20.047001      20.857         19356.824      5669.4853      5121.5021      3829.0226      8.2133315      1547.2245      247.00052    
  32687500   273.66243     -350.49441     -270.30236     -350.5135       0              4075.0307      46.497517      20.047001      20.857         19441.556      5590.8895      3972.8257      2661.377       283.19963      2233.6769     -577.20651    
  32688000   267.07059     -347.82021     -269.55978     -347.84359      0              3983.0152      46.922109      20.047001      20.857         19619.086      5057.8286      3693.6518      3197.5651     -836.93588     -1109.2907      1376.3887    
  32688500   267.93274     -346.76138     -268.24831     -346.78056      0              3404.8198      46.756454      20.047001      20.857         19549.823      3622.9393      1246.3931      5345.1271     -142.35003     -189.78602     -1420.6701    
  32689000   267.52422     -349.99562     -271.60226     -349.98181      0              5002.4304      46.59795       20.047001      20.857         19483.549      7021.7387      4275.608       3709.9446     -530.3204       23.19214      -1392.3757    
  32689500   261.75141     -347.74102     -271.03929     -347.75347      0              3959.6761      46.869482      20.047001      20.857         19597.082      3953.2564      5793.7627      2132.0092     -426.64716      1778.25        465.1229     
  32690000   264.66092     -345.89033     -268.33601     -345.9175       0              4340.5534      47.007409      20.047001      20.857         19654.752      7880.6173      1334.1499      3806.8931     -801.74418      327.28918     -159.96663    
  32690500   260.53538     -348.52425     -272.17885     -348.56262      0              5237.4852      46.785239      20.047001      20.857         19561.858      6280.6708      3895.9828      5535.8021      608.71085      382.78006      20.35962     
  32691000   264.88448     -348.51625     -270.89642     -348.52472      0              3680.7384      46.750621      20.047001      20.857         19547.384      4182.3776      4048.8102      2811.0274     -3087.6121      2628.1323     -870.94754    
  32691500   273.10946     -348.88521     -268.8552      -348.91535      0              5023.0555      46.883625      20.047001      20.857         19602.996      5481.8383      3795.5849      5791.7433      766.9196       1352.6268      515.33895    
  32692000   262.40107     -345.79015     -268.89805     -345.80271      0              6216.9911      46.503713      20.047001      20.857         19444.146      4834.5049      7253.8737      6562.5948     -639.22236     -329.65255     -2724.4225    
  32692500   257.86956     -344.2932      -268.72898     -344.30783      0              5582.3053      46.141681      20.047001      20.857         19292.774      4859.799       7056.2811      4830.836      -676.92746      645.72633      542.45938    
  32693000   261.00088     -347.86128     -271.37947     -347.87906      0              6601.3486      46.343174      20.047001      20.857         19377.022      8760.9884      4499.4878      6543.5696      14.373811      52.163184     -1140.822     
  32693500   276.05121     -350.07567     -269.18362     -350.08204      0              4078.0635      46.734265      20.047001      20.857         19540.545      4118.267       2966.2105      5149.7129      302.93846      171.9303       1589.9523    
  32694000   262.73744     -346.42921     -269.43853     -346.43681      0              4289.0237      46.69114       20.047001      20.857         19522.513      3819.2778      3867.0036      5180.7898     -899.6821       578.69541      621.18641    
  32694500   249.87941     -348.33468     -275.11184     -348.36625      0              5442.2888      46.371251      20.047001      20.857         19388.761      6916.8469      5619.9293      3790.0901      251.67441     -965.23623      1781.5694    
  32695000   261.58626     -350.11966     -273.46632     -350.11394      0              5274.0705      46.32563       20.047001      20.857         19369.686      6321.2802      4967.7235      4533.2079      248.29907      1724.0693     -2400.2196    
  32695500   261.3824      -349.65556     -273.06196     -349.68911      0              5787.7714      46.431562      20.047001      20.857         19413.979      6018.7848      5432.2914      5912.2379      1032.1257     -885.06743     -44.782054    
  32696000   268.45686     -348.92595     -270.2593      -348.95322      0              5474.4895      46.55015       20.047001      20.857         19463.562      4140.541       5714.1539      6568.7737      123.63294     -2881.7002     -1041.533     
  32696500   261.22466     -351.46425     -274.91687     -351.48982      0              4791.3401      46.417903      20.047001      20.857         19408.268      6731.0707      2028.1159      5614.8338      493.20544     -1609.3737     -594.9082     
  32697000   265.03874     -349.99202     -272.32698     -350.01604      0              5678.3533      46.421049      20.047001      20.857         19409.583      4470.9071      7739.1538      4824.9991     -499.30697     -2162.1823      1910.6182    
  32697500   264.98131     -350.68117     -273.03297     -350.71547      0              4255.4477      46.665365      20.047001      20.857         19511.736      6295.0339      2760.7911      3710.518      -1006.8191      1315.5118     -1572.8007    
  32698000   261.7476      -352.26203     -275.56141     -352.29903      0              4172.7464      46.57591       20.047001      20.857         19474.334      3451.0541      5749.2713      3317.9139      259.27991     -182.28082      126.07753    
  32698500   267.1719      -354.66892     -276.37881     -354.68308      0              6292.8759      46.30206       20.047001      20.857         19359.831      6167.253       7493.1879      5218.1869     -186.87083     -666.08642     -1331.4122    
  32699000   261.36982     -351.56172     -274.9718      -351.57791      0              4422.3002      46.452506      20.047001      20.857         19422.736      4735.7753      5880.2269      2650.8984      447.55282      1386.4184      721.23365    
  32699500   257.02603     -350.57465     -275.2576      -350.60349      0              3337.3851      46.548125      20.047001      20.857         19462.716      4999.9779      3434.6044      1577.5731      964.50902      475.53409      974.25147    
  32700000   263.12537     -348.53651     -271.43216     -348.5633       0              5394.9312      46.482328      20.047001      20.857         19435.205      5459.4791      5678.5479      5046.7665     -969.03797     -1675.7166      65.822132    
  32700500   265.65384     -350.74158     -272.8963      -350.78122      0              4667.1984      46.346801      20.047001      20.857         19378.538      5626.6296      3096.1981      5278.7674      933.86622     -1704.5737      1187.3086    
  32701000   258.78548     -350.65763     -274.82501     -350.67288      0              4194.5234      46.374489      20.047001      20.857         19390.115      4301.4197      4126.378       4155.7724     -395.83031     -895.13446     -554.20979    
  32701500   263.65552     -350.96238     -273.70268     -350.97513      0              6870.729       46.446509      20.047001      20.857         19420.228      5883.063       8905.8208      5823.3032     -97.718737      296.80213     -249.00385    
  32702000   264.92747     -349.36996     -271.73754     -349.40172      0              5813.4558      46.38116       20.047001      20.857         19392.905      7157.5166      4849.6702      5433.1805     -227.60887     -435.33988      92.778926    
  32702500   267.4198      -348.89716     -270.5344      -348.91573      0              6439.3558      46.284656      20.047001      20.857         19352.554      7390.3301      6193.3439      5734.3934      589.02953     -734.80861      153.49868    
  32703000   265.58642     -348.39016     -270.56464     -348.41964      0              4760.3848      46.196092      20.047001      20.857         19315.524      6537.4328      3910.539       3833.1826      512.38611      38.413214      914.84948    
  32703500   272.81989     -349.68676     -269.7416      -349.73482      0              2166.3354      46.3328        20.047001      20.857         19372.684      3893.6508      548.01243      2057.3429     -1101.3618     -575.40991     -236.65315    
  32704000   259.09262     -349.63323     -273.7106      -349.63993      0              4508.3624      46.252804      20.047001      20.857         19339.236      5260.8649      3931.5156      4332.7066     -995.88128     -61.467602      2115.5142    
  32704500   272.26279     -350.54868     -270.76677     -350.55017      0              2123.4363      46.296695      20.047001      20.857         19357.588      2374.1971      1490.4634      2505.6484     -2118.9938     -160.99088     -1218.348     
  32705000   267.34585     -351.26834     -272.92725     -351.27619      0              6946.732       46.401933      20.047001      20.857         19401.59       8081.77        5847.622       6910.8041     -503.99367     -1202.1944     -315.37787    
  32705500   263.56804     -348.69465     -271.46058     -348.72395      0              2773.452       46.353111      20.047001      20.857         19381.177      2432.4348      2839.5463      3048.3749      347.06292     -1431.0733      1022.3394    
  32706000   264.23584     -348.45542     -271.02567     -348.46888      0              4496.0327      45.946353      20.047001      20.857         19211.103      5751.9254      2875.0285      4861.1444     -558.20273      413.90441      325.9757     
  32706500   261.60584     -349.10005     -272.44097     -349.10504      0              5776.3274      45.92676       20.047001      20.857         19202.911      4760.8269      5292.6931      7275.4622     -1463.2153      418.98708     -221.99089    
  32707000   260.35869     -350.40283     -274.10921     -350.44822      0              3400.911       46.278677      20.047001      20.857         19350.054      4693.7807      2102.743       3406.2092     -267.25488     -754.64807     -846.37015    
  32707500   261.83367     -350.25339     -273.52755     -350.29063      0              5168.025       46.254662      20.047001      20.857         19340.013      6317.0533      4295.8476      4891.1739     -2487.2368      651.82178      2838.0487    
  32708000   267.24445     -351.43591     -273.12453     -351.45763      0              3000.4583      45.990128      20.047001      20.857         19229.406      3427.7867      3120.4367      2453.1515      277.24843      660.49972      1399.1787    
  32708500   260.52093     -351.09985     -274.75869     -351.12964      0              6742.9786      46.001018      20.047001      20.857         19233.959      7827.0067      5739.177       6662.752      -265.90015     -130.15839     -950.9504     
  32709000   265.8737      -350.66711     -272.75741     -350.67747      0              4261.2019      46.3696        20.047001      20.857         19388.071      3397.2719      4316.7618      5069.572      -1314.8532     -99.781863      425.80296    
  32709500   259.27784     -350.63236     -274.65546     -350.6598       0              4173.7519      46.671057      20.047001      20.857         19514.116      5137.8967      3741.8607      3641.4983     -346.51736     -1896.8657      408.01154    
  32710000   263.12085     -351.89881     -274.79579     -351.88953      0              4580.3414      46.344967      20.047001      20.857         19377.772      5922.5074      4004.3937      3814.1231      257.47285      1072.7593      81.034422    
  32710500   261.6666      -350.14151     -273.46463     -350.13881      0              6540.1075      45.990403      20.047001      20.857         19229.521      6907.9202      7536.6364      5175.7659     -1769.6946      417.56343      2692.0441    
  32711000   270.33141     -349.33854     -270.12259     -349.34445      0              2979.7717      46.155174      20.047001      20.857         19298.415      1963.9868      3209.7139      3765.6146     -463.49143      699.29629     -2222.9993    
  32711500   254.03848     -349.07728     -274.63568     -349.07468      0              8529.6214      46.416682      20.047001      20.857         19407.757      10369.438      7572.6782      7646.7482     -291.06723     -19.056398     -1287.2749    
  32712000   264.29975     -349.80261     -272.35413     -349.82565      0              3866.2083      46.340543      20.047001      20.857         19375.922      3026.6024      2216.7787      6355.2438     -62.815695     -491.29379      743.82082    
  32712500   271.91961     -347.54249     -267.86114     -347.52654      0              4917.3708      46.148415      20.047001      20.857         19295.589      5328.9315      3439.1342      5984.0468     -366.11961      223.66835     -0.72887498   
  32713000   258.18588     -346.55174     -270.89482     -346.57562      0              5932.3332      46.305443      20.047001      20.857         19361.246      8494.7733      4043.0282      5259.1981      873.08306     -99.508211      1182.8551    
  32713500   267.45314     -351.4414      -273.06887     -351.45255      0              5688.8996      46.425579      20.047001      20.857         19411.477      5890.5107      4532.2866      6643.9014     -638.79689      624.16226     -1514.1717    
  32714000   279.61491     -348.36823     -266.4319      -348.37079      0              3879.5783      46.334633      20.047001      20.857         19373.451      2505.6145      4787.81        4345.3103     -721.87619     -235.49728     -1671.7936    
  32714500   258.16816     -347.58361     -271.93188     -347.56655      0              4334.0354      46.174374      20.047001      20.857         19306.443      2644.6013      5714.18        4643.3249     -984.46302      18.717743     -1340.9899    
  32715000   266.39698     -351.74159     -273.67855     -351.74702      0              4032.8595      46.240484      20.047001      20.857         19334.085      3945.0096      3749.4609      4404.108      -824.35966     -625.21884     -1046.227     
  32715500   268.80288     -348.75051     -269.98246     -348.77474      0              3244.4461      46.431513      20.047001      20.857         19413.958      4804.6151      2906.7112      2022.0121     -1034.4626      364.57394      931.34385    
  32716000   261.53147     -348.30195     -271.66466     -348.30312      0              5203.9857      46.33206       20.047001      20.857         19372.375      5483.1366      3800.064       6328.7566      158.291        875.08957     -374.35616    
  32716500   265.03646     -352.17188     -274.50752     -352.15233      0              4739.4127      46.164162      20.047001      20.857         19302.173      5353.6512      3783.0925      5081.4943     -1437.5136      1505.0767      247.79238    
  32717000   270.27695     -352.98207     -273.78207     -352.96673      0              4176.3481      46.053868      20.047001      20.857         19256.057      4551.7927      2758.8132      5218.4383      1019.073      -30.13348       670.47639    
  32717500   268.08049     -348.9418      -270.38544     -348.96881      0              6019.1352      46.126183      20.047001      20.857         19286.293      5914.4705      7619.9908      4522.9444     -368.0993       556.14844      661.05884    
  32718000   273.87127     -351.45706     -271.20381     -351.4504       0              5186.74        46.105439      20.047001      20.857         19277.62       6445.4061      3989.6486      5125.1654     -1066.1476     -660.34496     -459.28309    
  32718500   266.36831     -350.69292     -272.63828     -350.68933      0              5690.7602      46.096755      20.047001      20.857         19273.989      7243.075       2642.448       7186.7576      722.45414     -869.56001     -574.49157    
  32719000   261.80917     -349.35792     -272.63926     -349.38773      0              4095.2186      46.338108      20.047001      20.857         19374.904      4252.8474      4927.4765      3105.332      -1208.7508     -1074.538       625.0134     
  32719500   268.30001     -349.30397     -270.68328     -349.30827      0              3399.935       46.350499      20.047001      20.857         19380.085      1780.2939      5163.0024      3256.5087     -1519.5174     -269.87219     -193.40324    
  32720000   270.24796     -350.86689     -271.67539     -350.86843      0              4371.4005      46.290506      20.047001      20.857         19355          4432.6391      3491.9814      5189.581       960.33495     -1935.4242      1703.1802    
  32720500   276.53735     -349.93878     -268.90428     -349.95389      0              4909.6999      46.166291      20.047001      20.857         19303.063      6262.3721      4367.7836      4098.944      -764.57011      782.26737     -1112.6186    
  32721000   265.08302     -351.24152     -273.56352     -351.26351      0              3903.5804      46.297728      20.047001      20.857         19358.02       4000.9732      3608.0852      4101.6827      550.26585     -1272.6824      158.74029    
  32721500   261.4423      -350.1526      -273.54144     -350.15438      0              3317.6332      46.309782      20.047001      20.857         19363.06       2644.8322      2261.4606      5046.6069     -1537.726      -82.81521      -2574.1833    
  32722000   274.24334     -349.04781     -268.68553     -349.07367      0              5588.9279      46.239586      20.047001      20.857         19333.709      6769.6243      4278.4908      5718.6686     -78.0823       -1247.2943      45.333107    
  32722500   266.12495     -349.63418     -271.65086     -349.66166      0              2049.303       46.211087      20.047001      20.857         19321.794      1466.0731      2506.0191      2175.8168     -316.9764      -2502.1005     -302.20601    
  32723000   277.95306     -350.28036     -268.83101     -350.28379      0              5769.7111      46.280123      20.047001      20.857         19350.659      3359.3611      8134.285       5815.487      -375.48241      1094.1422     -877.06522    
  32723500   267.03767     -348.43532     -270.18454     -348.47276      0              2724.1612      46.617994      20.047001      20.857         19491.93       2686.6945      4552.6822      933.10674     -1488.3122      631.39198      43.226319    
  32724000   261.9643      -347.09689     -270.33277     -347.12682      0              4939.9013      46.410491      20.047001      20.857         19405.168      4474.5236      5158.203       5186.9773      372.56421      1131.6931      213.98495    
  32724500   258.84057     -347.71418     -271.86541     -347.7311       0              4390.9707      46.002928      20.047001      20.857         19234.758      5684.6913      4069.3799      3418.841      -1181.6832      550.95145      410.13315    
  32725000   268.76282     -350.33524     -271.57893     -350.33972      0              5078.7674      46.052824      20.047001      20.857         19255.621      7215.4461      3356.5091      4664.347      -661.81783     -822.21093     -340.56211    
  32725500   266.68302     -349.99578     -271.84892     -350.00735      0              2628.9941      46.413769      20.047001      20.857         19406.539      2949.2282      2493.658       2444.096      -831.39596      1016.4347     -331.5633     
  32726000   265.44874     -349.17677     -271.39159     -349.17962      0              4265.3729      46.517628      20.047001      20.857         19449.964      4185.3999      5331.5814      3279.1374      616.76169      405.06269      1010.0943    
  32726500   262.22979     -350.64952     -273.80761     -350.67752      0              4953.0698      46.602784      20.047001      20.857         19485.57       3626.7867      3899.0902      7333.3325     -519.10194      271.48805     -1014.1741    
  32727000   268.23383     -350.79147     -272.19018     -350.78562      0              3019.6152      46.520062      20.047001      20.857         19450.982      4536.9904      2871.363       1650.4923     -137.95761      1368.9163      1380.1232    
  32727500   266.33674     -349.08057     -271.03519     -349.10455      0              1750.2499      46.418417      20.047001      20.857         19408.483      1570.1057      2036.6764      1643.9677     -302.8489       820.88183      528.16       
[...]
  36244500   269.76499     -352.95303     -273.90305     -352.82481      0              4860.1337      46.002576      20.047001      20.857         19234.611      4734.7134      5931.6079      3914.0797     -812.87451     -1016.6764     -943.94465    
  36245000   269.86948     -352.9746      -273.89401     -352.89673      0              3530.5734      45.985937      20.047001      20.857         19227.654      2626.2866      4820.9677      3144.4659      160.25939     -1475.0759      482.65636    
  36245500   266.55071     -349.24899     -271.1409      -349.15929      0              6184.4261      46.286657      20.047001      20.857         19353.391      6702.0551      4195.4504      7655.7729     -1144.1681      883.98337      745.60999    
  36246000   262.51012     -348.56776     -271.6437      -348.51623      0              5199.8658      46.384202      20.047001      20.857         19394.176      4992.3928      5367.2611      5239.9435     -954.54228     -1126.1031     -241.0174     
  36246500   266.66572     -348.73978     -270.59799     -348.67922      0              7120.2656      46.270689      20.047001      20.857         19346.714      8670.3629      6029.1117      6661.3223      720.82174     -608.61919      1516.3718    
  36247000   266.09274     -351.14772     -273.17383     -351.0418       0              3900.2189      46.370186      20.047001      20.857         19388.316      4536.4051      2165.317       4998.9347     -1153.7147     -1172.4077      284.864      
  36247500   259.55833     -351.27694     -275.21785     -351.18954      0              5305.9262      46.310183      20.047001      20.857         19363.228      5804.5924      6353.9523      3759.234      -203.57555     -826.74591     -79.171031    
  36248000   263.17283     -355.20466     -278.0864      -355.08411      0              4942.5314      46.218229      20.047001      20.857         19324.78       4155.9844      5371.1042      5300.5054      500.29019     -593.3832      -325.69612    
  36248500   271.11011     -354.13245     -274.68831     -354.00011      0              4329.8915      46.164561      20.047001      20.857         19302.34       3425.5331      3939.2273      5624.9141      729.51099     -342.04481      1690.4079    
  36249000   259.17326     -351.57974     -275.63349     -351.49077      0              4045.8593      46.263899      20.047001      20.857         19343.875      5995.7391      2111.1483      4030.6905     -354.70567     -1093.0869     -1751.8295    
  36249500   265.79919     -350.83807     -272.9502      -350.71898      0              6279.4295      46.246428      20.047001      20.857         19336.57       6802.668       4382.0469      7653.5736     -1269.2423     -202.49457     -606.88362    
  36250000   264.87331     -349.94785     -272.33129     -349.85836      0              4978.6085      46.058139      20.047001      20.857         19257.843      5103.3311      5170.3451      4662.1492      1415.2402      1408.7859     -1455.6076    
  36250500   274.09453     -349.04012     -268.72145     -348.90993      0              4830.415       46.155977      20.047001      20.857         19298.751      6251.6128      3332.4438      4907.1883      52.450526     -221.93965      1389.9867    
  36251000   265.70976     -352.38078     -274.51911     -352.27054      0              5849.7845      46.275955      20.047001      20.857         19348.916      4618.1345      7294.4924      5636.7266     -720.92343      172.29705     -631.67755    
  36251500   257.52281     -352.29482     -276.8322      -352.15864      0              5538.3405      46.170296      20.047001      20.857         19304.738      5689.3824      6231.6761      4693.9629      318.97928      276.21237     -1822.3579    
  36252000   265.75614     -351.89597     -274.02072     -351.76405      0              4025.7929      46.233743      20.047001      20.857         19331.266      4785.9531      4146.1034      3145.322      -1357.9373      423.99733      559.62739    
  36252500   262.94635     -352.19144     -275.13955     -352.09734      0              3198.234       46.278976      20.047001      20.857         19350.18       2687.0574      2189.2598      4718.3847      2014.8031      567.18976      892.53371    
  36253000   263.19471     -351.16813     -274.04346     -351.05338      0              4848.9872      46.178473      20.047001      20.857         19308.157      4468.9235      5433.1667      4644.8713     -590.40159     -20.930593      425.93612    
  36253500   260.42239     -350.13068     -273.81839     -350.06495      0              2485.9241      46.237011      20.047001      20.857         19332.633      3082.9643      2739.3409      1635.4671     -116.55069     -1028.3655      1058.486     
  36254000   255.90417     -349.41642     -274.42812     -349.29876      0              3588.4151      46.262706      20.047001      20.857         19343.377      4892.6337      2716.0937      3156.518      -1298.2337     -693.41671      1235.3813    
  36254500   269.34658     -350.011       -271.08363     -349.91528      0              3906.1123      46.275427      20.047001      20.857         19348.695      3314.7223      4467.4396      3936.1749     -204.93437     -467.75605      750.39576    
  36255000   263.65747     -350.8054      -273.54513     -350.72815      0              5580.0684      46.134117      20.047001      20.857         19289.611      7468.5902      3280.8447      5990.7704      249.19898      155.99799     -1001.3788    
  36255500   260.43547     -352.13638     -275.82025     -352.02662      0              2144.1008      46.239129      20.047001      20.857         19333.518      2464.1234      640.72216      3327.4568      2250.4869     -415.54566     -1229.4592    
  36256000   267.25143     -350.39279     -272.07937     -350.33592      0              4038.6177      46.312187      20.047001      20.857         19364.065      4711.8547      2697.8529      4706.1455      159.45335     -780.37285     -1490.2895    
  36256500   262.91459     -348.77233     -271.72974     -348.69815      0              5124.7558      46.315485      20.047001      20.857         19365.445      5039.5244      5167.4861      5167.2568     -519.97517     -93.888044     -1863.4438    
  36257000   263.05067     -349.6633      -272.58084     -349.60255      0              3736.0456      46.350363      20.047001      20.857         19380.027      2000.5192      3788.2964      5419.3211     -1189.5845     -809.84903     -1868.6089    
  36257500   262.79526     -349.24759     -272.23998     -349.13744      0              5634.4197      46.422563      20.047001      20.857         19410.216      5833.3671      5390.7919      5679.1002      496.65894     -143.5475      -1499.4444    
  36258000   267.77048     -348.42501     -269.95949     -348.31459      0              3718.2753      46.333669      20.047001      20.857         19373.048      4567.9233      2893.8595      3693.043      -303.92244      531.92434     -1942.8499    
  36258500   265.71597     -348.79886     -270.93538     -348.70275      0              3930.0481      46.382453      20.047001      20.857         19393.445      3457.7849      1998.7831      6333.5763     -2126.4397      157.69384      1552.7335    
  36259000   269.22524     -349.19789     -270.30608     -349.08476      0              3580.4134      46.498563      20.047001      20.857         19441.993      2071.9281      3577.9844      5091.3278      513.5186       1373.5263      576.06987    
  36259500   266.36383     -349.21255     -271.15923     -349.11077      0              4968.8027      46.245407      20.047001      20.857         19336.144      7569.6889      4150.7901      3185.929      -893.16748      254.66274      307.40786    
  36260000   267.8652      -349.97654     -271.48326     -349.86944      0              4378.691       46.228577      20.047001      20.857         19329.107      5613.6163      2637.659       4884.7975      339.15743      1263.6668     -1159.9787    
  36260500   258.24842     -350.4754      -274.80016     -350.36062      0              6713.0604      46.38957       20.047001      20.857         19396.421      6069.9618      6576.2682      7492.9512      134.38697      859.79152     -559.09136    
  36261000   268.70858     -352.29464     -273.55423     -352.16848      0              5790.2125      46.643068      20.047001      20.857         19502.414      5802.387       6739.9947      4828.2557      1811.1275     -543.53063      298.65282    
  36261500   265.71212     -351.43253     -273.57017     -351.29136      0              3641.8405      46.458639      20.047001      20.857         19425.3        2304.0037      2967.0462      5654.4715      423.2955       267.58682     -671.33968    
  36262000   264.64179     -348.94696     -271.39825     -348.84401      0              7281.7861      46.007747      20.047001      20.857         19236.773      6263.5814      7742.8036      7838.9732     -28.298888      494.21958     -112.34553    
  36262500   265.45617     -352.6578      -274.87045     -352.57111      0              5314.3197      45.992467      20.047001      20.857         19230.384      8681.9227      4790.2892      2470.7471      2.2491337      908.23597     -737.10868    
  36263000   261.76482     -352.12043     -275.41477     -352.0195       0              5252.2117      46.409462      20.047001      20.857         19404.738      1801.3734      7009.2649      6945.9969     -656.92366     -197.87324      559.97827    
  36263500   260.71154     -351.17969     -274.78267     -351.06897      0              4439.1888      46.277807      20.047001      20.857         19349.691      4330.3091      5071.9129      3915.3444      820.14905     -93.063629      182.25304    
  36264000   268.07747     -352.70643     -274.15096     -352.58805      0              6109.9991      45.895809      20.047001      20.857         19189.969      6374.0068      5927.8978      6028.0926     -1156.4129      2309.5252     -736.17522    
  36264500   265.13501     -350.77045     -273.07721     -350.67207      0              5451.6282      46.157866      20.047001      20.857         19299.541      3931.6411      6849.3444      5573.899       209.21876      245.74504     -1658.4331    
  36265000   270.04421     -350.00038     -270.86858     -349.90478      0              4020.2325      46.383901      20.047001      20.857         19394.051      3570.118       5106.7501      3383.8295     -411.32236     -1815.1797      731.75969    
  36265500   263.90238     -350.87286     -273.54082     -350.77887      0              2941.6672      46.372654      20.047001      20.857         19389.348      3615.5187      3224.2025      1985.2802     -1375.9805     -561.13865     -495.7448     
  36266000   261.87825     -348.61821     -271.87931     -348.53536      0              3618.7848      46.350255      20.047001      20.857         19379.983      2924.1693      1822.7333      6109.4517     -1211.4396     -558.4262      -1987.8994    
  36266500   264.65476     -350.76255     -273.21003     -350.65326      0              3322.0031      46.340026      20.047001      20.857         19375.705      3113.5628      2232.339       4620.1073      776.06772      1305.3133      2146.2392    
  36267000   256.29499     -348.89495     -273.79212     -348.79745      0              4490.7365      46.124162      20.047001      20.857         19285.448      5078.4652      3135.9023      5257.842       948.55571     -1864.3256      765.69028    
  36267500   263.80144     -351.78242     -274.47996     -351.67468      0              6963.4229      45.975721      20.047001      20.857         19223.382      6837.2804      5563.7612      8489.2271      884.94282     -719.5057      -58.148603    
  36268000   263.81522     -353.19925     -275.89275     -353.06874      0              3982.6354      46.166751      20.047001      20.857         19303.256      6642.7727      2089.5196      3215.6139      583.10786      2270.0321      370.31587    
  36268500   271.02581     -349.60726     -270.18783     -349.53931      0              4794.4165      46.186624      20.047001      20.857         19311.565      4499.1546      6685.9231      3198.1719     -1776.5189      1407.1442      538.99448    
  36269000   268.2166      -351.64948     -273.05323     -351.58032      0              3944.0853      46.008888      20.047001      20.857         19237.25       5503.2579      2637.7068      3691.2911     -68.686642     -564.45861      405.98403    
  36269500   272.64082     -350.05681     -270.16412     -349.98971      0              3228.8509      45.991875      20.047001      20.857         19230.137      4040.8113      1660.424       3985.3173      216.65496      1459.9395     -1908.9149    
  36270000   264.34651     -350.92789     -273.4657      -350.83972      0              6164.8004      46.432743      20.047001      20.857         19414.472      4955.1533      7496.8508      6042.3971      354.1859      -2731.6382     -971.87836    
  36270500   263.44996     -350.63213     -273.43266     -350.54117      0              4749.125       46.54231       20.047001      20.857         19460.285      5292.7284      3273.521       5681.1255      277.38775      781.80986     -40.234809    
  36271000   263.98699     -349.76625     -272.40942     -349.65463      0              3298.8035      46.149385      20.047001      20.857         19295.995      2762.4331      3750.7385      3383.2389      141.05186     -471.13463     -1577.0994    
  36271500   267.28659     -349.77341     -271.44969     -349.66468      0              6729.1757      46.054778      20.047001      20.857         19256.438      9640.5212      3388.1598      7158.8461     -481.78268      206.8225       109.26397    
  36272000   258.67119     -352.12387     -276.32474     -352.02949      0              3539.0265      46.387527      20.047001      20.857         19395.567      2555.2188      3869.1403      4192.7204      1119.3411     -1477.5805      520.14087    
  36272500   262.7114      -350.3524      -273.36936     -350.23311      0              4248.9013      46.41448       20.047001      20.857         19406.836      6842.2748      2858.446       3045.9832     -506.74226     -2056.8033     -794.34941    
  36273000   264.60468     -352.67832     -275.14048     -352.59961      0              5283.4966      46.300049      20.047001      20.857         19358.99       6486.1374      4239.1714      5125.1809     -714.93349     -124.87399      945.877      
  36273500   268.98557     -352.74004     -273.91846     -352.6406       0              5531.8558      46.131184      20.047001      20.857         19288.385      6349.7723      5899.0757      4346.7193     -909.40854     -150.20674      628.87794    
  36274000   267.18347     -351.95399     -273.66048     -351.84321      0              4142.7166      46.398992      20.047001      20.857         19400.36       4233.4965      5738.3766      2456.2767      28.139329     -253.33392      802.66133    
  36274500   264.16011     -352.75399     -275.34643     -352.64458      0              5128.6024      46.173908      20.047001      20.857         19306.248      5739.3131      4788.5801      4857.9141      515.93426      1334.4579      339.44981    
  36275000   254.17318     -350.99217     -276.5111      -350.88628      0              4247.1548      45.983285      20.047001      20.857         19226.545      5969.0934      4485.5836      2286.7875      122.73919     -0.66035359     2627.0332    
  36275500   263.37638     -350.91717     -273.73926     -350.7909       0              7339.9777      46.125757      20.047001      20.857         19286.115      7425.3518      7092.7405      7501.8407      850.42537     -1140.7576      172.22522    
  36276000   269.58172     -354.62533     -275.62906     -354.55209      0              4689.8055      46.401729      20.047001      20.857         19401.505      4043.8892      5840.473       4185.0541      584.74307      576.87528      1727.5815    
  36276500   260.51804     -352.38532     -276.045       -352.29707      0              4997.9592      46.234432      20.047001      20.857         19331.555      4189.209       5936.7269      4867.9418     -1300.8245      1681.0834     -387.61067    
  36277000   258.5849      -351.99064     -276.21679     -351.87915      0              5831.4234      46.128988      20.047001      20.857         19287.466      8101.5099      2836.7906      6555.9698      1105.6703      572.0757      -1414.6291    
  36277500   265.84795     -352.71395     -274.81179     -352.57521      0              3043.059       46.308979      20.047001      20.857         19362.724      4073.6312      3242.605       1812.9407     -1299.6498     -1154.8158     -747.70274    
  36278000   254.72913     -349.70801     -275.06403     -349.66626      0              4546.1943      46.33305       20.047001      20.857         19372.789      4049.6512      4653.274       4935.6576      816.69628     -127.68445      1115.1694    
  36278500   265.49709     -352.05335     -274.254       -351.94545      0              6051.5256      45.952259      20.047001      20.857         19213.572      8602.7779      4720.3171      4831.4819     -1226.9076      259.50869      626.31437    
  36279000   271.9259      -351.92867     -272.24547     -351.84256      0              5298.4278      45.981781      20.047001      20.857         19225.916      5424.6195      4308.0877      6162.5763      215.2691      -293.62214      365.28789    
  36279500   260.43839     -352.9968      -276.67983     -352.94107      0              3194.5872      46.38929       20.047001      20.857         19396.304      2784.0035      2153.4771      4646.2811     -633.54585      247.191        1111.3204    
  36280000   269.9623      -352.04905     -272.94125     -351.99554      0              4399.6339      46.226321      20.047001      20.857         19328.163      6216.1347      3120.7024      3862.0646      844.55036      156.79469     -685.87132    
WARNING: Wall time limit reached (../timer.cpp:193)
Loop time of 85808.1 on 4 procs for 3698000 steps with 2268 atoms

Performance: 1.862 ns/day, 12.891 hours/ns, 43.096 timesteps/s
937.7% CPU use with 4 MPI tasks x no OpenMP threads

MPI task timing breakdown:
Section |  min time  |  avg time  |  max time  |%varavg| %total
---------------------------------------------------------------
Pair    | 46602      | 46757      | 46928      |  63.2 | 54.49
Bond    | 0.4083     | 0.46077    | 0.49276    |   4.7 |  0.00
Neigh   | 1200.3     | 1225.3     | 1246.3     |  47.2 |  1.43
Comm    | 4747.5     | 4915.5     | 5033.5     | 163.4 |  5.73
Output  | 4117.4     | 4117.7     | 4118.4     |   0.7 |  4.80
Modify  | 28724      | 28782      | 28825      |  21.7 | 33.54
Other   |            | 10.88      |            |       |  0.01

Nlocal:            567 ave         575 max         559 min
Histogram: 1 0 0 1 0 0 1 0 0 1
Nghost:        3704.25 ave        3732 max        3673 min
Histogram: 1 0 0 1 0 0 0 1 0 1
Neighs:              0 ave           0 max           0 min
Histogram: 4 0 0 0 0 0 0 0 0 0
FullNghs:       142610 ave      145476 max      140780 min
Histogram: 1 1 0 0 1 0 0 0 0 1

Total # of neighbors = 570440
Ave neighs/atom = 251.51675
Ave special neighs/atom = 0
Neighbor list builds = 369800
Dangerous builds not checked

unfix		4
unfix		3
unfix		1

write_data	data.final.${pid}
write_data	data.final.0
System init for write_data ...
Generated 0 of 1 mixed pair_coeff terms from geometric mixing rule
write_restart	restart.lmp.${pid}
write_restart	restart.lmp.0
System init for write_restart ...
Generated 0 of 1 mixed pair_coeff terms from geometric mixing rule
Total wall time: 23:50:33
