LAMMPS (23 Jun 2022)
echo both

include		in.partitions
variable        pid world 0
include		in.temp
variable	temperature equal 265.0
variable        tempDamp equal 0.100 # this is 0.1 ps
include		in.pressure
variable        pressure equal 5066.25
variable        pressureDamp equal 1.0 #this is 1ps
include		in.seed
variable        seed world 745823

units           metal
atom_style	full
read_restart	restart.lmp.${pid}
read_restart	restart.lmp.0
Reading restart file ...
  restart file = 23 Jun 2022, LAMMPS = 23 Jun 2022
  restoring atom style full from restart
  orthogonal box = (0.73476615 0 0) to (46.715933 20.047001 20.857)
  4 by 1 by 1 MPI processor grid
Summary of lammps deepmd module ...
  >>> Info of deepmd-kit:
  installed to:       /u/sigbjobo/software/DEEPMD_FROM_SOURCE/deepmd-kit/install
  source:             v2.1.3
  source branch:       master
  source commit:      5a32c49
  source commit at:   2022-07-01 09:52:58 +0800
  surpport model ver.:1.1 
  build float prec:   double
  build with tf inc:  /u/sigbjobo/software/DEEPMD_FROM_SOURCE/tensorflow/install/include;/u/sigbjobo/software/DEEPMD_FROM_SOURCE/tensorflow/install/include
  build with tf lib:  /u/sigbjobo/software/DEEPMD_FROM_SOURCE/tensorflow/install/lib/libtensorflow_cc.so;/u/sigbjobo/software/DEEPMD_FROM_SOURCE/tensorflow/install/lib/libtensorflow_framework.so
  set tf intra_op_parallelism_threads: 0
  set tf inter_op_parallelism_threads: 0
  >>> Info of lammps module:
  use deepmd-kit at:  /u/sigbjobo/software/DEEPMD_FROM_SOURCE/deepmd-kit/install
  source:             v2.1.3
  source branch:      master
  source commit:      5a32c49
  source commit at:   2022-07-01 09:52:58 +0800
  build float prec:   double
  build with tf inc:  /u/sigbjobo/software/DEEPMD_FROM_SOURCE/tensorflow/install/include;/u/sigbjobo/software/DEEPMD_FROM_SOURCE/tensorflow/install/include
  build with tf lib:  /u/sigbjobo/software/DEEPMD_FROM_SOURCE/tensorflow/install/lib/libtensorflow_cc.so;/u/sigbjobo/software/DEEPMD_FROM_SOURCE/tensorflow/install/lib/libtensorflow_framework.so
  restoring pair style deepmd from restart
  2268 atoms
Finding 1-2 1-3 1-4 neighbors ...
  special bond factors lj:    0        0        0       
  special bond factors coul:  0        0        0       
     0 = max # of 1-2 neighbors
     0 = max # of 1-3 neighbors
     0 = max # of 1-4 neighbors
     1 = max # of special neighbors
  special bonds CPU = 0.000 seconds
  read_restart CPU = 0.069 seconds
include 	in.setup
variable	out_freq equal 500
variable	out_freq2 equal 1000
variable	out_freq3 equal 5000

timestep        0.0005

neigh_modify    delay 7 every 1

include         in.deepmd
# This is deepMD model

# create groups ###
#group ox type 2
#group hy type 1

mass 2 15.999
mass 1 1.008

pair_style      deepmd ../graph.pb
pair_coeff      * *

bond_style      none
angle_style     none
dihedral_style  none
improper_style  none
neigh_modify exclude none


neighbor        2.0 bin
neigh_modify    every 10 delay 0 check no

thermo          ${out_freq}
thermo          500
thermo_style 	custom step temp pe etotal epair emol press lx ly lz vol pxx pyy pzz pxy pxz pyz
#thermo_modify	flush yes
restart 	${out_freq} restart.lmp.${pid} restart2.lmp.${pid}
restart 	500 restart.lmp.${pid} restart2.lmp.${pid}
restart 	500 restart.lmp.0 restart2.lmp.${pid}
restart 	500 restart.lmp.0 restart2.lmp.0

include		in.dump
dump            myDump all atom ${out_freq3} dump.water.${pid}
dump            myDump all atom 5000 dump.water.${pid}
dump            myDump all atom 5000 dump.water.0
dump            myDump2 all dcd ${out_freq2} dump.dcd.${pid}
dump            myDump2 all dcd 1000 dump.dcd.${pid}
dump            myDump2 all dcd 1000 dump.dcd.0
dump_modify     myDump append yes
dump_modify     myDump2 append yes


timer           timeout 23:50:00 every 1000
New timer settings: style=normal  mode=nosync  timeout=23:50:00

fix             1 all plumed plumedfile plumed.dat outfile plumed.out
fix             3 all nph x ${pressure} ${pressure} ${pressureDamp}
fix             3 all nph x 5066.25 ${pressure} ${pressureDamp}
fix             3 all nph x 5066.25 5066.25 ${pressureDamp}
fix             3 all nph x 5066.25 5066.25 1
Resetting global fix info from restart file:
  fix style: nph, fix ID: 3
fix             4 all temp/csvr ${temperature} ${temperature} ${tempDamp} ${seed}
fix             4 all temp/csvr 265 ${temperature} ${tempDamp} ${seed}
fix             4 all temp/csvr 265 265 ${tempDamp} ${seed}
fix             4 all temp/csvr 265 265 0.1 ${seed}
fix             4 all temp/csvr 265 265 0.1 745823
Resetting global fix info from restart file:
  fix style: temp/csvr, fix ID: 4

run             40000000 upto

CITE-CITE-CITE-CITE-CITE-CITE-CITE-CITE-CITE-CITE-CITE-CITE-CITE

Your simulation uses code contributions which should be cited:

- USER-DEEPMD package:

@article{Wang_ComputPhysCommun_2018_v228_p178,
  author = {Wang, Han and Zhang, Linfeng and Han, Jiequn and E, Weinan},
  doi = {10.1016/j.cpc.2018.03.016},
  url = {https://doi.org/10.1016/j.cpc.2018.03.016},
  year = 2018,
  month = {jul},
  publisher = {Elsevier {BV}},
  volume = 228,
  journal = {Comput. Phys. Commun.},
  title = {{DeePMD-kit: A deep learning package for many-body potential energy representation and molecular dynamics}},
  pages = {178--184}
}

CITE-CITE-CITE-CITE-CITE-CITE-CITE-CITE-CITE-CITE-CITE-CITE-CITE

Generated 0 of 1 mixed pair_coeff terms from geometric mixing rule
All restart file global fix info was re-assigned
Neighbor list info ...
  update every 10 steps, delay 0 steps, check no
  max neighbors/atom: 2000, page size: 100000
  master list distance cutoff = 8
  ghost atom cutoff = 8
  binsize = 4, bins = 12 6 6
  1 neighbor lists, perpetual/occasional/extra = 1 0 0
  (1) pair deepmd, perpetual
      attributes: full, newton on
      pair build: full/bin
      stencil: full/bin/3d
      bin: standard
Per MPI rank memory allocation (min/avg/max) = 6.149 | 6.152 | 6.156 Mbytes
   Step          Temp          PotEng         TotEng         E_pair         E_mol          Press            Lx             Ly             Lz           Volume          Pxx            Pyy            Pzz            Pxy            Pxz            Pyz      
  28865500   273.30072     -349.6448      -269.55874     -349.6448       0              6232.6251      45.981167      20.047001      20.857         19225.659      4051.6679      6272.4332      8373.7743     -319.36194     -503.03459      1481.2117    
  28866000   271.32        -349.10007     -269.59442     -349.06291      0              2890.8882      46.149154      20.047001      20.857         19295.898      4089.8023      2914.37        1668.4923     -193.00826      315.91462     -281.97191    
  28866500   272.11837     -351.49165     -271.75205     -351.41833      0              5278.0216      46.224064      20.047001      20.857         19327.219      5511.2665      4995.662       5327.1364      995.8834       1069.248       92.23326     
  28867000   266.22532     -349.88391     -271.87117     -349.81536      0              6268.0925      46.268913      20.047001      20.857         19345.972      5847.0778      6873.7751      6083.4246     -489.63706      1304.8233      1142.6459    
  28867500   265.15138     -353.11009     -275.41205     -353.00492      0              5034.55        46.309784      20.047001      20.857         19363.061      6440.1027      4765.911       3897.6364      1190.3036     -1738.1254      2071.0806    
  28868000   265.73074     -351.9848      -274.11699     -351.90466      0              4855.5261      46.233081      20.047001      20.857         19330.99       2744.0949      7305.3739      4517.1093     -253.94296     -3548.6903      1332.5541    
  28868500   267.00633     -351.34204     -273.10045     -351.2824       0              5332.8418      46.104848      20.047001      20.857         19277.373      7287.3156      3383.0614      5328.1484     -109.76578     -870.41991     -531.10675    
  28869000   260.86018     -347.27836     -270.83779     -347.22675      0              6167.4164      46.096986      20.047001      20.857         19274.086      6546.6312      6350.9774      5604.6405      1531.5943     -2135.1233     -550.81676    
  28869500   265.882       -350.60905     -272.69692     -350.5328       0              4033.8999      46.322759      20.047001      20.857         19368.486      4831.4386      4022.0257      3248.2353      353.18512     -859.52452      1556.9464    
  28870000   261.7843      -351.60033     -274.88896     -351.49117      0              3843.8185      46.066361      20.047001      20.857         19261.281      5521.3567      2346.452       3663.6468      1104.2935      297.45154     -53.345864    
  28870500   259.18284     -354.05296     -278.1039      -353.97097      0              4455.3741      45.73351       20.047001      20.857         19122.109      5227.6014      4036.7871      4101.7337      865.86292     -912.46626     -669.54435    
  28871000   260.18009     -354.81683     -278.57554     -354.72549      0              4830.5541      45.865644      20.047001      20.857         19177.357      5915.2972      3568.8293      5007.5357      540.62231     -1375.9715     -895.9142     
  28871500   268.74008     -352.41091     -273.66127     -352.33772      0              4898.1209      46.23392       20.047001      20.857         19331.34       6308.0562      5930.71        2455.5965      586.66598      495.87116      365.17965    
  28872000   268.04837     -351.60887     -273.06192     -351.53927      0              6898.6209      46.419455      20.047001      20.857         19408.916      5321.4667      6095.3004      9279.0956      681.57732     -1476.1488     -448.74874    
  28872500   258.39731     -352.93853     -277.21965     -352.8569       0              2996.4234      46.20637       20.047001      20.857         19319.821      3265.7546      2748.0022      2975.5135     -526.10275      1913.6955     -2088.6347    
  28873000   265.69395     -351.56898     -273.71195     -351.50862      0              7496.1325      45.947579      20.047001      20.857         19211.615      7864.7509      8378.7475      6244.899       189.52283      628.08122      1054.2161    
  28873500   263.51206     -352.01036     -274.79269     -351.91345      0              5112.35        46.032759      20.047001      20.857         19247.231      6035.5317      5521.032       3780.4862      1115.8761      1929.3976     -1491.0687    
  28874000   261.04724     -353.64639     -277.151       -353.56796      0              2359.4654      46.123463      20.047001      20.857         19285.156      4313.7379      2152.4906      612.1676       976.5114      -753.22062      398.52309    
  28874500   259.22265     -351.71684     -275.75612     -351.63682      0              4479.2318      46.173001      20.047001      20.857         19305.869      6671.9102      3897.5344      2868.2508      910.79404      595.84892      1496.4311    
  28875000   264.41235     -351.44106     -273.95958     -351.32902      0              2995.9212      46.022613      20.047001      20.857         19242.989      2369.5622      3048.7778      3569.4237      1139.0174      152.59452     -810.45352    
  28875500   257.35333     -350.88759     -275.47464     -350.76159      0              3572.8203      45.708761      20.047001      20.857         19111.761      7305.3778      827.31474      2585.7682     -109.83417     -96.010228      739.52375    
  28876000   261.17366     -351.64632     -275.11388     -351.55709      0              3950.128       45.989458      20.047001      20.857         19229.126      3971.6632      4031.3558      3847.365       536.48899      264.45113     -296.08473    
  28876500   266.76885     -352.27436     -274.10235     -352.15416      0              3908.2986      46.208235      20.047001      20.857         19320.601      4649.9475      2861.3314      4213.6169      652.83856      607.70194      147.57746    
  28877000   266.6829      -349.23484     -271.08802     -349.14954      0              3988.6679      46.009661      20.047001      20.857         19237.573      6252.5512      1576.3642      4137.0883      1213.7389     -387.35543     -485.3599     
  28877500   258.18063     -352.1267      -276.47132     -352.04128      0              2763.3836      46.045014      20.047001      20.857         19252.355      3319.4333      2998.1964      1972.5211      176.91731      43.067294     -303.03332    
  28878000   257.14288     -349.01508     -273.66379     -348.93636      0              4459.0657      46.010473      20.047001      20.857         19237.913      2863.8939      6789.4088      3723.8943     -167.28456     -940.976        943.62524    
  28878500   266.59334     -349.42231     -271.30173     -349.33568      0              3021.0201      46.140547      20.047001      20.857         19292.299      2009.2723      2562.7389      4491.0491     -159.70527     -170.88978      979.02611    
  28879000   272.16053     -351.30759     -271.55565     -351.24022      0              4612.6209      46.295754      20.047001      20.857         19357.194      5326.1566      3210.5855      5301.1207     -1069.8341     -835.13908     -1549.5568    
  28879500   264.69174     -349.02098     -271.45764     -348.99212      0              3735.3779      46.194788      20.047001      20.857         19314.978      4171.0833      2896.8814      4138.169       1381.3886      459.89084     -877.30058    
  28880000   271.87571     -352.88702     -273.21853     -352.78597      0              5950.0142      46.053774      20.047001      20.857         19256.018      8358.8665      5279.5583      4211.6178      670.25232      555.85457      1164.9641    
  28880500   259.86367     -350.30333     -274.15476     -350.22801      0              1211.3805      46.371221      20.047001      20.857         19388.749     -864.27083      1390.0362      3108.3762      1278.31        1262.1239     -2150.258     
  28881000   269.56238     -353.09897     -274.10836     -353.00405      0              5963.9073      46.157011      20.047001      20.857         19299.183      4723.5613      6872.2706      6295.8899      664.62375     -639.63954      290.82689    
  28881500   266.28094     -351.07968     -273.05065     -350.99946      0              4885.7298      45.94798       20.047001      20.857         19211.783      5671.4905      4079.0945      4906.6044      1320.9586      1035.4894     -1571.9952    
  28882000   266.42338     -348.76828     -270.69751     -348.68825      0              6186.6948      46.064779      20.047001      20.857         19260.619      6785.7014      6058.3601      5716.023       1080.9321      1857.1321     -702.42382    
  28882500   264.87489     -354.23907     -276.62206     -354.12296      0              3656.0019      46.338519      20.047001      20.857         19375.076      743.55358      7101.2566      3123.1954     -495.8427       2826.6987     -1542.6728    
  28883000   265.62856     -349.96419     -272.12633     -349.9047       0              4129.1405      46.318292      20.047001      20.857         19366.618      6226.3392      2429.4851      3731.5973     -576.7042       237.46355     -303.38076    
  28883500   271.5607      -351.47072     -271.89454     -351.36297      0              5372.7436      45.842819      20.047001      20.857         19167.813      5918.5524      6633.8553      3565.8231     -1132.5359      4.0979994      296.8533     
  28884000   267.38767     -352.23845     -273.88511     -352.12729      0              5320.8752      45.802497      20.047001      20.857         19150.954      4864.4354      4725.6158      6372.5744     -1563.0803      2840.2494     -1323.9649    
  28884500   256.53927     -351.8434      -276.669       -351.74723      0              3166.2964      46.22739       20.047001      20.857         19328.61       3371.7201      3731.9135      2395.2555      392.85234      1416.829       1589.6424    
  28885000   268.61337     -350.89137     -272.17885     -350.78736      0              6062.0143      46.29613       20.047001      20.857         19357.352      4610.0587      7541.1262      6034.858      -61.458418     -1646.3631      184.84477    
  28885500   256.31603     -353.14355     -278.03455     -353.06523      0              4006.1834      46.079681      20.047001      20.857         19266.85       3120.265       6837.5887      2060.6964      656.93243      937.87896      1014.575     
  28886000   264.15866     -352.40726     -275.00013     -352.29173      0              4637.8515      46.056281      20.047001      20.857         19257.066      5207.2197      4388.603       4317.7317      501.79063      35.702271      2006.4948    
  28886500   265.10181     -349.98199     -272.29848     -349.89896      0              3939.5589      46.322494      20.047001      20.857         19368.375      5906.1029      1406.7302      4505.8437     -297.34553     -571.73309      101.81576    
  28887000   265.25784     -351.6004      -273.87117     -351.52101      0              3692.0009      46.350977      20.047001      20.857         19380.285      3306.4485      2496.5116      5273.0427      1040.2787     -1764.0106      278.27277    
  28887500   260.51721     -350.91042     -274.57035     -350.84486      0              6532.8072      46.081325      20.047001      20.857         19267.538      8066.6885      6567.2766      4964.4564      1.0243257      1537.6203      812.67204    
  28888000   269.17499     -352.60638     -273.72929     -352.48412      0              7117.7125      46.024902      20.047001      20.857         19243.946      6266.0852      7121.9448      7965.1074     -411.75666      463.17036     -1027.7809    
  28888500   262.57776     -349.50229     -272.5584      -349.4133       0              3258.2824      46.370384      20.047001      20.857         19388.399      4643.2869      2992.9629      2138.5972     -428.77259      1905.9431      1219.8423    
  28889000   264.66501     -348.68365     -271.12814     -348.59077      0              2953.0375      46.570563      20.047001      20.857         19472.098      2840.4611      3150.455       2868.1965      15.810103     -411.90335     -211.66293    
  28889500   266.77559     -349.35533     -271.18135     -349.30662      0              3244.3302      46.161498      20.047001      20.857         19301.059      3500.6024      3345.2116      2887.1767      1322.3419      436.49898     -844.71815    
  28890000   263.85745     -348.37496     -271.05608     -348.28797      0              5256.7981      46.006258      20.047001      20.857         19236.15       3340.645       6632.1024      5797.6467      634.28827      2087.9746      79.092609    
  28890500   272.91657     -348.59977     -268.62628     -348.53621      0              3990.2029      46.184854      20.047001      20.857         19310.825      4761.3641      3272.0025      3937.242      -435.69416     -1115.0878      2017.9822    
  28891000   269.18415     -350.5561      -271.67633     -350.49148      0              4622.5639      46.472702      20.047001      20.857         19431.18       2831.8437      7527.8347      3508.0132     -644.65761     -19.17855       627.68148    
  28891500   265.58996     -352.15679     -274.33023     -352.11248      0              6925.8037      46.528887      20.047001      20.857         19454.672      5515.4887      7075.8658      8186.0565     -1369.7614      666.41854     -740.56228    
  28892000   260.76861     -352.23313     -275.81939     -352.16305      0              3832.5721      46.161786      20.047001      20.857         19301.18       3749.186       5459.3049      2289.2253      194.37168     -814.3169       651.77665    
  28892500   263.68237     -352.167       -274.89943     -352.0718       0              4594.8911      46.114006      20.047001      20.857         19281.202      2866.9911      5851.2894      5066.3929     -128.61078     -67.004623     -2024.8722    
  28893000   260.7656      -353.80923     -277.39637     -353.74599      0              4035.7457      46.37465       20.047001      20.857         19390.183      5652.4957      3127.3216      3327.4199      1333.3608      218.82491     -428.59794    
  28893500   261.615       -351.32113     -274.65936     -351.2174       0              3776.0935      46.491122      20.047001      20.857         19438.882      2083.6828      3748.1027      5496.495       915.54053      878.68993     -454.12704    
  28894000   258.18031     -350.62019     -274.9649      -350.53172      0              5840.0164      46.341984      20.047001      20.857         19376.524      5675.1127      5540.8267      6304.1098      605.58556      1466.8355      16.24811     
  28894500   266.10147     -350.82864     -272.85219     -350.74716      0              4338.7425      46.290288      20.047001      20.857         19354.909      7320.7371      2725.1234      2970.367       186.18425     -579.47783      1323.7684    
  28895000   264.89213     -351.79343     -274.17136     -351.737        0              3919.3739      46.518021      20.047001      20.857         19450.129      4056.0206      3386.338       4315.7631     -226.95398      1369.9336      494.06845    
  28895500   265.91117     -350.49272     -272.57204     -350.46669      0              3431.1206      46.538798      20.047001      20.857         19458.816      5710.2652      1140.9704      3442.1262     -339.67787      103.57904      502.24037    
  28896000   271.17264     -352.31154     -272.84908     -352.23717      0              5462.7569      46.335637      20.047001      20.857         19373.87       7442.5625      4836.3136      4109.3945     -572.95884      36.254066      1161.8934    
  28896500   267.32996     -350.76991     -272.43348     -350.7408       0              4183.1827      46.157351      20.047001      20.857         19299.325      4651.0355      4345.146       3553.3665     -1097.5658      89.03735      -126.40948    
  28897000   262.68208     -351.01108     -274.03663     -350.9902       0              4906.5719      46.434378      20.047001      20.857         19415.156      4398.2457      6206.9504      4114.5196     -69.839123      61.683986      52.965739    
  28897500   267.62053     -350.72356     -272.30198     -350.72258      0              4505.2015      46.684472      20.047001      20.857         19519.726      5407.9344      4588.8757      3518.7944      1037.5767     -441.81596      1129.0373    
  28898000   267.24753     -349.91541     -271.60313     -349.88354      0              2138.7971      46.469534      20.047001      20.857         19429.855      3106.7213      1187.7119      2121.9581     -1040.268      -575.45941      436.13064    
  28898500   267.66569     -351.7258      -273.29099     -351.67486      0              2120.1456      46.307387      20.047001      20.857         19362.059      1637.5601      2747.4884      1975.3882     -107.10087      1060.7435      2142.3159    
  28899000   273.3822      -351.44076     -271.33082     -351.4262       0              6140.4507      46.317878      20.047001      20.857         19366.445      6421.5298      6086.5118      5913.3106     -290.05294      305.98088      652.21833    
  28899500   264.37787     -352.13822     -274.66684     -352.08974      0              3036.5632      46.404728      20.047001      20.857         19402.759      4134.7188      2616.7777      2358.1931     -706.10832     -2112.6462     -1303.9017    
  28900000   266.61487     -348.37503     -270.24814     -348.31682      0              5544.76        46.171853      20.047001      20.857         19305.389      3980.8731      5657.4167      6995.9903      394.03589      271.66919     -790.31924    
  28900500   270.97102     -350.77201     -271.36863     -350.68935      0              4913.357       46.075479      20.047001      20.857         19265.093      6151.9489      5436.8857      3151.2364     -1309.5299     -954.00052      1182.0308    
  28901000   274.1438      -350.30825     -269.97513     -350.26922      0              4719.647       46.251647      20.047001      20.857         19338.753      6790.4663      2543.0281      4825.4465     -67.567733      925.30253      1168.4047    
  28901500   260.92925     -349.03723     -272.57642     -348.99461      0              5736.9719      46.283533      20.047001      20.857         19352.085      4050.8154      6415.3242      6744.7762     -189.11259      541.16991      383.68997    
  28902000   262.94587     -348.14819     -271.09643     -348.11663      0              4262.4765      46.281015      20.047001      20.857         19351.032      4480.8027      4984.6712      3321.9556     -140.02003     -1873.6866     -977.35375    
  28902500   269.61738     -348.1824      -269.17568     -348.12686      0              4398.2711      46.27778       20.047001      20.857         19349.679      3357.4218      4944.411       4892.9806     -106.06579      1172.6484      1377.9647    
  28903000   256.83115     -350.75338     -275.49344     -350.75542      0              5718.3381      46.546856      20.047001      20.857         19462.185      8085.0185      4875.2618      4194.734       1003.1002      825.974       -20.2198      
  28903500   260.40535     -347.69113     -271.38384     -347.68431      0              3664.3828      46.623786      20.047001      20.857         19494.352      4585.3515      4348.7605      2059.0365     -611.1385      -1924.9148      467.21386    
  28904000   266.01744     -349.61134     -271.65952     -349.58781      0              2827.6816      46.664001      20.047001      20.857         19511.166      5106.7885      2276.0733      1100.1831      162.04634      2772.1293     -1117.4924    
  28904500   255.14103     -350.12954     -275.36487     -350.10808      0              6380.833       46.355672      20.047001      20.857         19382.248      6705.3154      6260.706       6176.4774     -760.03766      946.22895      327.86124    
  28905000   260.48816     -348.07795     -271.74639     -348.09647      0              2378.2683      46.392978      20.047001      20.857         19397.846      4620.9882      3194.8021     -680.9853       169.57442      579.54764      1087.7174    
  28905500   258.0207      -350.82212     -275.2136      -350.82433      0              6630.4812      46.53034       20.047001      20.857         19455.28       7698.8052      5569.3161      6623.3222      293.65421     -861.04661      207.51596    
  28906000   267.42546     -351.59014     -273.22572     -351.55186      0              4478.8716      46.268458      20.047001      20.857         19345.781      5451.055       3389.6447      4595.9151      850.45259      1107.7895      1136.3517    
  28906500   268.46436     -348.51474     -269.84589     -348.51405      0              5508.7551      46.103984      20.047001      20.857         19277.012      5124.8614      5802.5617      5598.8423     -224.58377     -1264.5741      164.70382    
  28907000   263.84287     -349.87476     -272.56016     -349.89112      0              4682.9479      46.453733      20.047001      20.857         19423.249      6967.5344      3497.8263      3583.483       58.704301     -65.920759     -157.34454    
  28907500   261.14617     -348.43695     -271.91257     -348.46         0              7398.5457      46.397261      20.047001      20.857         19399.637      8678.6904      7965.6062      5551.3405      1183.2803      741.68024     -113.98838    
  28908000   261.35063     -348.64728     -272.06298     -348.66651      0              4761.3637      46.183063      20.047001      20.857         19310.076      7185.5028      5039.278       2059.3103     -340.52951     -776.10979      2441.8997    
  28908500   260.82017     -350.06506     -273.6362      -350.08046      0              5144.1449      46.286163      20.047001      20.857         19353.184      4507.7159      5100.3995      5824.3192     -488.87756     -233.22624      469.6468     
  28909000   267.97503     -350.79075     -272.26529     -350.79588      0              3549.695       46.583888      20.047001      20.857         19477.669      3121.7596      5413.503       2113.8222     -515.72428      76.885966      88.541544    
  28909500   259.38097     -348.82344     -272.81632     -348.83271      0              4129.5003      46.50984       20.047001      20.857         19446.708      3377.6714      4544.5735      4466.256      -447.41761     -1241.1833     -1439.9287    
  28910000   274.89027     -347.81645     -267.2646      -347.84258      0              5566.1379      46.113001      20.047001      20.857         19280.782      5463.2979      5724.9251      5510.1909     -1094.8182     -409.98002      150.37553    
  28910500   263.2608      -348.3604      -271.21637     -348.36172      0              5731.2769      46.222355      20.047001      20.857         19326.505      7905.9246      5068.2728      4219.6334      1070.4464     -1097.8654      705.02653    
  28911000   267.61511     -349.194       -270.77401     -349.21406      0              4538.3484      46.733118      20.047001      20.857         19540.065      4704.7502      5699.981       3210.3139     -1739.1432     -671.43788      1139.7804    
  28911500   271.3653      -351.61624     -272.09732     -351.6097       0              5049.8072      46.699511      20.047001      20.857         19526.014      6843.4116      4159.3375      4146.6726      809.36241      1646.0584      1999.4425    
  28912000   270.33709     -350.13285     -270.91523     -350.1357       0              3429.9462      46.360665      20.047001      20.857         19384.335      4656.4563      3227.9085      2405.4737     -1573.7479      1595.3917      605.13589    
  28912500   267.46067     -351.53348     -273.15874     -351.53479      0              5348.8583      46.158524      20.047001      20.857         19299.816      4493.0087      5230.5242      6323.0421     -135.32398     -475.86491      827.9254     
  28913000   257.86114     -350.15637     -274.59461     -350.13752      0              4417.8757      46.30507       20.047001      20.857         19361.09       5858.1004      3457.6398      3937.8869     -306.51137      82.758324      782.69745    
  28913500   272.35544     -350.7264      -270.91734     -350.78451      0              2430.6214      46.462415      20.047001      20.857         19426.879      3284.83        759.84838      3247.1857     -551.27829      608.80501      789.96468    
  28914000   261.61802     -349.25732     -272.59467     -349.27858      0              4656.3397      46.39779       20.047001      20.857         19399.858      5950.4549      4529.919       3488.6452     -97.998642      796.62749     -557.41546    
  28914500   262.35634     -350.01234     -273.13334     -350.00433      0              4977.2477      46.217316      20.047001      20.857         19324.398      5778.7321      3618.8578      5534.1533      94.051809     -579.37691      2793.6252    
  28915000   275.10985     -353.15557     -272.53937     -353.12779      0              5272.1227      46.282709      20.047001      20.857         19351.74       4796.1339      6334.1457      4686.0886     -1161.4157      611.6704       1287.5752    
  28915500   262.92119     -350.52919     -273.48467     -350.53283      0              4101.5363      46.757229      20.047001      20.857         19550.147      3601.2951      3618.5521      5084.7618     -2148.8122      740.02482      816.12956    
  28916000   261.01109     -351.27644     -274.79165     -351.28361      0              4848.3947      46.805631      20.047001      20.857         19570.384      6201.2559      4397.7775      3946.1506      292.4417      -49.849887      1854.0831    
  28916500   262.53967     -350.36835     -273.43563     -350.36428      0              5711.1084      46.308527      20.047001      20.857         19362.535      4630.6968      7533.1114      4969.517      -873.56223      2103.209       1940.8041    
  28917000   264.58343     -349.81383     -272.28222     -349.78911      0              2351.2006      46.112047      20.047001      20.857         19280.383      4443.2542     -469.73317      3080.0806     -940.43993     -1382.2254     -1505.2001    
  28917500   265.84937     -348.76383     -270.86126     -348.783        0              5406.2112      46.489407      20.047001      20.857         19438.165      5110.8771      3396.1037      7711.6528      163.62958     -451.1609      -78.54195     
  28918000   266.88752     -349.85571     -271.64892     -349.84706      0              4520.0667      46.596097      20.047001      20.857         19482.774      2226.7316      6905.5526      4427.9161      1179.2286      1040.8096      2475.3991    
  28918500   269.96861     -351.15596     -272.04632     -351.12139      0              4591.2645      46.262003      20.047001      20.857         19343.083      4250.894       4610.4545      4912.445       1143.581      -71.350283     -399.52886    
  28919000   264.62348     -348.17601     -270.63267     -348.16162      0              6006.1629      46.070256      20.047001      20.857         19262.909      4390.6545      6886.3268      6741.5076      937.43564     -237.57428      787.72303    
  28919500   266.75466     -350.8502      -272.68235     -350.83044      0              4501.4646      46.223564      20.047001      20.857         19327.011      3329.3783      6063.2685      4111.747       487.95499      581.09583     -247.18384    
  28920000   262.82803     -352.68752     -275.6703      -352.67604      0              2669.2743      46.446649      20.047001      20.857         19420.287      3073.4157      2837.4098      2096.9975      1000.6337     -275.62144      978.99291    
  28920500   255.58291     -346.17438     -271.28022     -346.09856      0              5467.7032      46.218402      20.047001      20.857         19324.852      4279.3872      6202.0481      5921.6743      928.99742     -786.10456     -1611.9746    
  28921000   265.98077     -350.67773     -272.73665     -350.60216      0              5129.0392      46.14691       20.047001      20.857         19294.96       5241.0149      4815.6402      5330.4626     -153.57422      1402.7341      834.30673    
  28921500   259.38862     -351.2653      -275.25594     -351.25984      0              5907.815       46.281473      20.047001      20.857         19351.223      6521.117       6640.4094      4561.9186     -277.20578      800.31849     -1431.6725    
  28922000   265.70931     -351.03956     -273.17803     -350.98527      0              3886.9956      46.27716       20.047001      20.857         19349.42       4679.625       2096.8898      4884.4719      692.70124      547.6973       75.947308    
  28922500   272.32341     -350.67982     -270.88015     -350.64764      0              5444.1636      46.166539      20.047001      20.857         19303.167      6341.05        4780.8822      5210.5586      1003.7343     -1159.898      -966.27819    
  28923000   272.01867     -350.96832     -271.25794     -350.93814      0              5201.0876      46.352704      20.047001      20.857         19381.006      5975.4116      3719.0761      5908.7751      474.83639     -823.55254     -1490.5661    
  28923500   269.1113      -351.47966     -272.62123     -351.44359      0              3488.9336      46.556785      20.047001      20.857         19466.337      1913.1879      5221.5511      3332.0617      1198.4435     -34.874624     -1523.4226    
  28924000   259.3927      -348.93586     -272.92531     -348.89694      0              3758.0019      46.371674      20.047001      20.857         19388.938      5370.6366      2574.8122      3328.5569     -783.3739       2028.396       1082.2091    
  28924500   272.38391     -350.88888     -271.07148     -350.84585      0              4352.8768      46.122403      20.047001      20.857         19284.713      5834.761       3381.3338      3842.5356     -432.45926      542.70986     -928.70055    
  28925000   269.40174     -349.11325     -270.16972     -349.07435      0              2207.3414      46.293197      20.047001      20.857         19356.125      2003.8828      592.78556      4025.356       633.07219      1630.3435     -2208.4632    
  28925500   274.47687     -350.08559     -269.65488     -350.05334      0              4707.9281      46.497413      20.047001      20.857         19441.512      4564.9085      5509.6231      4049.2527      743.0581       116.01155      895.21104    
  28926000   262.1444      -349.76132     -272.94442     -349.7211       0              4800.4928      46.321783      20.047001      20.857         19368.078      7408.3969      2025.3437      4967.7378      316.15632      513.05598     -994.29819    
  28926500   259.19281     -349.14956     -273.19758     -349.08766      0              3697.546       46.366502      20.047001      20.857         19386.776      5026.4         3973.5602      2092.6779      114.59945     -520.20963      1391.5838    
  28927000   268.55842     -352.72537     -274.02896     -352.66211      0              4384.2078      46.468149      20.047001      20.857         19429.277      4695.1395      3416.4011      5041.0829      1469.852       248.28089      23.793046    
  28927500   259.71636     -351.86569     -275.7603      -351.77992      0              2313.2704      46.33376       20.047001      20.857         19373.085      1109.8599      4871.1122      958.83899     -169.81271      992.40676     -463.13716    
  28928000   263.87966     -351.01166     -273.68627     -350.92655      0              6510.434       46.110858      20.047001      20.857         19279.886      9003.0356      4874.7061      5653.5602     -477.10888      83.044657      587.47983    
  28928500   269.73831     -350.01687     -270.97471     -349.9359       0              4351.5736      46.35758       20.047001      20.857         19383.045      5789.7168      4394.6038      2870.4001      1032.0945      458.45625     -283.15956    
  28929000   260.87578     -349.15151     -272.70636     -349.05139      0              2412.3286      46.383212      20.047001      20.857         19393.762      1257.4844      1957.3205      4022.181      -426.1507       2194.7047     -93.072393    
  28929500   262.14902     -347.1773      -270.35905     -347.11758      0              4945.2201      46.362692      20.047001      20.857         19385.183      4459.1522      5581.8536      4794.6544     -360.25993     -723.13634     -267.07583    
  28930000   260.51909     -351.4628      -275.12217     -351.4247       0              5701.0413      46.263341      20.047001      20.857         19343.642      5843.9745      6111.8794      5147.2701     -444.66963     -261.21308      538.96444    
  28930500   268.49769     -352.55288     -273.87426     -352.48277      0              5595.9836      46.226744      20.047001      20.857         19328.34       5905.9703      4896.3337      5985.6468      681.72412     -544.3762       1498.2743    
  28931000   265.57893     -349.8474      -272.02407     -349.76311      0              6465.9677      46.38422       20.047001      20.857         19394.184      6813.843       8169.5767      4414.4834     -1206.9588     -1292.9021      288.05563    
  28931500   263.87713     -348.03407     -270.70943     -347.9696       0              5295.2939      46.39899       20.047001      20.857         19400.36       6524.5711      4587.85        4773.4607      426.91714     -374.32228     -439.02115    
  28932000   259.72098     -351.40476     -275.29801     -351.31828      0              5320.8873      46.332782      20.047001      20.857         19372.677      6240.6334      4284.0928      5437.9358     -334.24531      845.2322       517.61431    
  28932500   265.38876     -351.59571     -273.82811     -351.56519      0              3568.7952      46.169792      20.047001      20.857         19304.527      4781.2754      3360.7264      2564.3837      452.15533      104.55594     -2695.3238    
  28933000   266.28498     -350.03431     -272.00409     -349.98075      0              5354.6692      46.20245       20.047001      20.857         19318.182      5700.528       4367.6258      5995.8539      491.09165      485.39144      2176.8093    
  28933500   266.00427     -350.19217     -272.24421     -350.15648      0              6099.141       46.188254      20.047001      20.857         19312.247      7858.9989      4559.9468      5878.4775      45.82058      -439.56958     -994.49034    
  28934000   271.15574     -350.55192     -271.0944      -350.50128      0              5069.8428      46.095554      20.047001      20.857         19273.487      6530.5138      5187.1722      3491.8425     -757.1907       201.10839      686.81843    
  28934500   268.16844     -349.81279     -271.23066     -349.74284      0              4742.2907      46.367705      20.047001      20.857         19387.279      5767.8806      4238.9335      4220.0579     -1297.8908     -831.49559      27.081781    
  28935000   262.79386     -349.19663     -272.18943     -349.1868       0              7073.2637      46.740977      20.047001      20.857         19543.351      6631.6793      6959.2685      7628.8433     -857.62309     -1436.9576      317.68575    
  28935500   258.84981     -347.34255     -271.49108     -347.28745      0              3559.1892      46.460919      20.047001      20.857         19426.253      3506.8963      2481.7625      4688.9087      326.60932     -2266.2147     -432.82975    
  28936000   261.84378     -349.77423     -273.04542     -349.74383      0              3153.1245      46.232782      20.047001      20.857         19330.864      3561.1584      4228.8133      1669.4017      336.79633      1189.7892     -571.47893    
  28936500   261.21293     -350.53589     -273.99195     -350.50402      0              3033.3994      46.236409      20.047001      20.857         19332.381      4751.0566     -1054.4229      5403.5644      2087.7884      110.39236     -633.88572    
  28937000   261.09192     -348.72975     -272.22127     -348.67395      0              2717.2134      46.456546      20.047001      20.857         19424.425      4551.0927      3887.2874     -286.73991     -1322.9252      1425.2763      889.36976    
  28937500   270.57407     -351.03448     -271.74741     -350.99393      0              2822.2502      46.6595        20.047001      20.857         19509.284      3442.0725      3124.8835      1899.7947      263.0802       470.23169      989.06873    
  28938000   260.08367     -350.36219     -274.14916     -350.31545      0              4321.4723      46.588715      20.047001      20.857         19479.687      4353.8445      5808.1472      2802.4252      720.65046      412.37356      473.34837    
  28938500   257.99874     -352.42928     -276.8272      -352.35361      0              4297.0006      46.307941      20.047001      20.857         19362.29       8502.7876      1405.8762      2982.3379      1194.4667     -311.59814      225.73884    
  28939000   259.5748      -350.99526     -274.93135     -350.9618       0              4944.7068      46.332982      20.047001      20.857         19372.76       8134.237       3197.4694      3502.4142      490.12998     -758.2911      -724.84738    
  28939500   264.25282     -350.93374     -273.49902     -350.91007      0              6938.1106      46.697327      20.047001      20.857         19525.1        7842.5348      6590.6458      6381.1512      411.773       -1077.7731      309.78383    
  28940000   261.39235     -350.1441      -273.54758     -350.1365       0              4810.2663      46.887461      20.047001      20.857         19604.599      5849.7002      4616.8814      3964.2175      1214.072       1054.6935     -2320.1894    
  28940500   268.16995     -348.08057     -269.498       -348.01225      0              6504.647       46.340858      20.047001      20.857         19376.053      6835.3773      8268.6231      4409.9406      10.926841     -63.954981     -111.61014    
  28941000   265.33812     -349.03929     -271.28653     -349.01725      0              4984.8413      46.254127      20.047001      20.857         19339.789      6990.4821      3150.0438      4813.9979     -955.46927     -847.21011      1703.8124    
  28941500   264.95695     -351.69074     -274.04968     -351.63728      0              3398.6067      46.720818      20.047001      20.857         19534.922      3764.8695      3659.5448      2771.4057      626.16427      1903.1467      802.96033    
  28942000   267.1338      -350.4541      -272.17514     -350.44869      0              3912.7825      46.717959      20.047001      20.857         19533.727      2261.6765      5150.2604      4326.4107      748.54122      830.82756     -192.95174    
  28942500   264.77831     -349.20293     -271.61421     -349.15936      0              5499.4122      46.483681      20.047001      20.857         19435.771      6922.3932      5040.1158      4535.7275      2519.5695     -2119.992       425.28484    
  28943000   266.71431     -350.25536     -272.09933     -350.18625      0              6811.4496      46.329769      20.047001      20.857         19371.417      5502.0594      7369.5167      7562.7727      299.83937      175.87223     -1700.5015    
  28943500   268.15468     -349.04178     -270.46367     -348.97921      0              4846.9915      46.211952      20.047001      20.857         19322.155      6500.0171      3210.6747      4830.2826      1135.7278      59.316321      511.36449    
  28944000   257.94298     -350.86705     -275.28131     -350.80953      0              2770.0218      46.360124      20.047001      20.857         19384.109      3387.1186      4028.5254      894.42153     -1839.15        1062.702       1130.5858    
  28944500   267.13277     -350.95663     -272.67798     -350.93563      0              4145.1129      46.39423       20.047001      20.857         19398.369      6132.6134      3823.6162      2479.109       714.38163     -1472.7216     -753.05517    
  28945000   266.85611     -349.27714     -271.07956     -349.27969      0              5148.5746      46.117982      20.047001      20.857         19282.864      5283.9478      5390.4368      4771.339      -394.20462      751.95174      1345.209     
  28945500   269.17049     -347.54791     -268.67214     -347.51115      0              5340.4036      46.00854       20.047001      20.857         19237.105      5374.8415      6401.7109      4244.6582     -256.23779      654.97911      244.60575    
  28946000   273.41279     -349.49586     -269.37695     -349.50004      0              5002.1123      46.022233      20.047001      20.857         19242.83       5133.0921      5588.2714      4284.9734      1154.672      -2470.7655      480.53272    
  28946500   267.627       -346.95665     -268.53317     -346.95237      0              4464.1508      46.301103      20.047001      20.857         19359.431      4560.6795      3929.0945      4902.6782     -409.72318      153.54366     -1839.5754    
  28947000   264.09724     -348.42642     -271.03728     -348.39941      0              4696.7797      46.27659       20.047001      20.857         19349.182      5431.1127      4530.1433      4129.0831     -889.01254     -763.94443     -922.8166     
  28947500   255.45362     -349.6661      -274.80982     -349.6423       0              3804.9653      46.119026      20.047001      20.857         19283.301      6438.4671      2107.8176      2868.611      -1414.5213     -852.89909      1106.3243    
  28948000   260.30201     -350.37622     -274.09921     -350.38706      0              3778.6555      46.188461      20.047001      20.857         19312.333      5860.16        3796.6887      1679.1177      207.09685     -1524.5118      1822.8092    
  28948500   258.61686     -348.45112     -272.66792     -348.47721      0              5838.3475      46.231455      20.047001      20.857         19330.31       5301.3563      6481.1785      5732.5077      1209.1717     -637.558       -305.25366    
  28949000   269.12575     -351.79124     -272.92858     -351.7888       0              5194.292       46.23176       20.047001      20.857         19330.438      6152.6642      6001.9383      3428.2734      1753.5662     -251.62173     -10.513511    
  28949500   264.74615     -352.08353     -274.50424     -352.06888      0              3844.6564      46.548711      20.047001      20.857         19462.961      4489.6952      3650.5502      3393.7239      922.60479      385.0692      -1256.3038    
  28950000   271.89785     -351.67499     -272.00001     -351.65128      0              4679.9218      46.666894      20.047001      20.857         19512.376      3558.749       5369.5996      5111.4167     -262.1121       180.4827       448.89866    
  28950500   268.43549     -350.38483     -271.72444     -350.35192      0              4586.7379      46.42107       20.047001      20.857         19409.592      6199.6432      2795.713       4764.8575      965.11223     -1558.3707      1767.4682    
  28951000   267.03899     -348.65962     -270.40845     -348.62773      0              4644.5216      46.130672      20.047001      20.857         19288.17       3737.2412      6151.6187      4044.705       578.20166      99.370208      110.38039    
  28951500   271.48814     -350.65675     -271.10183     -350.64116      0              4221.796       46.160771      20.047001      20.857         19300.755      5241.6171      3998.4601      3425.3106      1689.2207     -1099.9758     -210.63676    
  28952000   262.18034     -348.94966     -272.12224     -348.91745      0              3597.4016      46.446976      20.047001      20.857         19420.423      1844.1492      4808.9129      4139.1428     -124.91115      1678.21       -388.33741    
  28952500   259.96197     -348.93214     -272.75477     -348.91964      0              4343.3489      46.160502      20.047001      20.857         19300.643      4880.7127      4763.2033      3386.1306     -362.44427     -1554.6106     -123.80479    
  28953000   263.88752     -347.6525      -270.32482     -347.64552      0              4795.2368      45.904888      20.047001      20.857         19193.766      7367.6981      2965.0384      4052.974      -1893.9537     -1729.6252     -894.31366    
  28953500   271.98202     -348.95187     -269.25223     -348.90183      0              6876.9784      46.251709      20.047001      20.857         19338.778      5469.346       5743.5386      9418.0505      672.23819     -619.6037       347.65823    
  28954000   258.27765     -349.99869     -274.31488     -349.98365      0              3986.8027      46.646369      20.047001      20.857         19503.794      4383.4699      3101.4254      4475.5128      1854.1555     -422.32755     -458.62021    
  28954500   272.70149     -348.15112     -268.24065     -348.12827      0              4119.7039      46.230962      20.047001      20.857         19330.104      6381.7604      2365.6973      3611.6541     -1138.6983      578.06835     -38.008735    
  28955000   266.77422     -348.5382      -270.36461     -348.52345      0              4305.5256      46.164196      20.047001      20.857         19302.187      6266.26        3655.8019      2994.5148      2333.974       1029.365       173.12181    
  28955500   264.77746     -348.38215     -270.79368     -348.40251      0              6470.5015      46.445158      20.047001      20.857         19419.663      6054.8332      7182.5929      6174.0785      214.9256      -538.90383      1361.3424    
  28956000   263.21197     -348.36101     -271.23128     -348.37424      0              3069.5856      46.585601      20.047001      20.857         19478.385      4362.9353      1751.3505      3094.4711      692.57859      1043.0226     -685.81316    
  28956500   272.72288     -348.891       -268.97426     -348.84141      0              5147.9123      46.445188      20.047001      20.857         19419.676      6313.216       5981.9871      3148.5338      1476.3255      461.83752     -537.44082    
  28957000   269.52424     -348.7531      -269.77367     -348.73934      0              3822.8494      46.334005      20.047001      20.857         19373.188      5962.832       3578.9393      1926.777       871.99056      328.87711     -136.55266    
  28957500   270.01929     -349.7736      -270.6491      -349.7441       0              3270.4109      46.393778      20.047001      20.857         19398.181      4300.6043      3626.678       1883.9504     -1480.8967      108.10198     -426.72823    
  28958000   261.73378     -350.28065     -273.58408     -350.25848      0              3352.7632      46.635847      20.047001      20.857         19499.394      1203.1552      3568.3229      5286.8116      1000.2759     -1087.5299      1420.277     
  28958500   272.35472     -350.50491     -270.69606     -350.46192      0              4591.8891      46.340108      20.047001      20.857         19375.74       4043.6894      4392.0133      5339.9645     -85.821681      460.88441      335.79871    
  28959000   266.82348     -351.46898     -273.28096     -351.47832      0              7312.4213      46.099563      20.047001      20.857         19275.163      8282.5926      7400.4743      6254.1968      2000.1285      1013.7403      443.91412    
  28959500   260.77519     -349.35973     -272.94406     -349.33419      0              3362.9908      46.447986      20.047001      20.857         19420.846      4729.8465      1911.6855      3447.4405      936.67931     -135.06885      362.18896    
  28960000   264.67338     -349.34271     -271.78474     -349.35616      0              4396.4418      46.617312      20.047001      20.857         19491.644      6233.2153      3466.5918      3489.5185     -518.97488      325.08686      672.91426    
  28960500   262.31648     -352.41342     -275.54611     -352.35189      0              4409.1838      46.550541      20.047001      20.857         19463.726      3893.4163      4893.4825      4440.6528      1486.7961     -2320.4711     -831.30366    
  28961000   263.49356     -350.4648      -273.25255     -350.39941      0              3583.9648      46.493383      20.047001      20.857         19439.827      5003.821      -202.77655      5950.8499      304.06898     -252.50918      208.35457    
  28961500   261.08133     -349.13937     -272.63399     -349.08508      0              5486.9559      46.564842      20.047001      20.857         19469.706      3259.4867      8191.3784      5010.0026      878.49841      1098.5017      350.86382    
  28962000   260.17195     -347.142       -270.9031      -347.08902      0              2958.1695      46.624458      20.047001      20.857         19494.632      3913.8002      2233.5551      2727.1533      1294.6731      278.72984     -579.29252    
  28962500   265.63452     -350.11536     -272.27574     -350.06221      0              4636.1336      46.238326      20.047001      20.857         19333.183      3506.6575      5087.0633      5314.6802     -233.18909     -1829.7539      697.51488    
  28963000   261.84096     -350.35457     -273.62659     -350.32831      0              3657.1061      46.196984      20.047001      20.857         19315.897      4282.7705      4021.7223      2666.8256      231.32045     -1224.7541      1258.8532    
  28963500   265.13416     -349.22578     -271.53279     -349.19646      0              2606.6332      46.162435      20.047001      20.857         19301.451      3563.7329      1515.8384      2740.3283      676.84695      1559.4939     -943.59151    
  28964000   258.23747     -349.37772     -273.70569     -349.36278      0              5798.7675      46.170822      20.047001      20.857         19304.958      6817.6568      5273.6272      5305.0185      762.45029     -2689.9959      807.87231    
  28964500   263.59422     -349.68433     -272.44259     -349.64413      0              4752.1346      46.062775      20.047001      20.857         19259.781      3318.5259      6842.2213      4095.6566      2047.212      -1163.6839     -1209.2104    
  28965000   268.2232      -348.79179     -270.1936      -348.7726       0              5239.4935      46.023039      20.047001      20.857         19243.167      6572.9214      3653.7498      5491.8092      581.02337     -433.86233      231.39107    
  28965500   266.11882     -350.9666      -272.98507     -350.92261      0              4196.8888      46.56945       20.047001      20.857         19471.633      4921.4821      2931.0797      4738.1045     -117.37001     -591.52488     -1272.2587    
  28966000   272.72018     -349.96254     -270.0466      -349.9351       0              4102.5877      46.622459      20.047001      20.857         19493.797      7176.6207      4136.4954      994.6469       167.33853     -24.090926     -392.13039    
  28966500   255.81841     -349.04367     -274.0805      -348.99205      0              1525.4438      46.143926      20.047001      20.857         19293.712      2164.0575      1894.3371      517.93677      1376.381       443.8591      -873.92486    
  28967000   272.06892     -351.78059     -272.05549     -351.70326      0              6629.4718      46.064307      20.047001      20.857         19260.422      7505.3719      6474.7016      5908.3421      3137.5472     -391.40027     -512.10544    
  28967500   264.78089     -351.14896     -273.55949     -351.11492      0              2449.8404      46.247425      20.047001      20.857         19336.987      2208.9007      4428.2103      712.4103      -1347.7505     -744.20712      357.102      
  28968000   266.93116     -350.74857     -272.529       -350.67224      0              5604.8437      46.132453      20.047001      20.857         19288.915      4860.8264      7687.9296      4265.7749      1198.3902      1451.9241      555.7587     
  28968500   263.87477     -349.94592     -272.62197     -349.85655      0              6102.237       46.036894      20.047001      20.857         19248.96       7025.3579      6652.2569      4629.096       681.2038      -261.05683      893.64097    
  28969000   261.0726      -350.79284     -274.29002     -350.75436      0              3364.7167      46.246932      20.047001      20.857         19336.781      1370.1731      5099.1783      3624.7986      360.74239      507.72987     -1489.4685    
  28969500   259.08838     -350.86101     -274.93963     -350.8229       0              3386.3437      46.215908      20.047001      20.857         19323.809      4770.7162      1168.231       4220.084       1187.4904      722.30938     -163.56018    
  28970000   256.80465     -351.60078     -276.34861     -351.51722      0              6431.5046      46.109201      20.047001      20.857         19279.193      7767.4019      6389.8804      5137.2315      471.22141      335.43902      177.01997    
  28970500   259.46619     -352.28412     -276.25203     -352.25324      0              4216.2567      46.128965      20.047001      20.857         19287.457      5353.2437      5122.1097      2173.4168     -59.09438       793.92991     -668.46274    
  28971000   264.35203     -346.73207     -269.26827     -346.69039      0              3953.4336      45.96341       20.047001      20.857         19218.235      6592.2993      1157.7364      4110.2651      1225.0896      2057.9379     -639.37181    
  28971500   270.4861      -348.38008     -269.1188      -348.35803      0              6648.2882      45.912585      20.047001      20.857         19196.984      6053.5314      6992.3565      6898.9769      203.19627      860.60656     -391.06284    
  28972000   261.48896     -347.3116      -270.68677     -347.28923      0              4602.8468      46.492402      20.047001      20.857         19439.417      4161.4586      6541.3332      3105.7487      846.21956     -598.28951     -605.9053     
  28972500   263.80963     -347.28145     -269.97659     -347.20709      0              2996.2975      46.523         20.047001      20.857         19452.211      3079.1783      5224.9433      684.77085      2357.1557      1300.5656     -221.35856    
  28973000   262.2362      -347.39579     -270.55199     -347.36621      0              5357.5979      46.30645       20.047001      20.857         19361.667      5476.3097      4276.4821      6320.0018      400.28911      736.1514      -1795.1925    
  28973500   270.71045     -349.10864     -269.78162     -349.02689      0              7649.7623      45.736727      20.047001      20.857         19123.454      9085.2438      8177.5914      5686.4516      924.52051     -900.95047     -1158.0489    
  28974000   264.67884     -346.76094     -269.20137     -346.70574      0              3380.5102      45.831745      20.047001      20.857         19163.183      4386.4983      1722.2203      4032.812       78.971254     -1407.3627      1328.4412    
  28974500   270.17612     -350.04959     -270.87914     -350.00836      0              4450.4528      46.417868      20.047001      20.857         19408.253      5820.3095      3234.9232      4296.1257      1346.0106     -1683.506      -748.12975    
  28975000   264.64999     -351.61786     -274.06674     -351.56283      0              5751.765       46.381171      20.047001      20.857         19392.909      4952.0057      7201.6876      5101.6015     -410.53758     -595.10621     -1027.915     
  28975500   261.97082     -349.08921     -272.32318     -349.04173      0              3346.3375      46.225227      20.047001      20.857         19327.706      3822.4302      3388.6422      2827.9402      1557.2528      498.25538     -678.04984    
  28976000   260.16369     -350.71347     -274.47699     -350.68058      0              6974.7824      46.21925       20.047001      20.857         19325.207      7691.1283      4707.6507      8525.5681     -2332.9849      374.8755       1282.0261    
  28976500   259.55359     -349.96455     -273.90685     -349.8953       0              3784.7224      46.33492       20.047001      20.857         19373.571      5386.9785      4473.4831      1493.7057      268.93913     -1508.5182      239.19995    
  28977000   258.033       -348.32921     -272.71709     -348.24817      0              3676.3103      46.170223      20.047001      20.857         19304.708      5465.4705      3470.9934      2092.4671      1938.3651      1516.6213      1769.2398    
  28977500   261.37786     -350.47764     -273.88537     -350.41363      0              4664.8144      46.143899      20.047001      20.857         19293.701      6074.1015      3706.8266      4213.5151     -357.6831      -1510.3878      33.601805    
  28978000   268.35528     -350.08947     -271.45258     -350.00718      0              1536.1796      46.263925      20.047001      20.857         19343.886      2430.594       1945.3832      232.5616       1135.7585     -1152.1602     -887.20207    
  28978500   271.15186     -350.86235     -271.40597     -350.80357      0              806.27705      46.26059       20.047001      20.857         19342.492     -56.363573      2258.0688      217.12595      503.73275     -506.87572     -595.09917    
  28979000   272.20006     -349.76654     -270.00301     -349.72727      0              4115.4362      45.99503       20.047001      20.857         19231.456      5254.4912      4245.5916      2846.2258      532.50655      368.29973      1679.8753    
  28979500   260.98806     -349.57404     -273.09599     -349.4876       0              4098.1667      46.136859      20.047001      20.857         19290.757      2285.6123      6709.2718      3299.616      -84.917085     -350.12487      546.59798    
  28980000   270.5268      -350.88677     -271.61356     -350.77732      0              5358.9447      46.304608      20.047001      20.857         19360.897      3188.537       7103.2046      5785.0927      972.80678      2635.2689     -1851.5016    
  28980500   265.67032     -350.76069     -272.91058     -350.70125      0              5494.5376      46.543839      20.047001      20.857         19460.924      6195.0991      4759.8421      5528.6715     -712.33807     -343.09206      1039.2281    
  28981000   271.02213     -351.98397     -272.56561     -351.90594      0              3769.7296      46.388211      20.047001      20.857         19395.853      2963.7398      4478.1021      3867.3469      174.93777     -1179.459      -2917.4749    
  28981500   270.57284     -350.26197     -270.97527     -350.18378      0              4282.6614      46.281204      20.047001      20.857         19351.111      5230.8246      3876.1406      3741.0189     -191.20462      751.42065      1190.9328    
  28982000   257.17143     -350.50399     -275.14434     -350.44387      0              5326.8018      46.254691      20.047001      20.857         19340.025      6783.3966      4322.0023      4875.0064     -930.62079     -1842.0861      81.216892    
  28982500   260.65483     -351.12968     -274.74928     -351.08016      0              5288.6114      46.271187      20.047001      20.857         19346.923      2935.3808      5816.0594      7114.3939     -562.69263     -412.79056     -909.11626    
  28983000   258.11927     -351.90619     -276.26879     -351.82313      0              4972.8565      46.505038      20.047001      20.857         19444.7        5976.0777      4188.855       4753.6369      789.34574      57.243801     -738.02138    
  28983500   261.48186     -348.82034     -272.19759     -348.71918      0              5623.9038      46.464039      20.047001      20.857         19427.558      7131.4468      5257.7897      4482.4749     -317.89748     -408.68491     -441.29463    
  28984000   263.79081     -348.95934     -271.66        -348.89883      0              4885.7943      46.331722      20.047001      20.857         19372.233      3922.9578      5247.7328      5486.6924      446.10434      1005.6382     -23.561237    
  28984500   259.95232     -352.94633     -276.77179     -352.88843      0              4910.8452      46.286574      20.047001      20.857         19353.356      7208.965       4628.7107      2894.8599      1056.3197     -762.18987     -711.60038    
  28985000   256.85094     -354.48868     -279.22295     -354.41351      0              4273.7167      46.200633      20.047001      20.857         19317.423      4551.9737      4173.2103      4095.9661     -620.82636      218.02344     -2143.7607    
  28985500   257.3095      -351.24607     -275.84596     -351.18856      0              5466.6834      46.392389      20.047001      20.857         19397.599      2995.7989      6042.1991      7362.0521      1192.7775     -317.49515     -900.84472    
  28986000   259.43391     -349.72881     -273.70618     -349.6641       0              5422.7218      46.301718      20.047001      20.857         19359.688      5829.051       5740.1219      4698.9925     -1548.1963     -204.16398      1297.5903    
  28986500   270.86311     -351.10797     -271.73621     -351.05593      0              3912.0808      46.230281      20.047001      20.857         19329.819      4437.2774      2792.7314      4506.2337      1617.3603      69.378588     -150.48385    
  28987000   263.86344     -351.17965     -273.85902     -351.10581      0              4815.2938      46.452272      20.047001      20.857         19422.638      4138.4079      5203.4274      5104.0461      1256.5504     -1256.1149     -377.39657    
  28987500   269.24165     -352.11218     -273.21556     -352.04789      0              4510.5507      46.215026      20.047001      20.857         19323.441      4341.9752      6644.1006      2545.5762     -245.10301     -2345.2906      892.3347     
  28988000   267.23808     -353.7426      -275.43309     -353.69907      0              5174.4138      45.928651      20.047001      20.857         19203.701      3420.5835      6803.3119      5299.346       376.46293     -1238.2057     -179.48711    
  28988500   262.6515      -351.12127     -274.15577     -351.03736      0              2866.386       46.15143       20.047001      20.857         19296.85       2999.1328      3145.6581      2454.367      -83.636701     -188.47336     -917.77962    
  28989000   264.64214     -350.39398     -272.84516     -350.37898      0              3403.8822      46.708136      20.047001      20.857         19529.62       2125.4981      3200.5356      4885.6129      984.22854     -2250.8224      233.83927    
  28989500   266.74975     -350.22619     -272.05978     -350.1636       0              5084.068       46.705605      20.047001      20.857         19528.562      6974.0141      4744.2056      3533.9843      341.67378      1404.9654      2347.1675    
  28990000   264.84615     -351.22951     -273.62091     -351.16479      0              2315.1725      46.27783       20.047001      20.857         19349.7        5834.0703     -153.55678      1265.004       516.40136      1230.5948     -1035.7852    
  28990500   267.66546     -352.22395     -273.78921     -352.17352      0              6196.1314      46.249725      20.047001      20.857         19337.949      6825.8015      7984.7125      3777.8803      1465.7448      821.68022      1853.1358    
  28991000   263.98167     -350.86099     -273.50571     -350.81866      0              4080.495       46.452559      20.047001      20.857         19422.758      4952.0722      2238.7173      5050.6955     -1480.2719     -1239.7105     -254.69961    
  28991500   261.0219      -350.31719     -273.82923     -350.25849      0              5557.8144      46.588597      20.047001      20.857         19479.638      7613.6519      4666.7208      4393.0706      1526.5764      369.39942      48.488057    
  28992000   272.80166     -350.26161     -270.32179     -350.17919      0              4829.4727      46.371778      20.047001      20.857         19388.982      5722.7163      4364.2044      4401.4976     -849.44313     -422.97881      1629.134     
  28992500   272.86719     -350.35868     -270.39966     -350.25328      0              2178.771       46.182885      20.047001      20.857         19310.002      2551.9519      1656.9826      2327.3785     -276.54054      84.428602      400.08387    
  28993000   259.68788     -350.6713      -274.57424     -350.61885      0              5446.292       46.344622      20.047001      20.857         19377.627      5202.6866      4961.2574      6174.9321     -710.72724      803.13895      1483.8729    
  28993500   268.45667     -353.74291     -275.07631     -353.71318      0              6903.4637      46.382014      20.047001      20.857         19393.262      7735.1528      6857.9466      6117.2916     -831.71129     -90.14068      -572.66189    
  28994000   263.09389     -349.2906      -272.19547     -349.24194      0              4582.4041      46.287826      20.047001      20.857         19353.88       5438.1941      3717.2045      4591.8137     -791.12746      55.924269      56.710602    
  28994500   270.42032     -351.6938      -272.45179     -351.66553      0              4809.7517      46.558272      20.047001      20.857         19466.959      6289.9945      4772.7728      3366.4877     -1012.4986     -133.49137      1927.6022    
  28995000   263.81227     -347.90368     -270.59804     -347.89703      0              4279.6028      46.613798      20.047001      20.857         19490.175      6171.0889      2972.3631      3695.3565     -129.07742      53.106143      69.409625    
  28995500   263.41385     -350.12729     -272.93841     -350.11588      0              4519.4037      46.365085      20.047001      20.857         19386.183      3920.9333      3490.6437      6146.6341     -325.44956      896.07503     -698.11674    
  28996000   264.66267     -351.7008      -274.14597     -351.67738      0              5489.2562      46.394016      20.047001      20.857         19398.28       6361.4154      4893.9562      5212.3971      632.81265     -148.18092      111.11337    
  28996500   267.0854      -353.5407      -275.27593     -353.53224      0              4625.7077      46.399593      20.047001      20.857         19400.612      4862.3598      3776.808       5237.9552      907.79258      9.6658456     -379.08192    
  28997000   259.79551     -350.01978     -273.89119     -350.00902      0              2616.4989      46.424034      20.047001      20.857         19410.831      2517.7745      2393.0599      2938.6622      378.83507      421.45051      1519.7645    
  28997500   263.07873     -353.31492     -276.22423     -353.26967      0              1750.8828      46.597145      20.047001      20.857         19483.212      711.76464      2909.0936      1631.7901     -1323.6839      2691.0884      660.43453    
  28998000   261.46747     -350.67718     -274.05864     -350.68943      0              3877.6671      46.502273      20.047001      20.857         19443.544      5202.3833      5221.9606      1208.6576     -574.59635     -2326.6044     -336.00377    
  28998500   265.61474     -351.17708     -273.34327     -351.13739      0              3616.0798      46.507754      20.047001      20.857         19445.836      3869.0924      3506.3318      3472.8151     -717.44251      554.35362     -404.62237    
  28999000   264.66216     -351.0204      -273.46572     -350.99936      0              3166.8464      46.663079      20.047001      20.857         19510.781      2821.658       3165.7656      3513.1155      353.15152      673.46404     -258.2932     
  28999500   270.27877     -354.49415     -275.29362     -354.48894      0              4366.5457      46.445969      20.047001      20.857         19420.003      7380.8615      2079.5773      3639.1982     -424.94219     -1040.2673      1433.6273    
  29000000   261.89127     -349.33229     -272.58957     -349.30204      0              4779.0793      46.461953      20.047001      20.857         19426.686      4013.8197      7885.835       2437.5833     -207.10954      407.27198      570.77067    
  29000500   258.44886     -349.81925     -274.08527     -349.80296      0              4462.574       46.207916      20.047001      20.857         19320.468      4690.6292      3574.9025      5122.1904      475.9314      -1638.0093      106.5284     
  29001000   260.83447     -350.71024     -274.2772      -350.64337      0              3582.6692      46.085689      20.047001      20.857         19269.362      5282.7829      3681.8377      1783.387      -436.95661     -203.91971     -712.35727    
  29001500   266.47416     -350.92283     -272.83717     -350.87975      0              5180.0059      46.211274      20.047001      20.857         19321.872      5932.387       5045.165       4562.4657     -1271.5169     -2350.7576      21.283255    
  29002000   270.20732     -350.55312     -271.37352     -350.50208      0              3307.9706      46.262804      20.047001      20.857         19343.417      1587.4049      3867.1751      4469.3319     -885.15156     -2184.0719      1182.8813    
  29002500   266.52658     -347.7832      -269.68218     -347.7307       0              3870.7752      46.23193       20.047001      20.857         19330.509      3456.7835      6366.4782      1789.0641      812.53403      983.06358     -381.43386    
  29003000   272.55781     -349.28665     -269.41829     -349.23435      0              4200.1344      46.276445      20.047001      20.857         19349.121      5049.7822      3393.9699      4156.6511     -473.92363      1081.6095     -436.52563    
  29003500   261.634       -348.52805     -271.86072     -348.52613      0              3328.5026      46.570955      20.047001      20.857         19472.262      4509.8262      2136.5331      3339.1485      1010.0873      1422.0665     -917.96682    
  29004000   262.17303     -351.44175     -274.61647     -351.40886      0              3542.447       46.602596      20.047001      20.857         19485.491      2981.5113      3377.4584      4268.3712     -783.50841     -1039.5189     -1226.2814    
  29004500   261.42713     -350.47863     -273.87192     -350.45765      0              5436.9118      46.177977      20.047001      20.857         19307.95       4598.7548      6887.6092      4824.3715      592.0963      -381.16764     -358.69647    
  29005000   264.51915     -351.85015     -274.33738     -351.78687      0              6150.1287      45.881408      20.047001      20.857         19183.948      8041.204       3897.352       6511.83       -1677.3419      1706.0594      221.57249    
  29005500   262.69791     -351.32115     -274.34205     -351.28796      0              3835.0455      46.193671      20.047001      20.857         19314.512      5456.0952      2344.9005      3704.1408     -1072.4149     -1162.0152     -742.9892     
  29006000   262.46519     -350.4043      -273.4934      -350.373        0              3356.8172      46.62872       20.047001      20.857         19496.414      2459.9476      3967.6017      3642.9023     -1083.4887      1869.8921     -440.96288    
  29006500   261.45301     -349.79854     -273.18425     -349.7453       0              4134.6659      46.262605      20.047001      20.857         19343.334      3865.8768      4507.7934      4030.3275     -643.43372      1916.4858     -910.61222    
  29007000   259.82084     -351.83386     -275.69784     -351.77313      0              3917.7973      46.097557      20.047001      20.857         19274.324      5560.9591      3315.6435      2876.7893     -127.6589       221.53068     -493.49747    
  29007500   258.23398     -350.37429     -274.70328     -350.35106      0              5054.9745      46.282262      20.047001      20.857         19351.553      5296.0822      2575.4478      7293.3935     -1198.8503      870.47867     -1176.6554    
  29008000   257.69496     -350.90577     -275.39271     -350.8676       0              4506.1916      46.421428      20.047001      20.857         19409.742      5181.8102      4765.4684      3571.2963     -1206.9585      1079.3835     -521.32275    
  29008500   264.63271     -352.0742      -274.52815     -352.04807      0              5136.044       46.17672       20.047001      20.857         19307.424      5312.4365      3901.3962      6194.2992      1317.5743      328.28745     -765.16755    
  29009000   261.04236     -351.47659     -274.98263     -351.4345       0              3479.9329      45.992472      20.047001      20.857         19230.386      1894.2483      4771.3267      3774.2237     -1570.0142      467.05228      242.60292    
  29009500   256.61695     -350.56785     -275.37068     -350.51565      0              3163.3108      46.067574      20.047001      20.857         19261.788      1943.9725      4436.1699      3109.79       -1273.5528      717.80612     -501.45044    
  29010000   267.32965     -349.98635     -271.65001     -349.94027      0              2251.263       46.212488      20.047001      20.857         19322.379      1485.8973      2005.6247      3262.2669      182.98649     -112.02113     -1026.2148    
  29010500   267.24251     -350.55634     -272.24554     -350.48536      0              6463.5108      46.255269      20.047001      20.857         19340.267      6600.6264      5840.4776      6949.4284     -747.97307      13.468959     -1056.8584    
  29011000   269.95211     -351.53579     -272.43098     -351.5064       0              5617.6279      45.995878      20.047001      20.857         19231.81       5863.22        6305.3879      4684.2759     -800.9049       536.28857     -788.73283    
[...]
  29988500   264.31347     -352.37535     -274.92285     -352.25337      0              4823.9255      46.295307      20.047001      20.857         19357.008      3840.8808      5802.6936      4828.2021      793.76543      1044.0767     -355.52025    
  29989000   253.77539     -352.52601     -278.16151     -352.43273      0              4739.0356      46.539452      20.047001      20.857         19459.09       6121.853       2889.1592      5206.0946     -540.92473      120.67479     -1324.0024    
  29989500   261.42469     -352.47983     -275.87383     -352.35236      0              3271.1042      46.674926      20.047001      20.857         19515.734      3527.6687      3134.91        3150.734      -589.5428      -2.1154177     -611.1113     
  29990000   264.33945     -350.55358     -273.09346     -350.41795      0              6044.2061      46.265962      20.047001      20.857         19344.738      6661.1637      7543.4522      3928.0025      1258.3901      2015.882       1333.9022    
  29990500   269.9563      -355.39543     -276.28939     -355.2681       0              4258.1201      46.401691      20.047001      20.857         19401.489      5540.5491      3023.3048      4210.5063      692.93933      490.03882      794.17231    
  29991000   262.6906      -351.83525     -274.8583      -351.69674      0              6260.9288      46.490216      20.047001      20.857         19438.503      7903.6495      5939.4956      4939.6412     -1038.7448     -28.216758     -280.40887    
  29991500   260.43582     -353.79887     -277.48265     -353.67037      0              5222.3584      46.300119      20.047001      20.857         19359.02       6300.5948      3667.8539      5698.6266     -928.59132     -2666.7195      101.85503    
  29992000   263.49048     -352.56324     -275.3519      -352.42616      0              5946.3287      46.108312      20.047001      20.857         19278.821      7304.0926      4153.2992      6381.5943     -269.75005     -2015.7426     -84.281902    
  29992500   260.80431     -354.09068     -277.66648     -353.94787      0              3908.9183      46.593125      20.047001      20.857         19481.531      4372.2763      3764.792       3589.6866     -571.60087     -1285.352      -714.08866    
  29993000   253.61678     -353.07394     -278.75592     -352.93683      0              6628.3932      46.826148      20.047001      20.857         19578.963      6402.9104      6162.1132      7320.1559     -1414.6011      330.51728     -1030.4389    
  29993500   260.13064     -351.72367     -275.49687     -351.59219      0              5327.7333      46.328576      20.047001      20.857         19370.918      4044.5949      6887.9168      5050.6883      50.747198      934.40911      364.04858    
  29994000   265.60899     -352.9741      -275.14196     -352.86807      0              4480.0492      46.089224      20.047001      20.857         19270.84       5556.3992      4507.2969      3376.4515     -5.4428148      1.8500504     -2052.8947    
  29994500   268.92934     -354.73353     -275.92842     -354.60348      0              5554.3514      46.291838      20.047001      20.857         19355.557      7538.4193      3898.754       5225.8811     -505.2674      -2260.2055     -298.98858    
  29995000   271.04607     -352.67872     -273.25334     -352.54731      0              3712.5908      46.398113      20.047001      20.857         19399.993      4987.2753      3287.2028      2863.2942      504.45586     -564.88192     -1731.2085    
  29995500   270.88334     -352.06264     -272.68495     -351.92543      0              4368.7732      46.573868      20.047001      20.857         19473.48       3527.9561      5613.1239      3965.2397      593.65713      1913.1414      1796.6786    
  29996000   264.27861     -354.96897     -277.52668     -354.82715      0              2610.3355      46.626086      20.047001      20.857         19495.313      3108.1759      634.62587      4088.2047     -731.29207      520.06784     -1617.7227    
  29996500   264.89691     -351.48762     -273.86415     -351.40877      0              4310.9688      46.475758      20.047001      20.857         19432.458      2241.6122      6320.4143      4370.8799     -1311.7856     -8.6096642      80.572701    
  29997000   268.74686     -353.24122     -274.48958     -353.10433      0              7142.0563      46.323726      20.047001      20.857         19368.89       4841.1273      9896.2951      6688.7465      257.26217      111.60981      313.90825    
  29997500   268.70909     -354.49449     -275.75392     -354.36498      0              6006.8075      46.262833      20.047001      20.857         19343.43       7807.8642      4143.0451      6069.513      -73.772045      89.108724      1365.5435    
  29998000   267.76931     -353.79738     -275.3322      -353.69723      0              3091.4098      46.387758      20.047001      20.857         19395.663      5797.5772      1763.5098      1713.1422      538.98864     -542.4399       157.15892    
  29998500   264.87986     -353.39081     -275.77234     -353.2482       0              4318.8887      46.509681      20.047001      20.857         19446.642      5686.8568      3157.2441      4112.5652     -416.9576       297.43608     -1246.7093    
  29999000   271.03113     -354.28549     -274.86449     -354.15761      0              5852.7145      46.427549      20.047001      20.857         19412.301      7718.1856      3430.619       6409.3388      677.27086     -3307.854      -954.61947    
  29999500   272.32456     -354.16393     -274.36392     -354.03568      0              6501.6134      46.308738      20.047001      20.857         19362.623      7328.9151      5093.7377      7082.1873     -531.40645     -807.48166      1097.7566    
  30000000   269.90209     -353.3485      -274.25835     -353.22234      0              4883.9692      46.43097       20.047001      20.857         19413.731      5714.5177      5043.3568      3894.033      -1191.0673     -1042.3786      474.95397    
  30000500   268.27353     -355.51338     -276.90045     -355.37062      0              3784.2143      46.365552      20.047001      20.857         19386.378      3069.4604      2051.9854      6231.1972      1201.883      -1718.683       78.99706     
  30001000   265.16945     -354.87425     -277.17091     -354.76906      0              3759.171       46.12003       20.047001      20.857         19283.721      5465.9738      4021.7653      1789.7741     -1407.9186      42.048293     -1026.7637    
  30001500   270.2415      -353.59244     -274.40283     -353.45359      0              4944.1177      46.038399      20.047001      20.857         19249.589      5515.7696      3750.3321      5566.2513     -967.06055     -2520.9825      463.84544    
  30002000   258.78478     -352.59947     -276.76705     -352.48575      0              2931.243       46.360889      20.047001      20.857         19384.429      3207.9245      2257.602       3328.2024      217.45273      1554.633       985.22424    
  30002500   264.7555      -354.14411     -276.56207     -354.01976      0              6436.7913      46.592846      20.047001      20.857         19481.415      8142.6941      6686.0908      4481.589      -1359.7042     -53.89545      -202.60028    
  30003000   261.56422     -352.48299     -275.83611     -352.36162      0              3163.7851      46.338352      20.047001      20.857         19375.006      2887.2504      4069.234       2534.8709      740.60652      273.66408     -1427.4338    
  30003500   265.62768     -352.64421     -274.8066      -352.51574      0              5174.3017      45.843458      20.047001      20.857         19168.08       5693.919       3996.2867      5832.6996     -1776.2005      420.1333      -483.74008    
  30004000   263.09702     -354.20997     -277.11393     -354.07567      0              7655.3258      45.982291      20.047001      20.857         19226.129      8261.4485      6613.0956      8091.4333      295.74487     -523.61453     -143.83786    
  30004500   257.46748     -352.6573      -277.2109      -352.52981      0              3798.0814      46.5451        20.047001      20.857         19461.451      2049.697       5526.6341      3817.913      -1779.3894     -2019.5811      1155.397     
  30005000   262.1953      -353.84856     -277.01676     -353.74868      0              3829.3         46.421102      20.047001      20.857         19409.605      3722.5528      3321.3516      4443.9955     -48.20464       268.69247     -65.583196    
  30005500   269.06797     -354.05723     -275.21151     -353.93477      0              6506.9544      45.977528      20.047001      20.857         19224.138      6596.5661      5073.9352      7850.3621      150.85879      149.49825      581.90203    
  30006000   266.6666      -353.50247     -275.36042     -353.37466      0              3508.6652      46.145068      20.047001      20.857         19294.19       3576.9495      3482.8567      3466.1893     -908.74248     -940.9615      -1030.437     
  30006500   263.54036     -354.64437     -277.41842     -354.51397      0              7452.8405      46.493141      20.047001      20.857         19439.726      5867.3336      7777.3691      8713.8188      570.9883       254.57539      41.23024     
  30007000   257.39483     -353.31337     -277.88826     -353.23371      0              1555.6865      46.507624      20.047001      20.857         19445.782      2137.5447     -989.40782      3518.9228     -1305.7273     -330.5181      -172.17753    
  30007500   261.44593     -353.72913     -277.11691     -353.6152       0              3729.0997      46.248576      20.047001      20.857         19337.468      3889.76        1278.055       6019.484       173.14091      939.87517      925.60367    
  30008000   262.04416     -354.18031     -277.39279     -354.03785      0              5790.8446      46.276762      20.047001      20.857         19349.253      6424.6522      4981.1522      5966.7292     -289.56018     -176.9978       2640.6478    
  30008500   258.87104     -351.63156     -275.77387     -351.49271      0              1965.3833      46.189928      20.047001      20.857         19312.947      1864.5029      3971.0682      60.578681      1112.7808      733.06849     -1069.2718    
  30009000   257.54433     -352.07106     -276.60214     -351.92849      0              5663.511       46.006208      20.047001      20.857         19236.129      3862.6411      5490.0141      7637.8777     -566.99635     -663.63403      540.40271    
  30009500   262.82934     -351.16158     -274.14397     -351.06532      0              3660.7245      46.076376      20.047001      20.857         19265.468      5010.6753      3414.2223      2557.2761     -118.80821     -730.17266     -1728.8126    
  30010000   261.63022     -352.94132     -276.2751      -352.80863      0              3595.0504      46.260772      20.047001      20.857         19342.568      3383.2218      3207.4012      4194.5283     -1481.0167     -69.766971      740.37508    
  30010500   271.62844     -351.33017     -271.73414     -351.23445      0              5356.1774      46.321671      20.047001      20.857         19368.031      5454.9497      5819.8933      4793.6892      46.563462     -274.49124     -500.62051    
  30011000   270.88049     -349.55409     -270.17723     -349.46689      0              3713.3059      46.125216      20.047001      20.857         19285.889      4231.9218      1437.3744      5470.6215     -4.1231806      675.72539     -510.04046    
  30011500   275.30191     -351.08447     -270.412       -350.97171      0              4564.516       46.028423      20.047001      20.857         19245.418      7297.2503      4169.8662      2226.4316     -1117.3838     -153.28747      422.60238    
  30012000   262.95504     -353.8649      -276.81046     -353.72787      0              3795.9635      46.127347      20.047001      20.857         19286.78       2919.4831      2826.5982      5641.8093      960.60081     -1146.789      -2075.7543    
  30012500   259.1459      -351.59319     -275.65496     -351.45171      0              4432.0531      46.027317      20.047001      20.857         19244.956      6313.8869      2235.0382      4747.2341      464.67737      1132.6181     -76.307282    
  30013000   269.83483     -354.17358     -275.10313     -354.03085      0              5310.2051      45.936556      20.047001      20.857         19207.007      5880.0441      4495.2352      5555.336      -2959.8521     -326.04248     -799.78569    
  30013500   266.61039     -350.98533     -272.85975     -350.8499       0              5862.4677      45.851536      20.047001      20.857         19171.458      6199.2131      7457.42        3930.7701      1315.5841     -368.57108      730.51759    
  30014000   270.51233     -353.2723      -274.00333     -353.13019      0              2922.1701      46.007337      20.047001      20.857         19236.601      1330.4831      3381.9469      4054.0802      290.49981     -482.42809     -1094.0995    
  30014500   264.05772     -355.59919     -278.22163     -355.46642      0              3709.4213      45.973334      20.047001      20.857         19222.384      5217.6873      4065.4591      1845.1175      643.18119      2299.3529     -1532.1564    
  30015000   256.71867     -351.59927     -276.37229     -351.48293      0              4161.1741      45.88885       20.047001      20.857         19187.06       6241.8654      1209.1643      5032.4927      112.30837      247.21817     -589.70402    
  30015500   267.39365     -353.70905     -275.35396     -353.58514      0              4649.8748      45.766138      20.047001      20.857         19135.751      7107.4515      3831.9375      3010.2354     -732.5967      -827.51599      259.90677    
  30016000   266.92941     -352.63071     -274.41165     -352.52583      0              3642.2859      46.166354      20.047001      20.857         19303.09       3039.0305      4874.8262      3013.0011      44.409754      131.8098       158.69316    
  30016500   271.28603     -350.64566     -271.14997     -350.53631      0              4181.3728      46.314394      20.047001      20.857         19364.988      3830.6831      4278.0911      4435.3443      905.63176      1032.5869     -831.23014    
  30017000   268.63133     -351.67014     -272.95237     -351.53999      0              6004.8981      45.833965      20.047001      20.857         19164.111      7392.2335      5100.6428      5521.8179      72.927079     -1062.3507      1271.4706    
  30017500   265.71171     -351.26639     -273.40416     -351.12645      0              2420.2909      46.003688      20.047001      20.857         19235.076      579.47775      4198.504       2482.891      -202.8864      -477.6989       396.37367    
  30018000   269.94751     -352.57103     -273.46756     -352.46073      0              4261.641       46.309853      20.047001      20.857         19363.09       2658.1784      4512.6897      5614.055       260.06292      1523.6931      284.91431    
  30018500   265.32456     -349.3543      -271.60552     -349.28939      0              4457.1456      46.19045       20.047001      20.857         19313.165      4899.9718      4460.1617      4011.3033     -100.30398     -225.69         631.94474    
  30019000   269.24856     -349.88948     -270.99083     -349.80188      0              6138.7392      45.850909      20.047001      20.857         19171.196      8241.1721      5745.0101      4430.0353      332.14608      935.57045     -502.15629    
  30019500   266.70686     -353.15364     -274.99979     -353.03281      0              5838.2609      46.05568       20.047001      20.857         19256.815      4344.5414      6881.6992      6288.5422      1102.1131     -258.16617     -860.15605    
  30020000   250.64286     -354.96322     -281.51665     -354.85192      0              4495.984       46.314454      20.047001      20.857         19365.013      4235.8711      2996.7242      6255.3569     -1020.6642     -1301.628       1283.9503    
  30020500   260.95661     -353.45884     -276.99        -353.33296      0              5667.7618      46.335477      20.047001      20.857         19373.804      8486.4491      3412.458       5104.3784     -184.54979     -267.29526     -18.836521    
  30021000   261.84572     -350.82161     -274.09224     -350.68521      0              5230.5433      46.117854      20.047001      20.857         19282.811      6374.5599      4203.952       5113.118       910.80592     -555.13389     -194.48757    
  30021500   262.52998     -352.59135     -275.66147     -352.46096      0              5853.3501      46.126488      20.047001      20.857         19286.421      5650.98        5597.3259      6311.7445     -69.597887      76.33915      -137.04798    
  30022000   266.04433     -351.93863     -273.97893     -351.80645      0              5051.742       46.259413      20.047001      20.857         19342          4835.4574      5487.9021      4831.8665     -343.05259     -120.46262      921.89056    
  30022500   268.39217     -353.38686     -274.73917     -353.25779      0              6818.3006      46.147694      20.047001      20.857         19295.288      7888.0182      6595.5213      5971.3622     -174.82486      130.22131     -144.39199    
  30023000   264.32242     -353.41562     -275.9605      -353.27364      0              2865.48        46.163268      20.047001      20.857         19301.8        3928.1258      2624.6303      2043.6839      1305.4058      1410.6945      1838.3261    
  30023500   261.86398     -351.29711     -274.56238     -351.20289      0              6228.4469      46.041443      20.047001      20.857         19250.862      6413.1193      6708.1498      5564.0717     -1326.2168      1464.8898      507.69548    
  30024000   263.83854     -353.24704     -275.93371     -353.11979      0              5907.4318      45.813647      20.047001      20.857         19155.616      4839.0274      6272.3946      6610.8736      1377.7065     -1293.7741      1775.2339    
  30024500   271.80884     -352.3904      -272.74151     -352.26462      0              4165.8582      45.88696       20.047001      20.857         19186.269      6008.4782      1961.6584      4527.4381      676.54876      1353.5875      1184.1986    
  30025000   262.64907     -352.79486     -275.83008     -352.69512      0              3295.6523      46.159187      20.047001      20.857         19300.093      3886.9157      2668.7528      3331.2885     -38.844763      410.65669      234.73432    
  30025500   263.65444     -350.35002     -273.09063     -350.22337      0              1849.7815      46.178593      20.047001      20.857         19308.207      893.17423      1392.7915      3263.3788      1490.9648      949.38296     -179.76038    
  30026000   273.46926     -353.41702     -273.28157     -353.27429      0              5578.2958      46.119044      20.047001      20.857         19283.308      8339.367       3051.8489      5343.6714      431.51818     -77.756319     -882.19481    
  30026500   266.41365     -354.76998     -276.70206     -354.62758      0              4532.4709      46.126418      20.047001      20.857         19286.392      4794.7633      5119.8249      3682.8245      163.96804      862.85769      754.06563    
  30027000   265.41475     -352.03925     -274.26404     -351.92139      0              4741.7419      46.018559      20.047001      20.857         19241.294      5583.5206      4529.5449      4112.1603     -155.05904     -719.86431      407.08639    
ERROR on proc 0: Cannot open restart file restart2.lmp.0: Permission denied (../write_restart.cpp:233)
Last command: run             40000000 upto
