LAMMPS (23 Jun 2022)
echo both

include		in.partitions
variable        pid world 0
include		in.temp
variable	temperature equal 265.0
variable        tempDamp equal 0.100 # this is 0.1 ps
include		in.pressure
variable        pressure equal 5066.25
variable        pressureDamp equal 1.0 #this is 1ps
include		in.seed
variable        seed world 745823

units           metal
atom_style	full
read_restart	restart.lmp.${pid}
read_restart	restart.lmp.0
Reading restart file ...
  restart file = 23 Jun 2022, LAMMPS = 23 Jun 2022
  restoring atom style full from restart
  orthogonal box = (0.67700313 0 0) to (46.773696 20.047001 20.857)
  4 by 1 by 1 MPI processor grid
Summary of lammps deepmd module ...
  >>> Info of deepmd-kit:
  installed to:       /u/sigbjobo/software/DEEPMD_FROM_SOURCE/deepmd-kit/install
  source:             v2.1.3
  source branch:       master
  source commit:      5a32c49
  source commit at:   2022-07-01 09:52:58 +0800
  surpport model ver.:1.1 
  build float prec:   double
  build with tf inc:  /u/sigbjobo/software/DEEPMD_FROM_SOURCE/tensorflow/install/include;/u/sigbjobo/software/DEEPMD_FROM_SOURCE/tensorflow/install/include
  build with tf lib:  /u/sigbjobo/software/DEEPMD_FROM_SOURCE/tensorflow/install/lib/libtensorflow_cc.so;/u/sigbjobo/software/DEEPMD_FROM_SOURCE/tensorflow/install/lib/libtensorflow_framework.so
  set tf intra_op_parallelism_threads: 0
  set tf inter_op_parallelism_threads: 0
  >>> Info of lammps module:
  use deepmd-kit at:  /u/sigbjobo/software/DEEPMD_FROM_SOURCE/deepmd-kit/install
  source:             v2.1.3
  source branch:      master
  source commit:      5a32c49
  source commit at:   2022-07-01 09:52:58 +0800
  build float prec:   double
  build with tf inc:  /u/sigbjobo/software/DEEPMD_FROM_SOURCE/tensorflow/install/include;/u/sigbjobo/software/DEEPMD_FROM_SOURCE/tensorflow/install/include
  build with tf lib:  /u/sigbjobo/software/DEEPMD_FROM_SOURCE/tensorflow/install/lib/libtensorflow_cc.so;/u/sigbjobo/software/DEEPMD_FROM_SOURCE/tensorflow/install/lib/libtensorflow_framework.so
  restoring pair style deepmd from restart
  2268 atoms
Finding 1-2 1-3 1-4 neighbors ...
  special bond factors lj:    0        0        0       
  special bond factors coul:  0        0        0       
     0 = max # of 1-2 neighbors
     0 = max # of 1-3 neighbors
     0 = max # of 1-4 neighbors
     1 = max # of special neighbors
  special bonds CPU = 0.000 seconds
  read_restart CPU = 0.009 seconds
include 	in.setup
variable	out_freq equal 500
variable	out_freq2 equal 1000
variable	out_freq3 equal 5000

timestep        0.0005

neigh_modify    delay 7 every 1

include         in.deepmd
# This is deepMD model

# create groups ###
#group ox type 2
#group hy type 1

mass 2 15.999
mass 1 1.008

pair_style      deepmd ../graph.pb
pair_coeff      * *

bond_style      none
angle_style     none
dihedral_style  none
improper_style  none
neigh_modify exclude none


neighbor        2.0 bin
neigh_modify    every 10 delay 0 check no

thermo          ${out_freq}
thermo          500
thermo_style 	custom step temp pe etotal epair emol press lx ly lz vol pxx pyy pzz pxy pxz pyz
#thermo_modify	flush yes
restart 	${out_freq} restart.lmp.${pid} restart2.lmp.${pid}
restart 	500 restart.lmp.${pid} restart2.lmp.${pid}
restart 	500 restart.lmp.0 restart2.lmp.${pid}
restart 	500 restart.lmp.0 restart2.lmp.0

include		in.dump
dump            myDump all atom ${out_freq3} dump.water.${pid}
dump            myDump all atom 5000 dump.water.${pid}
dump            myDump all atom 5000 dump.water.0
dump            myDump2 all dcd ${out_freq2} dump.dcd.${pid}
dump            myDump2 all dcd 1000 dump.dcd.${pid}
dump            myDump2 all dcd 1000 dump.dcd.0
dump_modify     myDump append yes
dump_modify     myDump2 append yes


timer           timeout 23:50:00 every 1000
New timer settings: style=normal  mode=nosync  timeout=23:50:00

fix             1 all plumed plumedfile plumed.dat outfile plumed.out
fix             3 all nph x ${pressure} ${pressure} ${pressureDamp}
fix             3 all nph x 5066.25 ${pressure} ${pressureDamp}
fix             3 all nph x 5066.25 5066.25 ${pressureDamp}
fix             3 all nph x 5066.25 5066.25 1
fix             4 all temp/csvr ${temperature} ${temperature} ${tempDamp} ${seed}
fix             4 all temp/csvr 265 ${temperature} ${tempDamp} ${seed}
fix             4 all temp/csvr 265 265 ${tempDamp} ${seed}
fix             4 all temp/csvr 265 265 0.1 ${seed}
fix             4 all temp/csvr 265 265 0.1 745823

run             40000000 upto

CITE-CITE-CITE-CITE-CITE-CITE-CITE-CITE-CITE-CITE-CITE-CITE-CITE

Your simulation uses code contributions which should be cited:

- USER-DEEPMD package:

@article{Wang_ComputPhysCommun_2018_v228_p178,
  author = {Wang, Han and Zhang, Linfeng and Han, Jiequn and E, Weinan},
  doi = {10.1016/j.cpc.2018.03.016},
  url = {https://doi.org/10.1016/j.cpc.2018.03.016},
  year = 2018,
  month = {jul},
  publisher = {Elsevier {BV}},
  volume = 228,
  journal = {Comput. Phys. Commun.},
  title = {{DeePMD-kit: A deep learning package for many-body potential energy representation and molecular dynamics}},
  pages = {178--184}
}

CITE-CITE-CITE-CITE-CITE-CITE-CITE-CITE-CITE-CITE-CITE-CITE-CITE

Generated 0 of 1 mixed pair_coeff terms from geometric mixing rule
Neighbor list info ...
  update every 10 steps, delay 0 steps, check no
  max neighbors/atom: 2000, page size: 100000
  master list distance cutoff = 8
  ghost atom cutoff = 8
  binsize = 4, bins = 12 6 6
  1 neighbor lists, perpetual/occasional/extra = 1 0 0
  (1) pair deepmd, perpetual
      attributes: full, newton on
      pair build: full/bin
      stencil: full/bin/3d
      bin: standard
Per MPI rank memory allocation (min/avg/max) = 6.186 | 6.191 | 6.193 Mbytes
   Step          Temp          PotEng         TotEng         E_pair         E_mol          Press            Lx             Ly             Lz           Volume          Pxx            Pyy            Pzz            Pxy            Pxz            Pyz      
   7617000   264.39725     -350.43889     -272.96184     -350.43889      0              6705.1996      46.096693      20.047001      20.857         19273.963      10503.849      5741.0325      3870.717       175.39232      2336.3982      234.75454    
   7617500   260.58325     -348.19431     -271.83488     -348.15092      0              3216.4409      46.388968      20.047001      20.857         19396.169      4558.0468      905.03788      4186.2381     -773.65996      867.08147     -446.92828    
   7618000   262.79323     -348.40687     -271.39985     -348.34904      0              4703.1477      46.611689      20.047001      20.857         19489.294      6373.0828      4915.1941      2821.1662      1372.6674     -986.37907      1008.224     
   7618500   266.37609     -350.4463      -272.38938     -350.4005       0              3499.7267      46.606055      20.047001      20.857         19486.938      4277.9387      2057.8776      4163.3638      1235.575      -1839.5148     -1305.3052    
   7619000   268.89315     -348.88361     -270.08911     -348.82787      0              4356.0829      46.524867      20.047001      20.857         19452.991      4343.1205      5351.9407      3373.1876      193.42148      1804.2052      273.58702    
   7619500   264.26282     -347.11092     -269.67326     -347.08744      0              5737.5002      46.661499      20.047001      20.857         19510.12       6189.1794      5911.1004      5112.2207      709.4444      -446.1093       599.82687    
   7620000   268.82696     -348.55035     -269.77525     -348.47765      0              5575.2239      46.747312      20.047001      20.857         19546          5816.52        6216.9354      4692.2161      1425.1651      1465.7854      731.9552     
   7620500   261.29043     -348.81336     -272.2467      -348.76385      0              1804.2948      46.651585      20.047001      20.857         19505.975      2132.843       1118.7243      2161.3171     -1476.8738     -1017.3898     -547.3366     
   7621000   261.46155     -349.18569     -272.5689      -349.13652      0              4959.1467      46.322568      20.047001      20.857         19368.406      7209.7043      4146.3506      3521.3851     -309.76856      537.12983     -723.91124    
   7621500   263.90288     -350.01926     -272.68707     -349.96045      0              6045.0171      46.356336      20.047001      20.857         19382.525      6541.0948      5771.2261      5822.7304     -1222.0505      426.71918      287.98688    
   7622000   261.41722     -347.37589     -270.77208     -347.32766      0              3738.4628      46.805524      20.047001      20.857         19570.34       4628.2842      1821.8671      4765.2372      983.41722      640.59406     -342.37453    
   7622500   266.61151     -351.10454     -272.97863     -351.00367      0              4324.0607      46.563179      20.047001      20.857         19469.01       3186.1392      2566.8697      7219.1733     -479.75216     -1.7558579     -813.83999    
   7623000   271.46661     -351.09399     -271.54538     -351.02118      0              4937.5633      46.116301      20.047001      20.857         19282.161      4988.2998      5756.5526      4067.8376     -259.95491     -1317.7871     -753.08555    
   7623500   264.40242     -351.83463     -274.35606     -351.71223      0              5175.4778      46.279479      20.047001      20.857         19350.39       5563.2057      4892.4403      5070.7875     -774.93485     -427.94409     -59.98137     
   7624000   264.75784     -348.52942     -270.94671     -348.45621      0              4051.3798      46.581089      20.047001      20.857         19476.499      6695.7957      2676.1394      2782.2042     -443.73929      306.05125      1448.8029    
   7624500   264.56377     -347.75586     -270.23001     -347.71555      0              4439.7917      46.737961      20.047001      20.857         19542.09       6421.2227      4208.4958      2689.6564     -601.06857      2597.5595      852.96714    
   7625000   260.77197     -349.47819     -273.06347     -349.42375      0              4744.1344      46.464355      20.047001      20.857         19427.69       5537.4458      5930.6873      2764.2699      925.76673      447.82656     -2568.4787    
   7625500   262.1133      -350.54536     -273.73758     -350.48925      0              3299.5605      46.52054       20.047001      20.857         19451.182      3348.888       4702.5748      1847.2187      367.77788      398.2423       1000.4969    
   7626000   267.91791     -348.46108     -269.95235     -348.42069      0              5871.0123      46.752545      20.047001      20.857         19548.188      5851.8742      6079.1109      5682.0517     -2421.4556     -553.87073      404.34876    
   7626500   270.75058     -349.86023     -270.52144     -349.78714      0              3791.9751      46.61786       20.047001      20.857         19491.874      3107.8917      4047.3932      4220.6404     -60.07385      -95.263575     -122.16775    
   7627000   276.45308     -351.03573     -270.02593     -350.95142      0              4587.217       46.300317      20.047001      20.857         19359.102      4513.288       5436.2027      3812.1602     -668.06547      846.07591     -645.04871    
   7627500   273.23524     -347.49579     -267.42891     -347.44149      0              6457.3681      46.346045      20.047001      20.857         19378.222      6662.2826      6432.6284      6277.1933      58.003947      1638.8841     -580.14627    
   7628000   259.69008     -347.07355     -270.97585     -347.01206      0              2717.7525      46.570373      20.047001      20.857         19472.018      2089.1465      5071.035       993.07596     -633.40962      468.29733      193.74802    
   7628500   260.61704     -349.2209      -272.85157     -349.13096      0              3452.1642      46.532535      20.047001      20.857         19456.197      3848.4677      3866.3653      2641.6595     -577.11659     -242.62574     -1739.6392    
   7629000   261.26135     -347.2497      -270.69156     -347.15382      0              4697.6694      46.154526      20.047001      20.857         19298.144      5362.4515      4348.1318      4382.4248     -1944.1553      342.78892      130.34406    
   7629500   268.15257     -349.10197     -270.52449     -348.99982      0              6330.5822      46.151658      20.047001      20.857         19296.945      8071.5699      5950.9391      4969.2377     -1057.8565     -1292.5923      765.22373    
   7630000   262.73378     -347.34234     -270.35274     -347.26922      0              3184.1199      46.669879      20.047001      20.857         19513.624      1699.1208      3605.9573      4247.2815     -1876.3341     -1031.0216      931.87035    
   7630500   260.04329     -349.99663     -273.79543     -349.92419      0              2992.9564      46.820269      20.047001      20.857         19576.505      1852.4168      5807.8364      1318.6159     -1067.8755     -50.518727      752.45162    
   7631000   254.86239     -349.26825     -274.58522     -349.21164      0              6134.2551      46.264449      20.047001      20.857         19344.105      6510.9994      8550.8338      3340.9319     -832.05566      1272.689       191.73964    
   7631500   261.75002     -353.95024     -277.24891     -353.90779      0              3537.3216      46.059124      20.047001      20.857         19258.255      4703.2372      4001.6957      1907.032       212.07488     -1492.3431      1459.0309    
   7632000   269.06258     -353.23517     -274.39102     -353.14734      0              4214.9491      46.350743      20.047001      20.857         19380.187      7635.155       2312.2646      2697.4275      458.88955      1496.4889      35.412098    
   7632500   264.09492     -352.16638     -274.77792     -352.05633      0              3285.6807      46.41483       20.047001      20.857         19406.983      5091.5851      3705.2424      1060.2146      955.81863      370.56831     -805.41913    
   7633000   270.76479     -353.48605     -274.1431      -353.39608      0              1793.8532      46.19492       20.047001      20.857         19315.034      516.87621      1872.1721      2992.5114      235.27572     -1486.7436     -684.37862    
   7633500   271.93374     -353.19244     -273.50695     -353.09529      0              6601.6826      46.075518      20.047001      20.857         19265.109      5565.4212      7759.6702      6479.9564     -449.08138     -1093.3026     -64.040421    
   7634000   264.92892     -352.03423     -274.40138     -351.94597      0              4873.6299      46.380752      20.047001      20.857         19392.734      5811.0217      4806.2537      4003.6144      1290.8349      153.16005      409.34314    
   7634500   263.21903     -351.53995     -274.40816     -351.47432      0              4521.0543      46.355963      20.047001      20.857         19382.369      3218.2898      4600.2658      5744.6074      2476.4644     -1140.1881      1856.786     
   7635000   259.56046     -352.73421     -276.67449     -352.68084      0              5291.2824      46.253163      20.047001      20.857         19339.386      5210.1223      6550.7789      4112.9459     -640.8686       121.19521     -1794.9206    
   7635500   259.12108     -351.5411      -275.61013     -351.44523      0              4868.066       46.257364      20.047001      20.857         19341.143      4407.7352      5452.9555      4743.5074     -640.62639      1692.1858     -346.6315     
   7636000   263.71939     -351.8006      -274.52218     -351.70207      0              5775.2496      46.241741      20.047001      20.857         19334.611      3219.3263      6226.6608      7879.7618      46.230731     -205.689        579.29624    
   7636500   271.46935     -354.29756     -274.74815     -354.18627      0              4892.957       46.190689      20.047001      20.857         19313.265      4732.5486      4568.095       5378.2275      1496.8089     -337.00492      1405.7232    
   7637000   261.33671     -353.37314     -276.79293     -353.26154      0              3608.4972      46.250389      20.047001      20.857         19338.226      4646.807       2770.9216      3407.7631     -1015.166      -1488.4281      12.29415     
   7637500   268.68498     -353.14933     -274.41583     -353.05375      0              4931.1023      46.056697      20.047001      20.857         19257.24       5011.2907      5245.4946      4536.5215     -2021.6888      1296.2652      2440.3712    
   7638000   253.78678     -351.46594     -277.0981      -351.34544      0              6400.6777      45.925479      20.047001      20.857         19202.375      7276.0194      3420.5317      8505.482      -1070.0111     -376.41909     -1965.8299    
   7638500   260.5076      -354.73629     -278.39903     -354.66133      0              4119.2682      46.239715      20.047001      20.857         19333.764      4143.8963      4412.1482      3801.7601     -783.66474      618.55839      736.21193    
   7639000   264.8054      -353.2775      -275.68085     -353.22         0              2830.5927      46.485188      20.047001      20.857         19436.401      1139.0647      1752.4724      5600.241      -142.8713       179.73384     -216.75987    
   7639500   264.62673     -351.08257     -273.53828     -350.98932      0              4218.691       46.084903      20.047001      20.857         19269.033      4646.626       4380.5971      3628.8499     -511.54844      701.6661       10.527604    
   7640000   263.82441     -354.3405      -277.03131     -354.25217      0              6129.6932      45.628151      20.047001      20.857         19078.056      7392.5423      3902.7658      7093.7714     -697.00935      1375.5854     -63.642507    
   7640500   259.6071      -349.91322     -273.83984     -349.84995      0              2857.0614      46.000566      20.047001      20.857         19233.77       2826.2058      3583.4373      2161.5411     -128.23393      17.84373      -585.56105    
   7641000   265.11486     -349.69054     -272.00321     -349.55981      0              5625.9223      46.288163      20.047001      20.857         19354.021      3890.311       5774.6384      7212.8177      602.88407     -1371.8428     -729.75559    
   7641500   268.56881     -352.24221     -273.54275     -352.12308      0              4488.5629      46.101757      20.047001      20.857         19276.08       5689.0693      4416.0474      3360.5718      833.6309      -1181.4548     -613.65703    
   7642000   267.78221     -347.89754     -269.42858     -347.77946      0              5533.5013      46.076167      20.047001      20.857         19265.381      6713.2275      5221.2894      4665.9869      564.49238      293.62585      1561.1379    
   7642500   264.21605     -350.07842     -272.65446     -349.98333      0              5340.1201      46.285031      20.047001      20.857         19352.711      4602.1991      5326.6117      6091.5494     -1758.83       -197.84112      448.84533    
   7643000   276.55044     -351.77771     -270.73938     -351.67452      0              4107.849       46.486453      20.047001      20.857         19436.93       925.65061      5579.6129      5818.2834     -2051.667       142.32065      551.58254    
   7643500   263.6552      -351.98157     -274.72196     -351.89055      0              4903.5233      46.175756      20.047001      20.857         19307.021      5775.9499      4837.23        4097.39       -977.24285      695.41434     -946.28821    
   7644000   270.70096     -352.64945     -273.3252      -352.55627      0              4434.0368      45.871194      20.047001      20.857         19179.677      8488.5469      2296.9747      2516.5887      461.10907      994.2462       475.11328    
   7644500   262.43838     -350.69855     -273.79551     -350.62613      0              3297.8753      46.213988      20.047001      20.857         19323.006      2652.2254      4612.7111      2628.6893     -414.14131     -140.6605       286.6339     
   7645000   266.25474     -352.86812     -274.84676     -352.76816      0              3235.7484      46.314936      20.047001      20.857         19365.215      3349.6756      3855.3728      2502.1968     -367.12469     -1047.7909      2417.2314    
   7645500   263.20601     -351.08229     -273.95431     -351.00975      0              6580.8059      46.094216      20.047001      20.857         19272.927      8346.5872      5285.5856      6110.245      -473.67435      1445.2959     -1465.7051    
   7646000   259.65049     -351.00313     -274.91703     -350.97373      0              4433.2677      46.027585      20.047001      20.857         19245.068      3647.0622      2882.9428      6769.798       93.163572     -307.06591     -1228.4736    
   7646500   263.8638      -350.42524     -273.1045      -350.3139       0              6377.0793      45.972682      20.047001      20.857         19222.112      5961.3421      5707.1982      7462.6976     -1524.1949     -453.15401      2080.0689    
   7647000   277.15758     -350.18808     -268.97183     -350.12846      0              4319.1127      46.330786      20.047001      20.857         19371.842      5628.9537      3161.3335      4167.0507      490.17853      847.97783      1425.664     
   7647500   263.86727     -349.60339     -272.28164     -349.54476      0              5556.1137      46.315538      20.047001      20.857         19365.467      7798.7551      1721.108       7148.478       859.92734     -1766.5542      2358.7266    
   7648000   273.78937     -351.0648      -270.83555     -350.96854      0              3882.9383      46.040796      20.047001      20.857         19250.591      5557.0759      3020.1028      3071.6361     -958.82111     -238.0626      -767.9082     
   7648500   267.77327     -352.4015      -273.93516     -352.3458       0              4923.957       46.232881      20.047001      20.857         19330.906      5630.0707      5149.8877      3991.9126     -976.40589      986.06366     -1639.3021    
   7649000   269.09156     -354.35619     -275.50355     -354.28461      0              3774.4558      46.577968      20.047001      20.857         19475.194      4050.8373      3742.426       3530.1039     -923.46492     -161.66253      897.04912    
   7649500   267.40145     -352.04737     -273.68999     -351.99292      0              3582.1328      46.476689      20.047001      20.857         19432.847      4481.1707      3914.9128      2350.3148     -1048.4733     -347.77448      1272.0507    
   7650000   265.40599     -350.46705     -272.69441     -350.40988      0              5486.5131      46.210838      20.047001      20.857         19321.689      6273.1645      4345.9506      5840.4242     -1116.6465      502.40923     -1696.5566    
   7650500   258.13977     -352.68117     -277.03777     -352.60806      0              6018.1494      46.147604      20.047001      20.857         19295.25       4780.6187      9463.3227      3810.5068     -821.09982     -740.24281      889.70127    
   7651000   262.39763     -355.17887     -278.28777     -355.10619      0              3036.7664      46.19287       20.047001      20.857         19314.177      3958.3023      1922.3857      3229.6113     -157.59472     -1067.1066      1145.3848    
   7651500   259.54965     -355.28493     -279.22839     -355.18215      0              3848.6973      46.120841      20.047001      20.857         19284.06       5038.894       2700.464       3806.7337      1053.4305     -1002.9298     -230.28741    
   7652000   266.19041     -356.52116     -278.51865     -356.41895      0              6428.7621      46.035958      20.047001      20.857         19248.569      6142.7389      6828.1833      6315.3641     -1543.2375     -163.64156     -326.41263    
   7652500   265.11018     -354.13224     -276.44627     -354.07566      0              3596.0083      46.285503      20.047001      20.857         19352.908      4714.9543      4189.3798      1883.6907     -1922.5582     -1109.4712      721.38181    
   7653000   268.01078     -355.2652      -276.72927     -355.1994       0              4883.6962      46.536251      20.047001      20.857         19457.751      5169.5446      5704.7562      3776.7878      1040.9748      165.34865     -1607.2714    
   7653500   263.91079     -354.46397     -277.12946     -354.41677      0              3465.8314      46.443759      20.047001      20.857         19419.078      5267.8917      1471.6083      3657.9943     -2151.8852      1089.5301      846.3192     
   7654000   265.02277     -354.40327     -276.74292     -354.33287      0              3508.185       45.983847      20.047001      20.857         19226.78       5331.3432      2335.1379      2858.074       312.37806     -314.72978     -833.11039    
   7654500   263.58063     -353.71902     -276.48126     -353.59064      0              5083.6418      45.946131      20.047001      20.857         19211.01       4887.955       7151.0659      3211.9045      823.1199      -761.75825      649.72358    
   7655000   269.28181     -352.39355     -273.48516     -352.30103      0              1695.7835      46.383168      20.047001      20.857         19393.744      43.737815      2766.1206      2277.4922      1776.0405      1031.8166      73.02139     
   7655500   261.66069     -350.76467     -274.08952     -350.68325      0              2632.1616      46.519643      20.047001      20.857         19450.807      2750.4895      3150.1093      1995.8861     -11.808763      690.22272      21.679561    
   7656000   265.00651     -353.43975     -275.78417     -353.32404      0              5008.6408      45.909569      20.047001      20.857         19195.723      6926.9132      4465.0842      3633.925       708.69379      149.10008     -644.06461    
   7656500   269.62817     -351.53964     -272.52976     -351.46628      0              4640.0284      45.73595       20.047001      20.857         19123.129      7259.3533      1160.8943      5499.8375     -747.16755     -453.93892     -1161.2817    
   7657000   264.68169     -353.69309     -276.13268     -353.60362      0              1751.7231      46.321752      20.047001      20.857         19368.065      2393.0737      1608.3961      1253.6996      151.83942     -1925.1559      619.02854    
   7657500   261.15421     -354.20488     -277.67814     -354.08967      0              4571.2011      46.52966       20.047001      20.857         19454.995      3929.0103      5464.6065      4319.9866      402.35108     -949.66087      213.51984    
   7658000   260.04217     -353.29658     -277.09571     -353.22045      0              5469.3622      46.475589      20.047001      20.857         19432.387      5060.4906      4977.5711      6370.0249     -517.20475     -196.14743     -1011.2554    
   7658500   272.14993     -354.50516     -274.75632     -354.42682      0              4845.6099      46.271566      20.047001      20.857         19347.081      5481.5756      2934.0682      6121.186       827.58015      454.57984      999.71738    
   7659000   260.5061      -350.45438     -274.11756     -350.41921      0              4465.5443      46.367336      20.047001      20.857         19387.125      4474.1122      4959.2755      3963.2452     -447.12731      1271.8069     -721.29234    
   7659500   265.27197     -352.58017     -274.8468      -352.50867      0              4275.9582      46.498436      20.047001      20.857         19441.94       4632.4397      4298.361       3897.0739     -247.99128      1301.6622      945.17549    
   7660000   265.26816     -351.81055     -274.07829     -351.73761      0              4269.4696      46.427358      20.047001      20.857         19412.221      5693.1197      2672.5588      4442.7304     -32.404607     -520.10578      719.24087    
   7660500   268.83426     -352.66296     -273.88572     -352.56856      0              3253.3559      46.407154      20.047001      20.857         19403.773      1954.192       4384.0836      3421.792      -899.34947     -1853.3522      373.09691    
   7661000   266.75109     -354.5364      -276.3696      -354.42239      0              5222.4154      46.137045      20.047001      20.857         19290.835      4627.4256      6484.2315      4555.5892      170.9824       1399.509      -90.493831    
   7661500   263.65577     -352.45854     -275.19876     -352.34639      0              2339.6627      46.098181      20.047001      20.857         19274.585      925.28655      3610.1768      2483.5246      816.83866     -1005.4431      386.47941    
   7662000   264.85025     -354.9045      -277.2947      -354.82025      0              4421.3459      46.330164      20.047001      20.857         19371.582      7580.1142      2358.1724      3325.7511     -217.30094      964.45301     -319.90271    
   7662500   265.29054     -355.2437      -277.50488     -355.18071      0              3357.5112      46.553196      20.047001      20.857         19464.836      5150.2221      4139.0911      783.22042      1115.0412     -1030.6436     -31.912552    
   7663000   265.4905      -352.48218     -274.68477     -352.38948      0              5349.1013      46.357318      20.047001      20.857         19382.936      8747.1861      2995.2468      4304.8709      138.8442      -515.82778     -672.3303     
   7663500   267.22444     -350.87607     -272.57056     -350.81884      0              3959.8163      46.243648      20.047001      20.857         19335.408      5104.7511      1519.2383      5255.4596      11.790878      206.89183      3436.5185    
   7664000   264.19173     -350.42392     -273.0071      -350.36478      0              5291.2863      46.31474       20.047001      20.857         19365.133      3711.5383      5668.2314      6494.0892      636.36179     -1088.9944     -164.55651    
   7664500   272.5842      -351.59682     -271.72072     -351.54354      0              3768.7567      46.545783      20.047001      20.857         19461.737      4412.5945      3806.3308      3087.3448     -584.72543     -2424.8393      175.55676    
   7665000   266.61852     -353.63889     -275.51093     -353.58305      0              4457.0844      46.803544      20.047001      20.857         19569.512      3644.6157      4853.5341      4873.1034      909.97605      701.53085      105.46435    
   7665500   266.81577     -350.92464     -272.73888     -350.85179      0              2654.6694      46.58038       20.047001      20.857         19476.202      4053.9647      1736.6664      2173.377      -394.35771     -690.2605       27.119328    
   7666000   268.28362     -348.89907     -270.28318     -348.82274      0              5624.286       46.369388      20.047001      20.857         19387.982      5937.3956      5471.7099      5463.7524      650.66762      1128.1801     -2219.227     
   7666500   273.37849     -347.37865     -267.2698      -347.33738      0              6915.6148      46.733853      20.047001      20.857         19540.373      7605.7155      4411.2904      8729.8384     -80.981261     -108.45905      1674.0514    
   7667000   264.29408     -348.94856     -271.50174     -348.87612      0              4000.5337      46.970366      20.047001      20.857         19639.263      5921.556       4388.1858      1691.8593     -293.56224      1445.4911      887.87218    
   7667500   265.39256     -351.06566     -273.29695     -350.97203      0              6653.6045      46.270325      20.047001      20.857         19346.562      5946.5441      7779.1508      6235.1187     -535.71418      903.81527      896.64291    
   7668000   272.80035     -350.92036     -270.98092     -350.8122       0              6718.5267      46.104824      20.047001      20.857         19277.363      7252.3774      5567.4083      7335.7943     -1097.6674      22.331264      1486.1147    
   7668500   269.4904      -351.57236     -272.60285     -351.51929      0              5365.4234      46.407587      20.047001      20.857         19403.954      5515.5952      5530.6115      5050.0637     -90.76578       459.92226      452.52981    
   7669000   262.37074     -350.5945      -273.71128     -350.5398       0              2917.2619      46.392198      20.047001      20.857         19397.52       4161.3294      1905.535       2684.9213     -803.91908      306.44083      1176.3197    
   7669500   269.80697     -350.36022     -271.29794     -350.3135       0              5243.3824      46.250078      20.047001      20.857         19338.097      4933.0007      7231.1588      3565.9879     -148.57504      1031.1016      1160.0161    
   7670000   265.54686     -352.21763     -274.40371     -352.17059      0              6388.8101      46.111986      20.047001      20.857         19280.358      5599.5606      6536.3719      7030.4978     -952.73477      274.51765      1808.079     
   7670500   262.13886     -350.01876     -273.20349     -349.95645      0              6109.2716      46.339323      20.047001      20.857         19375.411      7493.0724      5540.5417      5294.2006      326.1421      -943.04188      2411.8225    
   7671000   271.74673     -350.6912      -271.06051     -350.61894      0              4181.3901      46.540106      20.047001      20.857         19459.363      5990.5376      3955.2133      2598.4195      438.30556     -111.27348      139.2597     
   7671500   264.54342     -353.66399     -276.14411     -353.55614      0              4882.2935      46.324293      20.047001      20.857         19369.127      3444.8001      5941.3236      5260.757      -844.99353      247.45011     -59.130261    
   7672000   269.95865     -352.15441     -273.04769     -352.04842      0              3897.4063      46.100824      20.047001      20.857         19275.69       4043.4669      4918.3086      2730.4434      152.32764      2079.1486      432.01439    
   7672500   265.72873     -352.91678     -275.04956     -352.79719      0              4458.494       46.263659      20.047001      20.857         19343.775      5261.3251      3979.8441      4134.3128     -578.29118      3212.4221      50.129241    
   7673000   269.02164     -348.71113     -269.87898     -348.6411       0              5094.1319      46.500503      20.047001      20.857         19442.804      6959.6855      3890.2525      4432.4579      1307.1627      944.69817      649.51946    
   7673500   264.60249     -350.78105     -273.24385     -350.72388      0              5551.5471      46.590992      20.047001      20.857         19480.639      5747.9367      5528.3371      5378.3674     -217.58298     -1087.1185     -1116.2322    
   7674000   262.45388     -353.12603     -276.21845     -353.05383      0              4915.9089      46.524669      20.047001      20.857         19452.908      5073.8555      5218.3237      4455.5474      742.20436      464.53707      295.60468    
   7674500   270.57236     -352.76537     -273.4788      -352.70361      0              4674.2479      46.407313      20.047001      20.857         19403.84       4676.0495      5589.4968      3757.1975      33.442236     -1187.5405     -868.08464    
   7675000   262.7241      -351.72111     -274.73435     -351.64838      0              6055.0253      46.403606      20.047001      20.857         19402.29       8061.0215      5800.6678      4303.3865      453.90971      1156.982      -578.22265    
   7675500   268.27001     -351.52402     -272.91212     -351.43756      0              6247.5366      46.35683       20.047001      20.857         19382.732      7986.7558      6531.9626      4223.8914     -810.01151      1889.8731     -771.59933    
   7676000   262.70983     -352.29199     -275.30941     -352.19124      0              4241.7223      46.333594      20.047001      20.857         19373.016      5634.5071      3423.4144      3667.2454     -329.45346     -250.19655      143.04331    
   7676500   263.60201     -350.64008     -273.39606     -350.60913      0              5663.5215      46.40292       20.047001      20.857         19402.003      6726.2473      4706.6205      5557.6968      1034.501      -346.94655     -1639.1992    
   7677000   263.47496     -351.20425     -273.99746     -351.13161      0              4942.9304      46.474155      20.047001      20.857         19431.788      4370.7362      7409.6807      3048.3742      468.5964       829.8907       89.217358    
   7677500   265.30833     -351.45033     -273.7063      -351.37784      0              4512.5658      46.293845      20.047001      20.857         19356.396      7785.6406      2487.1353      3264.9215      963.08996     -1296.0864     -381.28876    
   7678000   266.69893     -351.81829     -273.66677     -351.75382      0              4477.9364      46.507191      20.047001      20.857         19445.601      5993.1174      2413.3516      5027.3402     -57.090315      2369.4281     -19.350283    
   7678500   265.71711     -349.20997     -271.34615     -349.13784      0              2861.7411      46.72879       20.047001      20.857         19538.256      3913.9358      2533.7407      2137.5469      574.66263      964.92785      829.50041    
   7679000   267.97287     -349.94285     -271.41802     -349.8729       0              5965.2668      46.346579      20.047001      20.857         19378.446      6848.1863      7222.0957      3825.5184      1119.3041     -1503.1941      58.556118    
   7679500   267.16813     -352.60173     -274.31272     -352.52384      0              5218.7879      46.206386      20.047001      20.857         19319.828      6402.9623      6142.2717      3111.1296      731.59007     -399.78172     -1309.1571    
   7680000   270.95883     -349.14255     -269.74274     -349.06647      0              4327.9522      46.661552      20.047001      20.857         19510.142      4839.8222      3406.071       4737.9633      658.97374     -416.5892       249.4208     
   7680500   264.4152      -351.67027     -274.18795     -351.58899      0              3349.9274      46.713453      20.047001      20.857         19531.843      4128.654       4071.2397      1849.8886     -1046.3971     -556.30424     -1147.2832    
   7681000   276.33812     -352.65745     -271.68133     -352.54182      0              4036.1046      46.414633      20.047001      20.857         19406.9        1889.8167      5807.1512      4411.3458      1284.5755     -282.42578      434.94763    
   7681500   258.24725     -351.00923     -275.33433     -350.93218      0              3202.2116      46.300043      20.047001      20.857         19358.988      3546.0023      3266.5734      2794.0589      134.97017      1278.0326      10.502521    
   7682000   259.75018     -355.429       -279.31369     -355.35667      0              4419.644       46.629715      20.047001      20.857         19496.831      3673.4966      6623.0954      2962.3401      807.66514      1499.9833     -416.64218    
   7682500   255.56999     -352.08952     -277.19914     -352.0168       0              4572.2259      46.949993      20.047001      20.857         19630.745      5863.2847      4037.6328      3815.7601     -390.92094      874.51784     -98.210646    
   7683000   271.75339     -351.2831      -271.65046     -351.22708      0              1317.8345      46.556924      20.047001      20.857         19466.395      1795.5542      74.441754      2083.5075     -638.14144      497.36554     -1809.766     
   7683500   270.06221     -350.13106     -270.99399     -350.06942      0              5965.0301      46.406442      20.047001      20.857         19403.475      9004.7553      4523.3564      4366.9786     -778.6503       410.78761     -185.32254    
   7684000   261.30631     -352.04521     -275.47391     -351.99916      0              2145.3308      46.697776      20.047001      20.857         19525.288      2125.6613      1837.5409      2472.7902     -1041.0237      765.17878      850.84191    
   7684500   266.42562     -353.4766      -275.40517     -353.43027      0              3504.2116      46.61063       20.047001      20.857         19488.851      4872.9518      2853.0411      2786.6419      77.525612     -268.73131     -820.23904    
   7685000   264.18558     -353.49016     -276.07514     -353.41069      0              5239.6615      46.393823      20.047001      20.857         19398.199      6851.0972      4287.0665      4580.8207      810.93036     -835.09481     -334.73619    
   7685500   266.17427     -350.42093     -272.42315     -350.37469      0              3716.9128      46.492646      20.047001      20.857         19439.519      5405.1413      2123.7185      3621.8786     -223.17372      1217.2821      251.88679    
   7686000   259.74684     -352.55936     -276.44503     -352.48667      0              4630.4486      46.601507      20.047001      20.857         19485.036      4130.9365      5318.7119      4441.6975      610.30215      498.85432      490.71143    
   7686500   262.06906     -351.6608      -274.86599     -351.61386      0              4113.5893      46.589625      20.047001      20.857         19480.068      4742.6489      4496.7486      3101.3706      111.34769      2022.5499     -1714.641     
   7687000   260.57948     -351.89156     -275.53324     -351.87002      0              3419.1534      46.591143      20.047001      20.857         19480.702      3829.7405      2870.4125      3557.3073     -440.53718     -425.03668     -859.46604    
   7687500   263.45191     -353.22143     -276.0214      -353.15881      0              6241.2099      46.741316      20.047001      20.857         19543.493      6859.1425      7778.6513      4085.8358     -243.40095      952.17872      5.5730814    
   7688000   260.81886     -352.00032     -275.57185     -351.94678      0              2107.6581      46.798904      20.047001      20.857         19567.572      388.81184      4850.8204      1083.3422      2028.5374     -616.74366      801.9444     
   7688500   262.78237     -351.44424     -274.4404      -351.37008      0              3316.9593      46.329616      20.047001      20.857         19371.353      7101.0491      1774.9285      1074.9004      289.87139      1100.4307      99.031763    
   7689000   269.85995     -348.99874     -269.92094     -348.93799      0              4128.8993      46.259268      20.047001      20.857         19341.939      6262.4466      2338.9839      3785.2675     -949.45072      1497.2846      655.43216    
   7689500   268.69496     -353.59194     -274.85551     -353.51946      0              5022.7908      46.718446      20.047001      20.857         19533.931      5292.152       5906.4128      3869.8075      1014.8026      2656.2367     -721.12438    
   7690000   268.17305     -354.37952     -275.79603     -354.2941       0              5339.4289      46.8534        20.047001      20.857         19590.358      6179.8337      5497.6869      4340.7661     -211.77864      137.30192      996.49773    
   7690500   273.4636      -353.42042     -273.28663     -353.32423      0              3287.8139      46.524054      20.047001      20.857         19452.651      5394.1665      2142.4237      2326.8515     -127.53029      1974.2353     -284.58095    
   7691000   265.26892     -352.5336      -274.80112     -352.45248      0              2773.9848      46.476038      20.047001      20.857         19432.575      3753.9089      2277.2191      2290.8263     -145.09877     -890.01771      340.06699    
   7691500   262.77737     -352.8437      -275.84133     -352.76453      0              3981.1268      46.553845      20.047001      20.857         19465.108      3793.6718      4481.9506      3667.758      -553.19836     -128.39872      326.73022    
   7692000   259.18908     -350.86187     -274.91098     -350.78922      0              3103.073       46.46351       20.047001      20.857         19427.337      4099.8487      2699.1274      2510.2428      820.20333      478.07754     -563.3244     
   7692500   266.9058      -353.07678     -274.86464     -353.00883      0              4907.7644      46.326246      20.047001      20.857         19369.944      5770.4492      4711.1519      4241.6922      1048.7745     -1015.4812      685.06611    
   7693000   266.27001     -353.32262     -275.29679     -353.23479      0              4257.3921      46.292638      20.047001      20.857         19355.892      4301.2274      3098.8822      5372.0667      1217.6993      952.74592     -1103.321     
   7693500   254.17434     -354.71542     -280.23402     -354.5939       0              3227.5898      46.362072      20.047001      20.857         19384.923      5161.8509      1270.7525      3250.166       1607.1764      982.65066      1184.8289    
   7694000   259.79502     -354.74826     -278.61981     -354.67877      0              5658.8775      46.406613      20.047001      20.857         19403.547      5797.1394      4945.9349      6233.5583      312.75329      2011.4904     -486.80148    
   7694500   260.81477     -352.70995     -276.28268     -352.64114      0              5494.5505      46.391527      20.047001      20.857         19397.239      5366.7426      4702.9984      6413.9104     -356.7453       1264.708       183.40093    
   7695000   266.83931     -350.95503     -272.76237     -350.88208      0              4729.1754      46.421489      20.047001      20.857         19409.767      4854.3401      2754.6353      6578.5508      681.20191      988.02719      755.84964    
   7695500   262.4548      -353.96682     -277.05897     -353.87209      0              2026.661       46.590729      20.047001      20.857         19480.53       4620.5288      2305.7253     -846.27121      282.92972      483.06045      34.176748    
   7696000   255.91928     -353.42119     -278.42846     -353.30197      0              4531.0354      46.487724      20.047001      20.857         19437.461      6849.1662      3460.6368      3283.3033      380.43929     -1544.3143     -918.09624    
   7696500   264.0083      -353.16024     -275.79716     -353.0921       0              5192.5842      46.218433      20.047001      20.857         19324.865      4080.8233      5902.6369      5594.2923     -642.26596      639.32484      815.5785     
   7697000   262.00629     -352.58346     -275.80703     -352.49653      0              5494.1109      46.272343      20.047001      20.857         19347.406      5234.1477      5196.5585      6051.6266     -286.70226      2469.524       2966.6464    
   7697500   269.91243     -355.43646     -276.34328     -355.36967      0              4240.3098      46.372816      20.047001      20.857         19389.416      5617.6367      2256.4816      4846.8109      1677.458       17.15178      -920.23254    
   7698000   264.62539     -353.29154     -275.74764     -353.23401      0              4914.6763      46.397774      20.047001      20.857         19399.851      3094.8301      6957.224       4691.9748      925.66514     -170.76036     -4.1781992    
   7698500   266.98284     -355.23978     -277.00507     -355.17211      0              5145.977       46.371658      20.047001      20.857         19388.932      4625.8482      6612.5307      4199.5523      822.61148     -522.07024     -775.66424    
   7699000   265.56597     -354.57217     -276.75264     -354.50093      0              5339.4019      46.362334      20.047001      20.857         19385.033      4117.153       8497.8141      3403.2386     -39.491723     -154.55241      43.329084    
   7699500   271.93225     -351.33059     -271.64554     -351.25991      0              4458.018       46.30979       20.047001      20.857         19363.063      5013.8372      4743.5389      3616.6779      1981.9414     -47.517286      1552.5097    
   7700000   263.03561     -351.67533     -274.59728     -351.6034       0              3595.3341      46.412059      20.047001      20.857         19405.824      2965.5186      3970.6285      3849.8551     -42.462317      115.82043     -693.32295    
   7700500   261.81357     -351.93714     -275.21719     -351.90972      0              5167.5505      46.385789      20.047001      20.857         19394.84       5916.7674      5022.0886      4563.7955     -1462.9213      2122.2873     -205.64493    
   7701000   268.48146     -350.59132     -271.91746     -350.53531      0              6308.0435      46.470851      20.047001      20.857         19430.406      7112.4444      7497.8551      4313.831       26.885308      1110.3471      635.6494     
   7701500   257.9071      -352.93685     -277.36162     -352.87946      0              3820.5197      46.534566      20.047001      20.857         19457.047      3172.2438      4509.4035      3779.9117     -242.77074      1653.0196      1544.3273    
   7702000   259.36549     -352.54715     -276.54456     -352.49256      0              4632.3516      46.403825      20.047001      20.857         19402.381      5880.0033      4162.9967      3854.0547     -905.52423     -2464.4809      422.48931    
   7702500   264.76039     -351.6665      -274.08304     -351.61129      0              6001.3469      46.479445      20.047001      20.857         19433.999      4604.5468      7306.5322      6092.9616      559.93237      816.02963      936.97585    
   7703000   264.34087     -352.17328     -274.71275     -352.11219      0              5314.7084      46.465942      20.047001      20.857         19428.353      8059.2071      2541.8804      5343.0378      550.38814      167.2909      -1291.4286    
   7703500   266.81278     -356.36603     -278.18115     -356.2482       0              5158.1808      46.270451      20.047001      20.857         19346.615      3843.028       6218.8266      5412.6879      306.94744     -653.85239      635.42571    
   7704000   269.08992     -355.43756     -276.5854      -355.34121      0              8648.6605      46.0464        20.047001      20.857         19252.935      10356.958      8041.6265      7547.397       533.0007       208.94044     -452.70115    
   7704500   259.76447     -353.05165     -276.93215     -352.99176      0              5541.8848      46.392869      20.047001      20.857         19397.8        5233.7547      5217.9182      6173.9816      1014.7571      382.49635      2148.5465    
   7705000   268.61397     -353.17832     -274.46563     -353.08289      0              5795.4066      46.376284      20.047001      20.857         19390.866      7067.9477      4903.6091      5414.6629     -645.14553      909.05214     -283.66077    
   7705500   263.83429     -352.98125     -275.66916     -352.84608      0              5257.9049      46.152         20.047001      20.857         19297.088      7030.2225      4610.0137      4133.4784     -132.69754     -1414.9412      1061.7327    
   7706000   254.24007     -355.45401     -280.95334     -355.34599      0              3832.7647      46.253492      20.047001      20.857         19339.524      3700.9627      3150.1125      4647.2189     -1838.0858      540.40406     -509.0007     
   7706500   256.06495     -356.96698     -281.93156     -356.84835      0              6717.3071      46.35812       20.047001      20.857         19383.271      7666.4551      5817.5183      6667.9478      635.05001     -118.14064     -1431.6801    
   7707000   258.91866     -356.10634     -280.23469     -356.03437      0              7229.1208      46.273028      20.047001      20.857         19347.693      9310.8671      5782.4014      6594.0941     -2147.0948     -656.82281     -898.4272     
   7707500   263.58109     -353.63528     -276.39739     -353.52939      0              4903.1643      46.081487      20.047001      20.857         19267.605      3481.283       4712.0521      6516.1577     -1039.5416     -310.01708     -1570.2107    
   7708000   267.57118     -354.92434     -276.51723     -354.8019       0              6013.9676      45.840756      20.047001      20.857         19166.95       6823.7984      5815.5468      5402.5576      208.93245     -1566.2449      1039.7292    
   7708500   259.435       -355.23498     -279.21203     -355.11762      0              4839.3821      46.133049      20.047001      20.857         19289.164      5002.5263      4745.0095      4770.6104      678.64826     -201.49919      2382.2831    
   7709000   264.71716     -352.97831     -275.40752     -352.9059       0              2799.1756      46.539116      20.047001      20.857         19458.949      2712.2008      3358.329       2326.997       543.11073      1610.7893     -2104.8751    
   7709500   269.36026     -353.08806     -274.15668     -353.01564      0              4424.2611      46.162796      20.047001      20.857         19301.602      5749.1983      4089.9347      3433.6501     -910.28762     -1465.9621      470.46819    
   7710000   265.87101     -351.90168     -273.99277     -351.82431      0              4990.9622      45.918306      20.047001      20.857         19199.376      5894.2172      6615.2103      2463.459       1147.6254     -361.99954      762.34865    
   7710500   262.47715     -353.20444     -276.29003     -353.08589      0              4762.8182      46.128479      20.047001      20.857         19287.253      6277.9845      4460.6498      3549.8204      1236.3452      1507.5793      869.94523    
   7711000   262.64823     -352.78994     -275.82541     -352.69419      0              4862.4615      46.290837      20.047001      20.857         19355.138      7260.4636      3700.1796      3626.7414     -639.60762      126.53178     -1387.0639    
   7711500   267.01397     -353.81363     -275.56979     -353.70565      0              5969.51        46.122483      20.047001      20.857         19284.746      6425.2176      6414.1595      5069.1529      879.47995      304.57448      478.78607    
   7712000   264.53097     -353.12399     -275.60775     -353.00479      0              3760.8245      45.902921      20.047001      20.857         19192.943      4782.3952      4115.2249      2384.8534     -632.21914      2634.806      -711.36492    
   7712500   264.44523     -352.85447     -275.36336     -352.72991      0              4875.8064      46.183246      20.047001      20.857         19310.153      6580.5719      1879.0225      6167.8249      1540.6846     -1559.3547      1155.421     
   7713000   261.94631     -353.40541     -276.64657     -353.30436      0              4230.7521      46.585022      20.047001      20.857         19478.144      4232.1887      4343.3227      4116.745       255.57897      2314.7331     -342.30747    
   7713500   261.4106      -352.27282     -275.67096     -352.16412      0              5035.7318      46.183838      20.047001      20.857         19310.4        8478.9794      4190.011       2438.2051      1044.2363     -1675.8873     -1679.9774    
   7714000   262.13175     -353.35376     -276.54057     -353.23468      0              5243.7218      45.82841       20.047001      20.857         19161.788      5408.5112      5305.5035      5017.1506      697.70257     -1483.7958     -743.09985    
   7714500   264.52835     -354.43603     -276.92056     -354.32639      0              1360.0841      46.179156      20.047001      20.857         19308.442      3763.7266      1045.4923     -728.96678     -1439.0073     -1172.9197     -1497.8966    
   7715000   264.98306     -354.59626     -276.94755     -354.50199      0              4040.8254      46.375783      20.047001      20.857         19390.656      4384.0614      3558.5038      4179.911       1531.8848      1819.2349      124.60534    
   7715500   263.02789     -355.99776     -278.92197     -355.89506      0              4066.443       46.273         20.047001      20.857         19347.68       3807.6215      3947.9602      4443.7473      360.66662     -641.76162     -870.89538    
   7716000   270.6148      -355.00994     -275.71094     -354.89096      0              4682.597       46.280087      20.047001      20.857         19350.644      7835.5998      2992.2653      3219.9259      227.03452      419.55794      766.24123    
   7716500   269.0589      -353.29859     -274.45552     -353.18443      0              4559.0128      46.515868      20.047001      20.857         19449.229      5641.4198      5065.3913      2970.2272     -32.851508     -1232.4826      1459.3865    
   7717000   267.12856     -352.76125     -274.48383     -352.6475       0              2264.5542      46.359321      20.047001      20.857         19383.773      5362.2944     -944.92228      2376.2905     -554.36393     -320.9612      -854.50719    
   7717500   268.99259     -355.34459     -276.52095     -355.24835      0              4466.5861      46.353753      20.047001      20.857         19381.445      3589.2356      5071.4318      4739.091       371.54335      1112.1601      113.80675    
   7718000   266.1419      -355.92851     -277.94022     -355.81252      0              3881.2715      46.38878       20.047001      20.857         19396.091      3878.5256      5124.1079      2641.1809     -18.862188      17.078728     -1168.2838    
   7718500   263.92457     -353.87844     -276.5399      -353.76782      0              2640.9846      46.287725      20.047001      20.857         19353.838      1505.2348      3947.6378      2470.0812      795.27126     -709.41731     -1599.4778    
   7719000   264.53194     -353.13823     -275.62171     -353.03128      0              3926.9012      46.353278      20.047001      20.857         19381.246      4632.3632      5637.3408      1510.9996      187.59876      4098.1641      1950.5871    
   7719500   266.58217     -354.8973      -276.78        -354.77839      0              4363.4419      46.332023      20.047001      20.857         19372.359      3524.2842      6226.5311      3339.5103     -834.33306     -1065.9898      882.26336    
   7720000   269.09044     -356.23383     -277.38152     -356.09807      0              6426.1462      46.172806      20.047001      20.857         19305.787      5337.9185      8454.8559      5485.6643     -833.59375      593.67793      59.769189    
   7720500   263.25281     -354.46077     -277.31908     -354.36056      0              4762.9277      46.328615      20.047001      20.857         19370.935      7004.4819      3779.7994      3504.5018      479.2392      -1196.7752     -151.66457    
   7721000   261.1209      -352.28843     -275.77145     -352.17832      0              3894.3833      46.614618      20.047001      20.857         19490.518      3372.9184      4671.6222      3638.6092     -78.859185     -523.0732      -988.76206    
   7721500   260.35404     -353.88672     -277.59446     -353.76808      0              5453.503       46.572833      20.047001      20.857         19473.047      5078.9779      7436.1119      3845.4193      531.83292      1558.9479      446.26893    
   7722000   265.73471     -352.79136     -274.92239     -352.67319      0              5322.4144      46.30351       20.047001      20.857         19360.438      4574.1167      6119.3279      5273.7986      1037.6272     -342.86507     -955.30086    
   7722500   274.92547     -351.98327     -271.4211      -351.86515      0              4871.696       46.157265      20.047001      20.857         19299.289      3862.1537      5917.8717      4835.0625      1438.5456      843.7295      -717.36198    
   7723000   258.62824     -352.18109     -276.39455     -352.04456      0              7019.5462      46.198776      20.047001      20.857         19316.646      8116.1497      7086.3858      5856.1031     -280.85268      640.98924      626.7227     
   7723500   266.39861     -351.57327     -273.50975     -351.45402      0              2831.6147      46.425015      20.047001      20.857         19411.241      3567.1079      3457.3839      1470.3522     -891.1431      -41.970584      66.583246    
   7724000   264.29347     -351.72611     -274.27947     -351.60616      0              5273.67        46.153883      20.047001      20.857         19297.875      6464.4417      6077.9175      3278.6509      364.03516      1758.1818     -6.5755904    
   7724500   266.91117     -351.49597     -273.28225     -351.37741      0              5623.4056      46.117285      20.047001      20.857         19282.573      7584.2591      4479.5987      4806.3589     -1242.2243     -835.19801     -643.20519    
   7725000   263.98044     -351.13239     -273.77747     -350.9958       0              6385.5806      46.331306      20.047001      20.857         19372.06       6622.0152      7458.1847      5076.5419     -132.05777      202.1153      -1185.0303    
   7725500   258.87727     -349.21806     -273.35854     -349.09861      0              4899.1779      46.516371      20.047001      20.857         19449.439      8309.8129      1589.6478      4798.0731     -580.37714     -123.0478      -299.71267    
   7726000   263.66934     -351.80615     -274.5424      -351.6877       0              7142.7046      46.440624      20.047001      20.857         19417.768      6896.8776      7932.3618      6598.8743      422.14735      517.54943      115.45091    
   7726500   263.61501     -351.22785     -273.98002     -351.09531      0              5091.6965      46.103504      20.047001      20.857         19276.811      6518.3593      5152.3687      3604.3617      125.68442      434.9605       515.41283    
   7727000   265.05991     -352.47184     -274.80061     -352.38835      0              4178.0182      45.937227      20.047001      20.857         19207.287      4085.7074      3197.8395      5250.5077     -1943.1101     -86.670728     -413.36874    
   7727500   261.2492      -353.93999     -277.38542     -353.80667      0              6335.8826      46.038575      20.047001      20.857         19249.663      7002.0434      5491.1545      6514.45        513.52665     -949.80204      2949.3319    
   7728000   268.85668     -353.28522     -274.50141     -353.16613      0              6297.4368      46.14031       20.047001      20.857         19292.2        6177.4844      6409.301       6305.5251     -2119.5459      1154.3506     -795.20184    
   7728500   263.79727     -352.71229     -275.41105     -352.58677      0              3744.1411      46.222728      20.047001      20.857         19326.661      2391.9449      5764.627       3075.8513     -852.20212      1125.248      -345.09596    
   7729000   258.16629     -351.54341     -275.89223     -351.40698      0              4147.4975      46.29088       20.047001      20.857         19355.157      2812.4953      5205.6365      4424.3607     -584.73783     -410.16255      1751.3975    
   7729500   264.35169     -353.27013     -275.80643     -353.15684      0              3879.1937      45.95466       20.047001      20.857         19214.576      5244.7628      2742.6476      3650.1707     -336.02861     -277.92068     -1623.2186    
   7730000   264.16864     -352.66973     -275.25967     -352.55601      0              7180.164       45.936102      20.047001      20.857         19206.817      7968.3052      7891.719       5680.4677     -109.7155       2039.3041      648.2516     
   7730500   263.3859      -351.218       -274.03731     -351.10674      0              4157.4811      46.385658      20.047001      20.857         19394.785      2728.4974      5418.0541      4325.8917      73.980294      1287.1558      913.34933    
   7731000   269.3879      -353.79318     -274.85371     -353.69758      0              3848.861       46.571157      20.047001      20.857         19472.346      4576.8987      3298.5557      3671.1287      677.95166      860.83948     -726.0302     
   7731500   269.43863     -351.84576     -272.89141     -351.71464      0              5971.8785      46.26005       20.047001      20.857         19342.266      6592.7869      7300.5392      4022.3092     -1099.4688     -520.82796      2426.7586    
   7732000   269.76115     -352.1767      -273.12785     -352.08294      0              4093.4993      46.361502      20.047001      20.857         19384.685      2980.2168      4031.5033      5268.7776     -410.05709     -385.43489      1153.1791    
   7732500   270.11556     -353.38051     -274.2278      -353.26248      0              4507.3718      46.354591      20.047001      20.857         19381.796      3948.2821      4742.4078      4831.4256      2711.2763     -682.06955      431.63377    
   7733000   263.8145      -355.02183     -277.71554     -354.89443      0              2045.9742      46.241159      20.047001      20.857         19334.367      2579.6169      3867.1211     -308.81521     -676.61913     -230.75002     -791.50125    
   7733500   267.14386     -352.88984     -274.60795     -352.76183      0              2053.9706      46.361045      20.047001      20.857         19384.494      2171.5384      1100.34        2890.0335      849.98667     -1499.0191     -730.79608    
   7734000   260.05847     -352.28639     -276.08074     -352.15073      0              4780.819       46.362408      20.047001      20.857         19385.064      4570.9227      5644.2891      4127.2453     -896.71552      2808.3913      230.0866     
   7734500   253.93025     -352.37578     -277.9659      -352.25719      0              5153.2414      46.116297      20.047001      20.857         19282.16       4936.3872      6290.9361      4232.401       566.85903     -611.7564       233.55123    
   7735000   266.99184     -354.45897     -276.22162     -354.35726      0              6131.726       46.164143      20.047001      20.857         19302.165      6199.9124      5581.7333      6613.5321      261.46401      39.782508      791.40432    
   7735500   265.23504     -352.59083     -274.86827     -352.45556      0              3337.256       46.206772      20.047001      20.857         19319.989      3502.1569      2282.1798      4227.4313     -1245.6826     -674.69475      1357.2222    
   7736000   266.14396     -351.31201     -273.32312     -351.18089      0              5878.0984      46.434095      20.047001      20.857         19415.038      7710.5729      7551.4617      2372.2605     -58.162041     -656.76149      1204.521     
   7736500   265.53608     -352.11858     -274.30781     -351.99645      0              2532.8209      46.635643      20.047001      20.857         19499.309      253.65469      4643.8676      2700.9403     -966.94178     -1512.0162      728.65879    
   7737000   263.08062     -352.00555     -274.91431     -351.8737       0              3651.917       46.487266      20.047001      20.857         19437.269      3712.9437      5534.9835      1707.8237      237.06505      3261.4274     -2193.6063    
   7737500   260.24721     -351.52728     -275.26633     -351.40396      0              3747.8542      46.117649      20.047001      20.857         19282.725      3655.0029      2364.5014      5224.0584     -894.96665     -1117.3442     -189.10287    
   7738000   259.51773     -351.26207     -275.21487     -351.15144      0              4257.4575      45.911067      20.047001      20.857         19196.349      4582.8657      4383.6326      3805.8741     -708.28166     -2252.3282      257.27723    
   7738500   270.35309     -353.25186     -274.02956     -353.12801      0              4473.2933      46.227766      20.047001      20.857         19328.767      5422.1023      3582.2371      4415.5406     -1290.6082      1199.2337      625.76557    
   7739000   260.31239     -351.24704     -274.96699     -351.12356      0              2924.0077      46.606942      20.047001      20.857         19487.309      5864.1676      1425.5851      1482.2703      993.67073      631.16884     -254.4667     
   7739500   265.649       -351.4517      -273.60784     -351.3234       0              6215.1002      46.631235      20.047001      20.857         19497.466      6285.4613      6096.0449      6263.7944      9.1489264      25.093902      575.23014    
   7740000   265.1002      -353.79398     -276.11094     -353.68595      0              5369.0176      46.521374      20.047001      20.857         19451.531      5740.4127      5855.7021      4510.9381     -738.6371       1059.4398      674.04968    
   7740500   258.48487     -350.11095     -274.36642     -349.99198      0              5763.2254      46.361807      20.047001      20.857         19384.812      4986.7968      6528.4593      5774.4201     -113.72665     -47.960119      1292.7904    
   7741000   266.18528     -351.46394     -273.46293     -351.34524      0              4809.1656      46.425087      20.047001      20.857         19411.271      4496.9028      4372.5902      5558.0039      1467.9053      1090.2275     -599.02601    
   7741500   261.4818      -350.92243     -274.2997      -350.81093      0              3572.1368      46.515542      20.047001      20.857         19449.092      4009.3649      3463.8848      3243.1606     -602.39786      1654.8213     -924.49151    
   7742000   269.52474     -349.93572     -270.95614     -349.81806      0              4752.8751      46.708999      20.047001      20.857         19529.981      5100.3287      4559.4434      4598.8532      813.27942     -1043.2943      1058.6823    
   7742500   269.91196     -353.11734     -274.0243      -352.98152      0              5840.7719      46.536299      20.047001      20.857         19457.771      5740.7611      5970.508       5811.0467     -371.14144     -123.78243     -64.188961    
   7743000   268.67025     -351.45413     -272.72495     -351.33824      0              4514.1238      46.42479       20.047001      20.857         19411.147      4563.5079      3812.0296      5166.8339      1354.9234     -1810.8979     -794.03981    
   7743500   262.4155      -353.4887      -276.59236     -353.35297      0              2649.7984      46.53062       20.047001      20.857         19455.397      2207.0119      3205.3149      2537.0684     -2073.1492     -464.41504      1331.0706    
   7744000   266.80649     -352.0373      -273.85426     -351.96545      0              4214.7525      46.478898      20.047001      20.857         19433.771      3559.4143      6330.6876      2754.1555     -997.54167     -99.521229     -301.4352     
   7744500   266.38741     -353.17574     -275.1155      -353.04839      0              5120.5215      46.333021      20.047001      20.857         19372.776      4972.3765      7323.7729      3065.415      -213.97467     -797.04084     -523.15201    
   7745000   269.51091     -354.01063     -275.0351      -353.88943      0              6055.4437      46.337426      20.047001      20.857         19374.618      6096.0661      6184.412       5885.8529     -337.22898      836.71405     -454.01766    
   7745500   265.48752     -351.9424      -274.14586     -351.8247       0              3875.0454      46.349583      20.047001      20.857         19379.701      3710.9995      2647.5941      5266.5426      69.02529       56.425099      379.43505    
   7746000   267.39116     -352.80204     -274.44767     -352.67028      0              4605.6908      46.464351      20.047001      20.857         19427.688      5907.3241      4298.8466      3610.9018      1207.3837     -1506.5564      442.66234    
   7746500   266.0281      -350.72518     -272.77023     -350.60759      0              4403.8774      46.387085      20.047001      20.857         19395.382      6251.6317      3257.4876      3702.5131     -526.27179      820.94953     -173.8938     
   7747000   269.73143     -353.64336     -274.60322     -353.52466      0              4811.4522      46.31632       20.047001      20.857         19365.794      7294.2235      3329.4714      3810.6617      1117.3277     -1405.9354      155.06881    
   7747500   263.92907     -349.48092     -272.14106     -349.36104      0              4562.6522      46.316665      20.047001      20.857         19365.938      7163.153       2154.887       4369.9167      463.83884     -189.97594     -1878.2945    
   7748000   260.28153     -353.10974     -276.83873     -352.99048      0              4749.8951      46.576738      20.047001      20.857         19474.68       5140.1924      3264.3694      5845.1234      371.14892     -257.77192      795.27048    
   7748500   262.9321      -354.87091     -277.82319     -354.73844      0              3817.2936      46.411897      20.047001      20.857         19405.756      6401.1133      2404.7717      2645.9958      300.15346      1231.5807     -904.44914    
   7749000   259.70089     -350.66717     -274.5663      -350.53987      0              4486.8365      45.952398      20.047001      20.857         19213.631      4637.2198      3659.3862      5163.9034     -416.41737     -644.54544      73.416259    
   7749500   268.87467     -350.29266     -271.50358     -350.17465      0              5785.121       46.072654      20.047001      20.857         19263.912      9282.3439      4095.5432      3977.4758      39.120917     -133.5962       1109.9716    
   7750000   262.69381     -348.33732     -271.35943     -348.24909      0              3133.0614      46.425086      20.047001      20.857         19411.271      1264.3054      3345.7968      4789.0819      324.97299     -1042.3956     -1952.7326    
   7750500   265.4313      -351.39539     -273.61533     -351.2661       0              3931.5618      46.296425      20.047001      20.857         19357.475      5458.7985      4886.0608      1449.8261      895.44822     -870.58675      780.31914    
   7751000   259.39229     -350.51171     -274.50127     -350.39288      0              4278.156       46.147261      20.047001      20.857         19295.107      4074.7877      5374.9916      3384.6886     -755.56505     -649.89986     -1785.5475    
   7751500   270.02534     -350.73255     -271.60628     -350.59775      0              5020.4252      46.094226      20.047001      20.857         19272.931      5554.8028      4407.0555      5099.4173      641.90571      284.488        2689.2616    
   7752000   262.94167     -352.61476     -275.56424     -352.49654      0              2850.5351      46.180857      20.047001      20.857         19309.154      2895.9951      4014.2956      1641.3146     -527.08326     -1301.7067      1118.2937    
   7752500   264.25049     -352.60742     -275.17338     -352.49785      0              5084.7415      46.027367      20.047001      20.857         19244.977      5731.2151      5762.8522      3760.1572      385.67134      442.37407      2505.9409    
   7753000   262.59696     -350.5254      -273.57589     -350.41127      0              3153.012       46.062205      20.047001      20.857         19259.543      2268.6352      4193.9414      2996.4594     -458.96549     -2207.6026     -19.775972    
   7753500   260.86711     -349.85503     -273.41242     -349.75437      0              3760.7945      46.293023      20.047001      20.857         19356.052      5696.9109      2039.0802      3546.3923     -552.51588     -42.909464     -1325.5381    
   7754000   263.17962     -349.30021     -272.17996     -349.18723      0              3636.3344      46.393916      20.047001      20.857         19398.238      4365.9929      3612.1506      2930.8598      1248.7898      142.02734      663.34081    
   7754500   268.2685      -348.13675     -269.52529     -348.01652      0              3167.8473      46.369901      20.047001      20.857         19388.197      4900.4032      1454.3097      3148.8289     -633.9468       540.11879      1011.7636    
   7755000   265.69679     -349.85231     -271.99445     -349.74381      0              3164.6194      46.326843      20.047001      20.857         19370.193      5568.1711      3075.1156      850.57165      1268.7229     -3008.971       1328.1602    
   7755500   265.67148     -351.58742     -273.73698     -351.47091      0              4167.672       46.344703      20.047001      20.857         19377.661      4842.0142      4236.0963      3424.9054     -337.35337     -2268.5139      1175.698     
   7756000   258.78143     -353.04249     -277.21105     -352.92389      0              5928.5856      46.180079      20.047001      20.857         19308.829      7634.2507      5621.2316      4530.2744      700.34088      224.80133      28.477545    
   7756500   264.54083     -352.00021     -274.48108     -351.89735      0              2527.2631      46.269255      20.047001      20.857         19346.115      3055.3857      2053.6976      2472.7061      546.12245     -2106.0934     -453.77747    
   7757000   268.25836     -351.76481     -273.15633     -351.62863      0              3404.7836      46.334694      20.047001      20.857         19373.476      5433.6067      2844.2815      1936.4628      79.852829     -454.85483      563.35802    
   7757500   275.28462     -352.80103     -272.13362     -352.66576      0              4128.6574      46.221655      20.047001      20.857         19326.212      4019.5791      6990.8089      1375.584      -1025.3949     -709.95156      414.76773    
   7758000   263.54349     -350.57295     -273.34608     -350.44039      0              5612.8217      46.325854      20.047001      20.857         19369.78       5449.3608      7185.5296      4203.5749      884.96624     -738.96355     -473.60706    
   7758500   266.87726     -352.93762     -274.73385     -352.8029       0              3860.2915      46.626701      20.047001      20.857         19495.57       3526.5366      4163.0394      3891.2984     -1411.9237     -620.44362      1075.3421    
   7759000   263.77247     -351.40595     -274.11198     -351.29373      0              3908.8461      46.499285      20.047001      20.857         19442.295      7067.9512      3809.3313      849.2557       216.2832      -1728.5368      1499.4129    
   7759500   269.79499     -350.68555     -271.62679     -350.55066      0              4427.6253      46.32678       20.047001      20.857         19370.167      6113.6837      2394.3479      4774.8443      884.39872     -1604.3733     -961.35241    
   7760000   264.89723     -350.21623     -272.59267     -350.08496      0              5643.4107      46.486844      20.047001      20.857         19437.093      5265.4439      5740.8432      5923.945      -1266.8455     -302.65907      2710.2344    
   7760500   263.74281     -349.39185     -272.10658     -349.29202      0              4823.625       46.535875      20.047001      20.857         19457.594      5055.4542      7597.4338      1817.9871      67.065714      143.16172     -234.1568     
   7761000   267.74536     -351.8294      -273.37124     -351.70216      0              4052.6319      46.346186      20.047001      20.857         19378.281      3060.5827      5651.8878      3445.4253     -1178.1309      393.48316      1795.9591    
   7761500   266.98012     -351.84067     -273.60675     -351.70456      0              3233.15        46.746889      20.047001      20.857         19545.823      3585.4397      5210.4327      903.57745     -711.07374      315.26649     -361.97874    
   7762000   264.87279     -351.87816     -274.26176     -351.76027      0              5363.9307      46.944332      20.047001      20.857         19628.378      6225.8079      5839.4414      4026.5427      1051.5201      665.18817      852.21614    
   7762500   264.45656     -351.44132     -273.94688     -351.31642      0              6168.588       46.6498        20.047001      20.857         19505.228      8564.4713      5452.5598      4488.7328      353.89704     -1867.8574      1458.4203    
   7763000   264.65643     -352.46506     -274.91206     -352.35405      0              4114.5455      46.782841      20.047001      20.857         19560.855      4015.0669      4463.4237      3865.1458      949.67922      101.00394      928.706      
[...]
  11415500   266.83778     -349.13988     -270.94768     -349.16363      0              4896.0945      46.458945      20.047001      20.857         19425.428      5624.6319      4730.74        4332.9115     -400.57182      623.14744      416.22969    
  11416000   266.3055      -347.97514     -269.93891     -347.99155      0              5960.1069      46.330206      20.047001      20.857         19371.6        6603.9636      6695.469       4580.8883      1573.79       -535.83807     -1152.5604    
  11416500   270.63053     -349.02274     -269.71913     -349.03621      0              6500.9907      46.247322      20.047001      20.857         19336.944      7295.553       5639.3675      6568.0517      99.44822      -515.7355      -1963.2479    
  11417000   265.8427      -348.10784     -270.20723     -348.12754      0              3185.7717      46.502318      20.047001      20.857         19443.563      3192.2986      5697.5727      667.44388     -1483.2721     -576.61985     -1303.304     
  11417500   275.42832     -348.75608     -268.04656     -348.77028      0              6534.7979      46.41506       20.047001      20.857         19407.079      6965.6806      4420.1832      8218.53       -757.04734     -734.58648     -1155.3151    
  11418000   262.45924     -346.62674     -269.71759     -346.64317      0              5852.7604      46.227221      20.047001      20.857         19328.54       9458.7252      4022.1342      4077.4219     -840.23169      113.74926      1150.6485    
  11418500   265.03135     -347.206       -269.54314     -347.21776      0              2198.4499      46.485238      20.047001      20.857         19436.422      1142.039       3152.0728      2301.238       902.21564     -33.942643      850.5501     
  11419000   259.35154     -350.63663     -274.63814     -350.65577      0              4509.66        46.606035      20.047001      20.857         19486.929      6723.6688      2320.1029      4485.2083      1169.6974     -537.76764     -2807.869     
  11419500   260.30714     -348.61112     -272.3326      -348.63944      0              3527.2605      46.52763       20.047001      20.857         19454.147      2124.1144      5231.3664      3226.3008     -565.98207     -202.02758     -429.44444    
  11420000   267.51709     -348.41553     -270.02426     -348.40673      0              4263.3675      46.465288      20.047001      20.857         19428.08       8648.8822      1987.3955      2153.8248      1724.2311      1252.6274     -1486.5979    
  11420500   268.24066     -350.51943     -271.91613     -350.53513      0              4122.2109      46.723597      20.047001      20.857         19536.084      6701.3505      3740.5765      1924.7058     -888.29299     -83.189365      24.574178    
  11421000   264.14973     -351.66847     -274.26395     -351.66867      0              4514.8899      46.752197      20.047001      20.857         19548.043      5969.9183      3102.9453      4471.806       1847.0549     -313.98601      50.627734    
  11421500   263.16218     -349.74832     -272.63319     -349.74497      0              5195.6321      46.629987      20.047001      20.857         19496.944      4928.1402      4980.3756      5678.3804     -460.01055      717.08609     -378.84086    
  11422000   265.09224     -351.27124     -273.59053     -351.27866      0              5161.4697      46.484982      20.047001      20.857         19436.315      4941.7095      3309.9019      7232.7976      1736.2597      164.77796     -196.73013    
  11422500   264.3097      -349.68902     -272.23762     -349.69946      0              5436.439       46.451888      20.047001      20.857         19422.477      5629.8057      5106.8951      5572.6161     -397.49792     -830.57108     -2285.8197    
  11423000   267.38755     -350.80533     -272.45202     -350.81103      0              7794.5032      46.550526      20.047001      20.857         19463.72       9480.8508      8635.9541      5266.7047     -486.94247     -175.99009      844.51169    
  11423500   267.11812     -349.38734     -271.11298     -349.40879      0              4324.0006      46.676358      20.047001      20.857         19516.333      3255.3139      3033.8469      6682.8411      75.52024       1426.8        -256.72253    
  11424000   261.01443     -349.23828     -272.7525      -349.25311      0              5898.6923      46.313861      20.047001      20.857         19364.765      7200.9279      5462.0249      5033.124      -1197.1199      494.27824     -520.97013    
  11424500   266.14818     -352.42705     -274.43692     -352.43673      0              5428.8485      46.190253      20.047001      20.857         19313.082      6204.6095      5160.8965      4921.0395      1081.9543     -888.20436      859.89562    
  11425000   265.40429     -350.54624     -272.77409     -350.59239      0              2815.4503      46.435192      20.047001      20.857         19415.497      3590.1234      2690.1452      2166.0823     -316.08365      3066.3489      1473.6868    
  11425500   258.01179     -349.75824     -274.15234     -349.78081      0              7059.312       46.480799      20.047001      20.857         19434.566      7843.298       7023.3664      6311.2715      1811.0918      932.4096      -300.89384    
  11426000   264.87626     -353.14796     -275.53054     -353.16157      0              4453.2182      46.326836      20.047001      20.857         19370.191      6510.3069      4062.0218      2787.326       319.79421      277.22547     -510.05972    
  11426500   262.90619     -351.49404     -274.45392     -351.50895      0              5859.1162      46.258783      20.047001      20.857         19341.736      10227.982      3893.5631      3455.8037      458.32598     -1097.8292      905.47455    
  11427000   268.01012     -349.60451     -271.06877     -349.60444      0              6712.3178      46.499024      20.047001      20.857         19442.186      5460.371       5966.144       8710.4383     -1920.3814      1320.2066     -366.47726    
  11427500   266.35159     -349.96838     -271.91864     -350.02941      0              2317.802       46.594586      20.047001      20.857         19482.142      875.60751      3186.6785      2891.1199      175.04472      1122.4665      646.66062    
  11428000   271.78766     -348.36698     -268.72429     -348.38368      0              5410.658       46.138113      20.047001      20.857         19291.281      8337.6051      2847.6731      5046.6957     -1605.6218     -1165.4216      2448.1893    
  11428500   266.80551     -348.70747     -270.52472     -348.67805      0              3317.1346      46.210831      20.047001      20.857         19321.686      3392.6671      3345.7129      3213.0239     -367.67323      1444.6475      1214.8064    
  11429000   268.05234     -350.38106     -271.83295     -350.38752      0              4447.5916      46.400463      20.047001      20.857         19400.976      3809.0666      6109.1568      3424.5514     -675.2756       1319.7722     -546.43778    
  11429500   267.00505     -348.87279     -270.63156     -348.85922      0              2344.6063      46.364778      20.047001      20.857         19386.055      1650.5555      3063.9514      2319.312      -623.59071      749.77471     -1187.0304    
  11430000   263.79402     -350.34003     -273.03974     -350.30592      0              4177.3834      46.175885      20.047001      20.857         19307.075      4130.7148      3878.3494      4523.086       550.04711      372.96241      915.20591    
  11430500   264.62451     -352.23271     -274.68907     -352.23162      0              2748.6407      45.998804      20.047001      20.857         19233.034      631.21536      4422.6924      3192.0142      660.96974     -1716.7996     -649.32637    
  11431000   263.16898     -352.38794     -275.27081     -352.38507      0              4001.5003      45.991803      20.047001      20.857         19230.107      5314.1375      3981.2117      2709.1516      802.78001      589.31249     -1706.6064    
  11431500   263.17997     -349.33427     -272.21392     -349.35581      0              4807.7177      46.305784      20.047001      20.857         19361.388      5305.1989      5102.1922      4015.7619      92.153182     -667.11811     -1843.7775    
  11432000   264.95986     -348.51355     -270.87163     -348.53306      0              3625.9762      46.313754      20.047001      20.857         19364.721      3375.6138      3066.3849      4435.93        80.151836     -718.28791      593.54533    
  11432500   264.74543     -348.92242     -271.34334     -348.93688      0              5705.5737      46.240952      20.047001      20.857         19334.281      5018.9153      5544.3788      6553.427      -385.62579      155.32411     -537.29005    
  11433000   265.4233      -347.60694     -269.82923     -347.61419      0              4526.7065      46.382607      20.047001      20.857         19393.51       6719.5499      1467.1145      5393.4551      600.75659     -63.870548      1704.8547    
  11433500   260.13169     -351.53233     -275.30523     -351.54871      0              3283.7824      46.346954      20.047001      20.857         19378.602      2572.6914      3284.2811      3994.3747     -1265.2244     -1010.9327     -360.02634    
  11434000   268.4524      -347.59025     -268.9249      -347.59587      0              3278.6692      46.363168      20.047001      20.857         19385.382      2726.8956      1349.8001      5759.3121      803.59164      1689.1671      1383.0879    
  11434500   259.91315     -346.25749     -270.09442     -346.28046      0              2977.2741      46.330287      20.047001      20.857         19371.634      2442.5485      2810.1057      3679.1679     -260.01632     -2344.6611      275.78757    
  11435000   266.34363     -350.93978     -272.89237     -350.93727      0              7143.7065      45.992098      20.047001      20.857         19230.23       8705.8391      5502.02        7223.2605     -339.60019      881.85405     -549.76264    
  11435500   267.37182     -348.93042     -270.58172     -348.96216      0              3563.4046      46.115462      20.047001      20.857         19281.811      4921.8219      4986.1871      782.20469      700.83284     -941.73531     -1493.1015    
  11436000   269.76498     -350.08305     -271.03308     -350.09598      0              2866.3798      46.512968      20.047001      20.857         19448.016      3970.4176      1700.8882      2927.8336      316.75272      830.08606      1238.1738    
  11436500   259.15219     -348.87604     -272.93596     -348.89327      0              4832.214       46.546275      20.047001      20.857         19461.942      6605.9739      3307.3558      4583.3122      1196.2825      264.69641      790.18154    
  11437000   268.71975     -348.76911     -270.02542     -348.7898       0              2656.2845      46.22261       20.047001      20.857         19326.612      2920.2367      1767.6794      3280.9372      1061.1664     -288.35472     -561.87684    
  11437500   262.93927     -347.86104     -270.81122     -347.84267      0              6055.198       45.99084       20.047001      20.857         19229.704      10291.496      4357.7042      3516.3935      1726.7312     -604.22767     -819.78533    
  11438000   264.41472     -349.92638     -272.44421     -349.90306      0              6621.5158      46.330969      20.047001      20.857         19371.919      9476.2923      4885.6011      5502.6539      152.09059     -872.56895     -166.52246    
  11438500   270.30513     -348.95868     -269.75042     -348.97491      0              3432.5168      46.586839      20.047001      20.857         19478.903      658.0727       4846.5509      4792.9267      385.20774     -1004.609      -541.33839    
  11439000   262.48798     -349.01814     -272.10057     -349.00911      0              3397.7815      46.13293       20.047001      20.857         19289.114      3211.8227      3893.3942      3088.1275     -75.49102      -333.56742     -1260.0687    
  11439500   263.68973     -350.19602     -272.9263      -350.20975      0              5415.5765      45.949443      20.047001      20.857         19212.395      5975.8832      6465.7146      3805.1316     -229.02879      1186.1077     -2048.7959    
  11440000   272.35525     -348.93057     -269.12156     -348.93942      0              5178.8117      46.240503      20.047001      20.857         19334.093      6448.2827      5952.1469      3136.0057      896.63616      1136.6724     -654.9656     
  11440500   267.09166     -349.2616      -270.995       -349.27535      0              4318.7035      46.381639      20.047001      20.857         19393.105      5462.7395      3927.81        3565.561      -804.04637     -802.64035      448.4299     
  11441000   265.50631     -350.65545     -272.85341     -350.65926      0              4650.846       46.601897      20.047001      20.857         19485.199      5718.3077      3855.2003      4379.0301     -601.85797      609.07173     -882.9867     
  11441500   267.39547     -350.13948     -271.78385     -350.1714       0              2997.1427      46.44581       20.047001      20.857         19419.936      1974.4307      4112.1508      2904.8467      186.6381      -1021.6814      811.89537    
  11442000   269.57538     -349.62564     -270.63123     -349.63847      0              4543.6779      46.270037      20.047001      20.857         19346.442      4512.0761      3250.2163      5868.7412     -84.234173     -1288.7105     -2484.7357    
  11442500   266.12139     -350.03778     -272.0555      -350.05219      0              5401.8008      46.060151      20.047001      20.857         19258.684      5576.8666      6191.1541      4437.3819     -836.65765     -552.66459     -1067.9842    
  11443000   261.1518      -349.43002     -272.90399     -349.45995      0              3888.656       46.311249      20.047001      20.857         19363.673      3434.2289      4406.9956      3824.7437     -905.07139     -304.93558      396.39226    
  11443500   258.56578     -351.12385     -275.35561     -351.10986      0              5339.5618      46.364584      20.047001      20.857         19385.974      5578.254       5041.0901      5399.3414     -939.3745       1137.191       1228.5626    
  11444000   270.52822     -351.81673     -272.5431      -351.82247      0              5657.8789      46.268975      20.047001      20.857         19345.998      8101.3214      4755.6873      4116.6281     -228.86889     -517.15459      871.90744    
  11444500   262.90112     -350.57802     -273.53938     -350.60162      0              4493.6291      46.31408       20.047001      20.857         19364.857      5803.9618      3239.4378      4437.4878      1023.3103     -423.18925     -618.41267    
  11445000   264.25547     -349.00849     -271.57299     -349.00689      0              4325.4846      46.333979      20.047001      20.857         19373.177      6568.0034      3700.2223      2708.2281     -805.99148      184.77244     -2072.0656    
  11445500   265.3489      -347.10369     -269.34778     -347.0839       0              5696.7752      46.170186      20.047001      20.857         19304.692      6676.5201      5392.8708      5020.9347      675.65155     -449.00459     -683.90213    
  11446000   270.93472     -348.72676     -269.33401     -348.7213       0              2834.2266      46.280327      20.047001      20.857         19350.744      2048.8365      3647.6722      2806.171       1135.2905      1232.8848      214.16215    
  11446500   258.7979      -348.33129     -272.49503     -348.32871      0              3412.326       46.368102      20.047001      20.857         19387.445      5298.8501      3860.8496      1077.2783      301.26551      1188.7752     -751.13304    
  11447000   273.92301     -348.96598     -268.69757     -348.95531      0              6803.1004      46.198793      20.047001      20.857         19316.653      6456.5681      7519.6329      6433.1001     -548.89733      322.33005     -418.48245    
  11447500   270.09557     -344.9823      -265.83545     -344.98899      0              3478.7197      46.211951      20.047001      20.857         19322.155      3364.1102      4555.758       2516.2909      648.26673     -565.4705       1793.2077    
  11448000   266.2154      -348.65914     -270.64931     -348.68153      0              3090.5442      46.541794      20.047001      20.857         19460.069      634.8881       3875.697       4761.0475     -1665.5184     -1154.3157      367.51934    
  11448500   267.96891     -347.46499     -268.94132     -347.48664      0              3999.3043      46.508532      20.047001      20.857         19446.161      5871.9132      4536.6424      1589.3572      1096.7222     -61.853519     -379.03237    
  11449000   272.97283     -347.40828     -267.41831     -347.41657      0              3657.9482      46.360602      20.047001      20.857         19384.309      4738.4243      2329.2759      3906.1445     -318.35091     -681.74957     -657.79585    
  11449500   266.18701     -348.38757     -270.38606     -348.43876      0              4542.4444      46.335553      20.047001      20.857         19373.835      5177.2308      4488.3588      3961.7437      1560.1391      1086.9981     -623.46712    
  11450000   261.67887     -347.50142     -270.82095     -347.50308      0              5373.4506      46.18193       20.047001      20.857         19309.602      6302.5947      3398.5069      6419.2503      702.04748      1678.7868     -780.71081    
  11450500   264.95696     -347.08696     -269.44589     -347.08403      0              4179.571       46.180465      20.047001      20.857         19308.99       4303.9851      3476.3159      4758.412      -3184.1525      1871.9008      1478.4567    
  11451000   268.31267     -350.33948     -271.71508     -350.35569      0              4262.9049      46.439855      20.047001      20.857         19417.446      5279.9429      3826.7188      3682.0529      6.6279523      1495.8302      1409.7387    
WARNING: Wall time limit reached (../timer.cpp:193)
Loop time of 85809 on 4 procs for 3834000 steps with 2268 atoms

Performance: 1.930 ns/day, 12.434 hours/ns, 44.681 timesteps/s
967.8% CPU use with 4 MPI tasks x no OpenMP threads

MPI task timing breakdown:
Section |  min time  |  avg time  |  max time  |%varavg| %total
---------------------------------------------------------------
Pair    | 48352      | 48550      | 48663      |  57.7 | 56.58
Bond    | 0.42444    | 0.46939    | 0.50548    |   5.1 |  0.00
Neigh   | 1272.1     | 1284.6     | 1304.5     |  35.4 |  1.50
Comm    | 4931.2     | 5068       | 5229.2     | 153.1 |  5.91
Output  | 1182.3     | 1182.4     | 1182.5     |   0.2 |  1.38
Modify  | 29645      | 29713      | 29761      |  26.7 | 34.63
Other   |            | 11.33      |            |       |  0.01

Nlocal:            567 ave         586 max         554 min
Histogram: 2 0 0 0 0 1 0 0 0 1
Nghost:        3728.25 ave        3783 max        3675 min
Histogram: 1 0 1 0 0 0 0 1 0 1
Neighs:              0 ave           0 max           0 min
Histogram: 4 0 0 0 0 0 0 0 0 0
FullNghs:       141886 ave      146847 max      137495 min
Histogram: 1 1 0 0 0 0 0 1 0 1

Total # of neighbors = 567546
Ave neighs/atom = 250.24074
Ave special neighs/atom = 0
Neighbor list builds = 383400
Dangerous builds not checked

unfix		4
unfix		3
unfix		1

write_data	data.final.${pid}
write_data	data.final.0
System init for write_data ...
Generated 0 of 1 mixed pair_coeff terms from geometric mixing rule
write_restart	restart.lmp.${pid}
write_restart	restart.lmp.0
System init for write_restart ...
Generated 0 of 1 mixed pair_coeff terms from geometric mixing rule
Total wall time: 23:50:29
