LAMMPS data file via write_data, version 29 Sep 2021, timestep = 400000

1920 atoms
2 atom types

-0.13708125082654554 24.861486250824967 xlo xhi
-0.04847772996924071 24.772882729967066 ylo yhi
0.05111126472336025 22.74126073527583 zlo zhi

Masses

1 1.008
2 15.999

Atoms # full

4 0 1 0 2.798733718313737 1.2894623991011327 2.348233092198209 0 0 0
5 0 2 0 3.3586999731503595 1.327478488966055 3.070557098810698 0 0 0
6 0 2 0 2.8590894955258417 2.1726545296300133 1.8873441722964994 0 0 0
17 0 2 0 0.8614256093895406 1.624531375862499 2.5182358450701456 0 0 0
11 0 2 0 2.8403473259513725 3.6783778806516323 4.422288020444335 0 0 0
99 0 2 0 0.10606229520542215 3.7082170031332016 4.3325354501295505 1 0 0
1455 0 2 0 1.3463038084056203 3.220650376769096 0.13278171478212047 0 0 1
387 0 2 0 3.931904200802081 0.17724907719353664 1.3476699905086886 0 1 0
16 0 1 0 -0.06502656997732775 1.5438502563583258 2.307756786562669 0 0 0
1 0 1 0 4.523439591615553 1.2515752548365782 4.379115711862394 0 0 0
19 0 1 0 4.475984169319133 3.3467370945990114 1.146199933244813 0 0 0
2 0 2 0 5.43082534458012 1.223227208426971 4.042601005480957 0 0 0
46 0 1 0 6.37639945218759 1.5165524217320219 2.2269414179741287 0 0 0
47 0 2 0 7.314652632748153 1.3693480730323195 1.9277229421909654 0 0 0
48 0 2 0 6.0196750690916945 2.2627160195288973 1.7316729890286058 0 0 0
386 0 2 0 5.422833243717738 0.3366771862087008 1.4780121912214672 0 1 0
54 0 2 0 7.443396707660941 3.8635037375343257 0.3133239746726064 0 0 0
45 0 2 0 7.142257762442629 3.0656110315384755 4.465765756800441 0 0 0
20 0 2 0 4.402272554671239 2.695544968052885 0.45066399004735846 0 0 0
32 0 2 0 11.716330304341515 1.251199725297122 3.6680992173034084 0 0 0
34 0 1 0 9.143191950582803 1.143752479251899 1.8778816350694842 0 0 0
35 0 2 0 9.392532294144333 1.047406899962595 2.7834221864104434 0 0 0
36 0 2 0 9.60339168334955 1.9702769144081427 1.5729592573883262 0 0 0
51 0 2 0 11.64173516430466 2.718142600177608 1.5363380118665881 0 0 0
49 0 1 0 10.812134488485107 3.0305410918045705 1.0470911856664826 0 0 0
31 0 1 0 10.844499233384465 1.3706138104545929 4.080432223965088 0 0 0
42 0 2 0 8.86001118366117 3.77157118995703 3.939261195922517 0 0 0
50 0 2 0 10.822542265704906 4.0017133623581405 0.893439970014043 0 0 0
78 0 2 0 12.53207489660233 0.34892496225304764 1.913231749552205 0 0 0
76 0 1 0 12.765611786638795 1.2466818796921877 2.2034626940597923 0 0 0
64 0 1 0 15.578519867585266 1.1080978031264845 1.8500601756010548 0 0 0
65 0 2 0 15.751493137674718 0.8914736684742153 2.748591017801823 0 0 0
66 0 2 0 15.759530475210678 0.3351696958448966 1.324065801038065 0 0 0
77 0 2 0 13.72444638418249 1.3528065272176286 2.0901992312382025 0 0 0
38 0 2 0 12.726224708536753 3.6755018017106176 4.203706792749118 0 0 0
1514 0 2 0 13.594923283023073 3.1565408449877466 0.29190188466287365 0 0 1
80 0 2 0 16.48806144514827 2.870220287866608 1.0415565168263796 0 0 0
75 0 2 0 14.644246402700393 3.0257646079294473 4.484046691893632 0 0 0
79 0 1 0 17.28815578656726 3.2973055376070075 0.7421539122850935 0 0 0
62 0 2 0 17.47787590156978 1.484645808698873 3.4790766887207814 0 0 0
106 0 1 0 18.6992868148494 1.3462483656544357 2.0554339944481304 0 0 0
107 0 2 0 19.667490906049657 1.3869547475506454 2.1812519270759867 0 0 0
108 0 2 0 18.425902596353723 2.144245999458327 1.5489307831757484 0 0 0
61 0 1 0 16.872811395228183 1.5216937688842076 4.230483682280909 0 0 0
68 0 2 0 18.62083201966184 3.804188420341541 4.296206990391873 0 0 0
118 0 1 0 19.90755779952743 0.17328496559952528 4.557090336620613 0 0 0
18 0 2 0 24.80005753850085 0.613873459986546 2.0766352542715896 -1 0 0
92 0 2 0 24.003747732606442 1.7764765580809259 3.7786769194795427 0 0 0
94 0 1 0 21.447957652879403 1.507444466044335 2.0273244955133856 0 0 0
95 0 2 0 22.08569661201465 1.4698674520148995 2.7661244729977055 0 0 0
96 0 2 0 21.777421516849166 2.1420638049635343 1.3909929167998687 0 0 0
109 0 1 0 23.12655483636656 3.3803758831170128 0.5059774317187087 0 0 0
110 0 2 0 23.764286433693414 2.9864140809135136 1.107825295059455 0 0 0
91 0 1 0 23.15181530513395 1.6446541961646763 4.223232671531072 0 0 0
105 0 2 0 20.74178422419186 3.149930701072679 4.535962728296611 0 0 0
10 0 1 0 3.0098185222537377 4.212158850179177 3.6484026774100857 0 0 0
22 0 1 0 1.341864903284529 4.433704139784821 1.5244423343998994 0 0 0
23 0 2 0 1.275193849040406 5.232905097066862 1.0119240203512416 0 0 0
24 0 2 0 2.03420601861898 4.491458234181355 2.2274124408170604 0 0 0
124 0 1 0 2.714040331917302 7.618939443666497 2.1638379863287573 0 0 0
126 0 2 0 1.7632122552760507 7.893749534313511 2.3496124780670784 0 0 0
122 0 2 0 3.844016074401874 7.387047052712057 3.6139959306663494 0 0 0
136 0 1 0 -0.02935366082831385 7.8579813377333405 2.3602164782740283 0 0 0
149 0 2 0 2.078660315074261 5.586968272309196 4.5271866599323465 0 0 0
150 0 2 0 0.5808205888281311 5.875455775873548 4.575451130531967 0 0 0
98 0 2 0 0.16438732708018028 4.180688980961774 2.8205120935504824 1 0 0
27 0 2 0 3.8300743001737008 6.254496683417655 1.2717049840621995 0 0 0
12 0 2 0 3.9554337964842023 4.356484044999566 3.6075797725211207 0 0 0
21 0 2 0 4.434795495624901 4.1365915209430995 0.6527502459809073 0 0 0
25 0 1 0 4.5791269202498 6.039518777806428 0.658624772462035 0 0 0
8 0 2 0 6.151318800143732 4.377412435235619 2.793787251958274 0 0 0
52 0 1 0 7.5112600073762765 4.606475509394933 0.9948459688595903 0 0 0
7 0 1 0 5.870262189869452 4.246925392988908 3.7073227388543533 0 0 0
166 0 1 0 6.288499012354237 7.779042984042045 1.8663593166583667 0 0 0
168 0 2 0 5.920430082256015 7.028762234587301 1.3278831936987376 0 0 0
167 0 2 0 5.894540120909837 7.614258430154926 2.754168901042905 0 0 0
121 0 1 0 4.718252309187257 7.392790114047973 4.046587523231667 0 0 0
9 0 2 0 6.303637865768218 5.0025210370828255 4.198733163813609 0 0 0
156 0 2 0 8.099716946261028 7.654207296465651 2.1369710559945854 0 0 0
53 0 2 0 8.335459812993195 4.372507429362082 1.5224107570747678 0 0 0
180 0 2 0 8.200234717549025 5.8320491307108995 4.189243233507345 0 0 0
40 0 1 0 9.185479577338091 4.391092293510289 3.242807943787881 0 0 0
41 0 2 0 10.153699098953174 4.250781176971724 3.1526151402134985 0 0 0
55 0 1 0 10.752865574575491 5.837828105376324 0.8036538584112127 0 0 0
56 0 2 0 10.039095007157055 6.36952399709249 1.327457477414421 0 0 0
57 0 2 0 11.505405091308631 6.1459746163441 1.3345822855054246 0 0 0
152 0 2 0 9.90241799984386 7.515595088640078 3.752375418623939 0 0 0
154 0 1 0 9.077503929827381 7.630476397966146 2.0775794704550945 0 0 0
153 0 2 0 11.376522887472538 7.431844748587905 4.06433757988253 0 0 0
151 0 1 0 10.580003548999949 7.74475629299315 4.433352902715328 0 0 0
37 0 1 0 12.160941389312212 4.280298390616914 3.674468880914958 0 0 0
197 0 2 0 12.248112475841598 8.20750654414981 2.0494755773039004 0 0 0
196 0 1 0 12.577944846861346 7.413345981825659 2.3941112354799308 0 0 0
39 0 2 0 12.483617003832219 5.175743434964487 3.924973799812872 0 0 0
82 0 1 0 13.959160819229938 4.3380294950461415 1.6170566764562404 0 0 0
72 0 2 0 15.231109278374708 4.421589302299419 2.941831176399301 0 0 0
83 0 2 0 13.189605483759028 4.2817948598369915 2.250257677481046 0 0 0
70 0 1 0 15.695313130824387 4.381912609774774 3.8209786522492877 0 0 0
84 0 2 0 13.742381365256318 5.175333431707936 1.1325476068061362 0 0 0
186 0 2 0 15.815823282596988 7.502656621742007 3.1896699385272624 0 0 0
184 0 1 0 15.285207199408587 7.326272175556732 2.4058274530486354 0 0 0
198 0 2 0 13.498933202128741 7.453445374951851 2.585121605105593 0 0 0
71 0 2 0 15.25626013634769 5.139997359186995 4.2372695937410745 0 0 0
86 0 2 0 16.283747592536066 6.366374652790883 1.2376712325357235 0 0 0
185 0 2 0 15.307785901405119 8.154024041190675 1.8888448621930176 0 0 0
113 0 2 0 19.476961595092405 4.504129988814851 1.9602732143873534 0 0 0
69 0 2 0 17.296677556667994 4.511927004195173 3.6696722074618706 0 0 0
87 0 2 0 16.757765258102452 5.018900118604324 0.7258125521495511 0 0 0
112 0 1 0 20.185424163090147 4.41321174888828 1.3361434846475784 0 0 0
67 0 1 0 18.32109003539621 4.5323113237170505 3.740398305846848 0 0 0
85 0 1 0 16.978196286743888 5.9615243358046515 0.6722665971665066 0 0 0
226 0 1 0 18.67480388611699 7.593579568923414 2.2772958787971627 0 0 0
228 0 2 0 18.358076202517566 6.831777433049815 1.7746576910550946 0 0 0
183 0 2 0 17.608462197471276 8.005523423616342 3.8528665358462946 0 0 0
181 0 1 0 16.88900064059259 7.691268280289001 4.403540917822883 0 0 0
240 0 2 0 19.450379440117324 5.868181723207154 4.333354665926928 0 0 0
216 0 2 0 20.475750862984334 7.643757689052745 2.3755832778234796 0 0 0
137 0 2 0 24.64314054292867 7.820804166474864 3.260241079758744 -1 0 0
138 0 2 0 24.495438729448836 7.089733111421183 1.9826992220373683 -1 0 0
111 0 2 0 23.19256037342229 4.305404198739309 0.7929008961552817 0 0 0
114 0 2 0 21.033293830101606 4.367432283361842 1.844292854106529 0 0 0
97 0 1 0 24.657615535849402 4.276087528831034 3.675786725291031 0 0 0
102 0 2 0 23.07479175682093 4.359652426919408 3.380057456957025 0 0 0
100 0 1 0 22.107193760849547 4.494768932851642 3.2441611853353476 0 0 0
101 0 2 0 21.900782655287607 5.297886419699063 3.728636791531716 0 0 0
115 0 1 0 23.54787788397551 6.095676236301558 0.9409566520120058 0 0 0
116 0 2 0 22.69844368486494 6.250788427657344 1.4104502822803144 0 0 0
213 0 2 0 22.44871297628891 7.580548436977795 4.0812290502252955 0 0 0
214 0 1 0 21.452795625721464 7.605213718267746 2.206945153222902 0 0 0
211 0 1 0 23.266391965483933 7.7152597327331645 4.548910641040354 0 0 0
117 0 2 0 23.531503956792946 6.483562944546524 0.0681054420172533 0 0 0
125 0 2 0 3.1583112023193065 8.431538027477066 1.7837274874590539 0 0 0
130 0 1 0 2.9696751032970954 10.800446760722 3.615476233205606 0 0 0
142 0 1 0 1.2783188265984688 11.09074391855085 1.637482902848854 0 0 0
143 0 2 0 2.135091744589912 11.009172382663733 2.0595972719508624 0 0 0
144 0 2 0 1.251121306335069 10.308955518062668 1.0234510996527506 0 0 0
132 0 2 0 2.71921477684543 11.567594453463588 4.131989021676087 0 0 0
219 0 2 0 0.20112144323447828 10.84131530866586 3.0867886544309138 1 0 0
218 0 2 0 0.2558893139477649 10.303710170889584 4.529640973707744 1 0 0
131 0 2 0 3.8737606421460384 10.55238453539501 3.788183485966067 0 0 0
1709 0 2 0 1.1441492693684088 12.269859121026037 0.2282824973726931 0 0 1
139 0 1 0 4.44699608115837 9.584596541250805 0.8627825053031474 0 0 0
127 0 1 0 5.771744241176063 10.569319462909052 3.6739542509350116 0 0 0
129 0 2 0 6.397714235405371 10.652405989282762 2.8767118481149785 0 0 0
140 0 2 0 5.245653689925267 9.15707357367703 1.2182744189259254 0 0 0
141 0 2 0 4.52483568500135 10.58369229257094 1.0091119584417998 0 0 0
172 0 1 0 7.641716261279387 10.956906608197734 1.5882715567911443 0 0 0
173 0 2 0 7.543428253303954 10.243868295771591 0.9793528690113739 0 0 0
145 0 1 0 4.387789813157147 12.282775401410936 0.9751981887194648 0 0 0
128 0 2 0 6.406134753080631 10.014672578505667 4.184211048158546 0 0 0
1740 0 2 0 7.700126262264919 12.173527168236717 0.23454908871476998 0 0 1
300 0 2 0 7.058427845982921 12.150194433655003 4.509062221411236 0 0 0
174 0 2 0 8.50775718011733 10.836940047491689 2.015917967189976 0 0 0
155 0 2 0 9.367573984898188 8.386091023957224 1.5615222368482624 0 0 0
160 0 1 0 9.424553125670595 10.55502746012639 3.8011270095615832 0 0 0
161 0 2 0 10.380635384678994 10.406694186862923 3.7096347552600024 0 0 0
169 0 1 0 10.910228274355056 9.477957914914393 0.8417860862718709 0 0 0
171 0 2 0 10.978018353399676 10.434885076622617 0.9918173716851055 0 0 0
162 0 2 0 9.25968680327604 11.355725355025417 4.322760155021296 0 0 0
157 0 1 0 12.114586097440021 10.752360068918978 3.781882329205045 0 0 0
165 0 2 0 8.384438269722624 9.160909412851757 4.513820208782619 0 0 0
175 0 1 0 11.009178526039378 12.09280776617196 1.3596933224656742 0 0 0
158 0 2 0 12.59400365595494 9.968140090167463 4.080524958488195 0 0 0
159 0 2 0 12.583007239827063 10.891818637102773 2.943495065721846 0 0 0
190 0 1 0 15.686316066344663 10.68474395748998 3.8076669143311928 0 0 0
192 0 2 0 15.322643923715415 10.600544782816353 2.9181325785629166 0 0 0
202 0 1 0 13.759330753588648 10.762789680822868 1.6016232057098565 0 0 0
203 0 2 0 13.937855439794665 11.618441560715272 1.1941770487524295 0 0 0
204 0 2 0 13.857364967806166 10.098895421714538 0.8960393018793573 0 0 0
194 0 2 0 14.755328610379362 9.450972517131348 4.499171196362938 0 0 0
227 0 2 0 18.315244703786924 8.377712773070108 1.7635557088955565 0 0 0
191 0 2 0 16.667690794259983 10.88638723099842 3.751243649729152 0 0 0
200 0 2 0 16.937459387302667 10.073625398166996 0.6240387315528223 0 0 0
187 0 1 0 18.370205618135593 10.92803839359687 3.607404575831268 0 0 0
189 0 2 0 18.80151368435763 10.938315625582279 2.7484832477786916 0 0 0
199 0 1 0 17.073568790061046 9.123054259694822 0.7924005003185471 0 0 0
232 0 1 0 20.174618097929496 10.814917942743852 1.4814550869688914 0 0 0
234 0 2 0 19.981129207330994 10.091409399658717 0.8733155374027446 0 0 0
188 0 2 0 18.77261765060615 10.212507026624783 4.115823944434008 0 0 0
205 0 1 0 17.038834000492514 12.074707651046904 0.8691811646897384 0 0 0
1800 0 2 0 19.909976367851797 12.203289347389775 0.11916950270809552 0 0 1
233 0 2 0 21.0271380450695 10.568974088731284 1.883904055496651 0 0 0
215 0 2 0 21.682867805725294 8.352707719852015 1.603917496749252 0 0 0
217 0 1 0 24.762966445141245 10.82489151453598 3.922672280119154 0 0 0
220 0 1 0 21.96765883025524 10.810462884653464 3.4380844059487483 0 0 0
221 0 2 0 22.917613238550146 10.57533063789446 3.4886220425383745 0 0 0
222 0 2 0 21.673682464644664 11.405207856262642 4.1194525174232135 0 0 0
229 0 1 0 23.01652642026484 9.215598880608862 0.7938886438008304 0 0 0
230 0 2 0 23.6598155875922 8.855660607175166 1.4237791922281193 0 0 0
231 0 2 0 23.260221389062693 10.075099996948737 0.4818820788902028 0 0 0
235 0 1 0 23.231579424196276 11.986267364782075 0.7353421159901958 0 0 0
225 0 2 0 21.10232107914007 9.543920455264583 4.390571800996193 0 0 0
237 0 2 0 22.49373431848496 12.307854461667981 1.2675163171560984 0 0 0
244 0 1 0 3.05592348003295 13.896727974838972 2.521596695620408 0 0 0
245 0 2 0 2.1009770963451584 13.92520716720558 2.4852775231495197 0 0 0
246 0 2 0 3.38900064015187 13.301718332338355 1.8322180137601236 0 0 0
256 0 1 0 0.2518906350447574 13.814666453632134 1.9952447142682987 0 0 0
242 0 2 0 3.947392773797832 13.95903687081389 4.158595699563224 0 0 0
260 0 2 0 3.773724157474444 15.200802566016604 1.3389891790623436 0 0 0
251 0 2 0 3.3568432240585873 16.441385002032057 4.365083416091284 0 0 0
255 0 2 0 0.9474737692580522 15.18408420872702 4.44011210675249 0 0 0
1694 0 2 0 1.7037535233847478 15.770904507600463 0.07531491399109522 0 0 1
147 0 2 0 5.173945820275562 12.564928552005556 1.5073215168242498 0 0 0
259 0 1 0 4.54114871873405 15.631057637765819 0.8887528921455382 0 0 0
286 0 1 0 6.1561497769207145 13.636888288334797 2.3047092509519547 0 0 0
287 0 2 0 5.736473944864171 13.795769167700836 3.169772376568042 0 0 0
288 0 2 0 6.056088910602441 14.41317111012627 1.7689297864345057 0 0 0
276 0 2 0 8.015940613921495 13.419179932268996 2.508138864432888 0 0 0
248 0 2 0 6.45914520730951 16.203027559003743 4.033085281786548 0 0 0
1725 0 2 0 7.638081221686772 15.61582240441163 0.3575661490180668 0 0 1
176 0 2 0 10.211449029240654 12.572566675081127 1.5572827298793628 0 0 0
272 0 2 0 11.481068914422558 14.325426543010437 3.944687946310195 0 0 0
274 0 1 0 8.954998729309548 13.561028421028615 2.4121037929774354 0 0 0
275 0 2 0 9.334387305320648 13.72977825445602 3.3326610466027007 0 0 0
289 0 1 0 10.830146084424895 15.258172066240748 0.934435934458878 0 0 0
291 0 2 0 9.960669158042721 15.022312210727815 1.228673484708176 0 0 0
271 0 1 0 10.72331981423351 14.123723574215353 4.468713509590236 0 0 0
281 0 2 0 9.259745462543735 16.1915636304901 3.971492542291939 0 0 0
177 0 2 0 11.16608436927055 12.407237359685116 0.43110997079234337 0 0 0
317 0 2 0 12.32632435834804 14.646775530690759 1.9968284234461227 0 0 0
318 0 2 0 12.285280080193912 13.10763769002991 2.0888802822951327 0 0 0
290 0 2 0 10.89693308729172 16.21314642396488 0.7949952018053253 0 0 0
316 0 1 0 12.694615727589152 13.909841613545916 2.491509541449078 0 0 0
304 0 1 0 15.46990811141492 13.986036395875283 2.1950917564283663 0 0 0
305 0 2 0 14.537420779736259 14.142729515221987 2.197131590062013 0 0 0
306 0 2 0 15.692264453119138 13.18079815499484 1.6666118438205195 0 0 0
311 0 2 0 15.375035164733832 16.067885264123753 4.138634054783975 0 0 0
1754 0 2 0 14.364358339424149 15.799070908517335 0.11673199021140822 0 0 1
302 0 2 0 16.53280133019232 13.710940282906002 3.7170049177264515 0 0 0
320 0 2 0 16.545050514379334 15.191370424318096 1.5074138107341204 0 0 0
207 0 2 0 17.703046511839233 12.692644554117994 1.253756636534634 0 0 0
319 0 1 0 17.251996798081414 15.450548774777387 0.8091022865171836 0 0 0
346 0 1 0 18.842507565245896 13.711533222690747 2.054479123366316 0 0 0
347 0 2 0 18.6154060298054 14.525312032091312 1.551959531267381 0 0 0
348 0 2 0 18.39214309410508 13.773091827600444 2.9125972033763508 0 0 0
301 0 1 0 17.31799143319529 13.785407587348045 4.290398193488065 0 0 0
309 0 2 0 18.838375833401415 16.372889438404428 4.20473326454588 0 0 0
321 0 2 0 17.256113221025245 16.428676046043883 0.798039887316282 0 0 0
1784 0 2 0 20.014100098976378 15.803528386249722 0.06449486052080611 0 0 1
257 0 2 0 24.72214864226286 14.234811307406462 2.673941459354297 -1 0 0
345 0 2 0 20.8244041535975 14.998830858569946 4.458696434384131 0 0 0
335 0 2 0 20.708065503736044 13.660426138659753 2.3631860246081544 0 0 0
258 0 2 0 24.84864300379995 12.941783993903053 1.7980270679902077 -1 0 0
332 0 2 0 22.719373869278286 13.430479025345797 3.6809769908495147 0 0 0
334 0 1 0 21.733958485869735 13.628991259429458 2.384638805103822 0 0 0
336 0 2 0 22.036667623596735 14.286015831913678 1.7745743775960117 0 0 0
349 0 1 0 23.116052354576027 15.577467144766796 0.7336715663011142 0 0 0
350 0 2 0 24.03123185943518 15.45334611943812 1.0677610681869043 0 0 0
331 0 1 0 23.48152416679455 13.455493416267478 4.262420118093466 0 0 0
264 0 2 0 0.9469584673551299 16.988450781529437 2.1569879085584054 0 0 0
263 0 2 0 2.4546605480807226 17.06993034964399 2.01720244249904 0 0 0
262 0 1 0 1.6601670622823461 16.786663842789466 1.5184021030172887 0 0 0
250 0 1 0 3.4697171117146492 17.153400953607054 3.688842977416419 0 0 0
364 0 1 0 2.9514597261113606 20.22499201140942 2.109052826135549 0 0 0
366 0 2 0 1.9803770653147277 20.32662941525001 2.2013050411033053 0 0 0
267 0 2 0 3.9537068776643425 18.56410416941104 1.5488412299027523 0 0 0
363 0 2 0 4.022252845037759 20.36178553251667 3.56432683417538 0 0 0
1829 0 2 0 1.261151465233131 18.505849082176518 0.21877032849011246 0 0 1
376 0 1 0 0.18589067585968982 20.089287690563793 2.263655810790474 0 0 0
338 0 2 0 -0.0652630223238875 17.642088823738973 3.9651891397559074 1 0 0
390 0 2 0 2.036492985851714 18.097711144963405 4.4413201995928215 0 0 0
252 0 2 0 4.39125309502121 17.010941667561212 3.287815740181467 0 0 0
247 0 1 0 6.136216091160343 17.028987957314115 3.650009337486339 0 0 0
249 0 2 0 6.602618225559635 17.0261288354939 2.776183317698482 0 0 0
265 0 1 0 4.589374920322534 18.39212877778577 0.8602625271499282 0 0 0
266 0 2 0 4.7244627298265796 17.390088202410205 0.8329185272445295 0 0 0
408 0 2 0 6.130873565243139 19.22528933247721 1.5910953476162482 0 0 0
292 0 1 0 7.95502837050215 16.855956760953333 1.5702175202757278 0 0 0
406 0 1 0 6.60910998850794 20.023439567096133 1.984306855539161 0 0 0
407 0 2 0 6.378837899839465 20.142582987856947 2.9221710243660377 0 0 0
361 0 1 0 4.71467836960733 20.111849683618317 4.20958837250343 0 0 0
294 0 2 0 7.9563276046218725 17.636615346825096 0.9945586189212873 0 0 0
395 0 2 0 8.305759743851556 20.105188327784056 2.222242713372972 0 0 0
293 0 2 0 8.65987938028688 16.90536712183477 2.2400958205011996 0 0 0
278 0 2 0 11.39923471364503 16.723015960956985 3.419087302719928 0 0 0
280 0 1 0 9.745707813250037 16.906753318374165 3.5037705039919365 0 0 0
295 0 1 0 11.273480320588817 18.116839973569718 0.956110879895975 0 0 0
296 0 2 0 10.458362383592393 18.420342532985245 1.4255457954560469 0 0 0
282 0 2 0 9.372011837939903 17.719630668277127 3.873494015360338 0 0 0
396 0 2 0 9.5066583164926 20.0725753731914 3.2113298162601773 0 0 0
393 0 2 0 11.811877556804015 20.178759982951732 3.8994042064830765 0 0 0
394 0 1 0 9.228746241480666 19.817706246610122 2.32306750241351 0 0 0
391 0 1 0 10.91161870041028 20.10685213704867 4.363132335426902 0 0 0
297 0 2 0 11.17181714977392 18.456283473401157 0.06121685787159592 0 0 0
437 0 2 0 12.452365093308076 19.416876329660916 1.860112004786692 0 0 0
277 0 1 0 12.392942295704513 16.826098754131415 3.405432699248722 0 0 0
279 0 2 0 12.721534508491752 17.535575448800707 4.039817814414437 0 0 0
436 0 1 0 12.83670210620239 20.20575765304654 2.279610712189289 0 0 0
323 0 2 0 13.49198764699135 16.782546593517992 1.8470264814757618 0 0 0
324 0 2 0 15.017273678546443 17.04034170325494 2.17827465420074 0 0 0
310 0 1 0 15.913314009244663 16.75983286932388 3.7212714402477807 0 0 0
312 0 2 0 15.507434708714293 17.566104136569713 4.021951201117163 0 0 0
322 0 1 0 14.350588950234835 17.12380055440142 1.4757054879939377 0 0 0
424 0 1 0 15.512378781896375 20.10025629220297 1.9472466508944886 0 0 0
425 0 2 0 14.570784565377004 20.139335975837028 2.201071733124674 0 0 0
423 0 2 0 16.400027170419158 20.070251362417743 3.6189472072292888 0 0 0
326 0 2 0 16.483257708456854 18.602252418048288 1.121028158206006 0 0 0
353 0 2 0 19.70628899556511 16.935319586857105 1.9220973811827458 0 0 0
325 0 1 0 17.24575891683331 18.15306719403896 0.7394878968940871 0 0 0
352 0 1 0 20.425856262904702 17.062194778176732 1.282100867076917 0 0 0
308 0 2 0 17.613925258894753 16.944815190141924 3.3838433699542723 0 0 0
307 0 1 0 18.53846771371709 16.664362857953783 3.3166843685092955 0 0 0
468 0 2 0 18.47221736572564 19.403385117278212 1.95561721264319 0 0 0
467 0 2 0 18.608612715900698 20.043833304140776 3.188934898433409 0 0 0
466 0 1 0 19.01874676063248 20.10064502570262 2.3121883616978827 0 0 0
421 0 1 0 17.03508108888419 20.01850918269411 4.358258993987427 0 0 0
354 0 2 0 20.10651094769571 17.75329083504883 0.695413380552405 0 0 0
480 0 2 0 19.599572662047485 18.29923011875355 4.4678319121109995 0 0 0
455 0 2 0 20.738107573759272 20.281734215390735 2.2323092209281015 0 0 0
351 0 2 0 23.021372899413286 16.557536153798992 0.7705580042103077 0 0 0
378 0 2 0 24.78612562178214 20.158783997277098 3.177149588733172 -1 0 0
337 0 1 0 24.608003350082733 17.043634139496383 3.2980109064133862 0 0 0
342 0 2 0 21.676978005290323 16.81035411152591 2.6219139085739234 0 0 0
340 0 1 0 21.971086661288304 16.772349415672302 3.504194548982192 0 0 0
339 0 2 0 23.683727260091715 16.88847661491591 3.372437534812153 0 0 0
355 0 1 0 23.261947203828427 18.275397384900863 1.0121566050579371 0 0 0
356 0 2 0 23.91781982108077 18.664199096321 1.5665188805208405 0 0 0
456 0 2 0 21.82033938567951 19.444108188815896 1.5584896688345165 0 0 0
453 0 2 0 22.686386378005665 20.12379857266866 3.6719224919491724 0 0 0
341 0 2 0 21.386694441084792 17.417025839215924 4.00893494195274 0 0 0
451 0 1 0 23.229054832294764 20.333578349519577 4.388820241070819 0 0 0
454 0 1 0 21.710230720722883 20.157211963520638 2.209652263975737 0 0 0
357 0 2 0 23.276995793477916 18.844485383989237 0.24047853290037172 0 0 0
365 0 2 0 3.2975843591566254 20.842395887915146 1.4399845893798509 0 0 0
370 0 1 0 3.2244182506414014 23.018332867049438 3.7914401645317564 0 0 0
371 0 2 0 2.6009988895126557 23.169233026924537 3.0489411973375837 0 0 0
382 0 1 0 1.622605290159417 23.36431475282255 1.6051310320867298 0 0 0
383 0 2 0 1.6921884583777669 22.545733880296503 1.0216074263980057 0 0 0
384 0 2 0 1.508470459308934 24.084901912328554 0.9316423966536876 0 0 0
459 0 2 0 0.2944474115821192 23.04732669515633 3.0489612583426435 1 0 0
372 0 2 0 2.7353621869662224 23.534802604898047 4.481752572111795 0 0 0
458 0 2 0 -0.007399053138092165 22.41783454511865 4.3520790989110525 1 0 0
374 0 2 0 2.252362089399324 21.637130362017892 4.516895708161131 0 0 0
60 0 2 0 7.1545994387891 24.43103992551857 4.519864920309522 0 -1 0
385 0 1 0 4.726026333579922 24.665310505509247 0.9632350496544337 0 0 0
381 0 2 0 4.734246962620883 22.546322844071064 1.2130122476820377 0 0 0
367 0 1 0 5.934190248271818 23.206560331878308 4.046692129525163 0 0 0
368 0 2 0 4.976884863090829 23.11837217735671 3.94607001683683 0 0 0
379 0 1 0 4.833000204830282 21.72148216757251 0.7413689099571316 0 0 0
380 0 2 0 5.506410625069756 21.21749221150852 1.2053227954603762 0 0 0
412 0 1 0 7.834151231293868 23.26162816025154 1.580039806251822 0 0 0
414 0 2 0 6.97051533213541 23.37328255763321 2.0786699724630524 0 0 0
369 0 2 0 6.38340833380901 22.377077681122152 4.26283044040893 0 0 0
413 0 2 0 7.8342020259019325 23.945579731860775 0.919349381615221 0 0 0
1845 0 2 0 7.960615833702029 21.845610573846706 0.3468344723919435 0 0 1
416 0 2 0 10.175469796055873 24.67579582819146 1.0927881452833559 0 0 0
415 0 1 0 10.942808799209311 24.146994411024323 0.8909855704394195 0 0 0
400 0 1 0 9.555735779847948 23.186896233248156 3.7468432327179 0 0 0
401 0 2 0 10.526056594309996 23.10250587215409 3.619913156438688 0 0 0
402 0 2 0 9.13947910626343 23.240107051226722 2.8486333628497897 0 0 0
409 0 1 0 10.900724655826627 21.428970195690525 0.8527528987879329 0 0 0
410 0 2 0 10.19292202089224 21.14434792628886 1.4455104774652565 0 0 0
411 0 2 0 10.886441498671253 22.440245773090027 0.8958179423246974 0 0 0
397 0 1 0 12.409131426397558 23.053463300249028 3.5835877156759497 0 0 0
438 0 2 0 12.415028984807835 20.922483097134233 1.8553162242147496 0 0 0
399 0 2 0 12.58052401533449 23.090691776456715 2.615255430718496 0 0 0
398 0 2 0 12.84830217542881 23.793997885686153 3.9654535070403125 0 0 0
426 0 2 0 15.707199219875822 20.70873751800608 1.182154372843437 0 0 0
430 0 1 0 15.85611591491548 23.057574782938545 3.422682296391302 0 0 0
431 0 2 0 15.40186612427245 22.559266086440765 4.11953585057377 0 0 0
442 0 1 0 13.878870620216203 22.969671579599996 1.159306320731465 0 0 0
443 0 2 0 14.586628595156476 22.855496072345332 1.755307413909127 0 0 0
444 0 2 0 14.185543476603964 23.75416180045673 0.5914561004970705 0 0 0
435 0 2 0 13.353220154740102 21.66520723278356 4.294025904675171 0 0 0
90 0 2 0 14.83207615891031 24.59043469208151 4.450571616375603 0 -1 0
446 0 2 0 17.777082849155583 24.763490608712125 1.027784178271629 0 0 0
432 0 2 0 16.788591725799527 22.867043583722918 3.2354186092081996 0 0 0
445 0 1 0 17.223255897231454 24.368984123573107 0.27611713630591217 0 0 0
427 0 1 0 18.503187585415695 23.09304306800029 3.0861445010711717 0 0 0
428 0 2 0 18.83436940628102 22.44627823149431 3.7406519845813073 0 0 0
429 0 2 0 18.662173558483246 23.907613780029607 3.5619861956289958 0 0 0
439 0 1 0 17.266711776265858 21.5348465534652 0.490732851954007 0 0 0
440 0 2 0 17.845962457561548 21.211307788280813 1.173268930638986 0 0 0
447 0 2 0 17.490557846306032 23.462931690580866 0.41249257899668756 0 0 0
474 0 2 0 19.93266648873417 23.09173855748992 1.7211684171675763 0 0 0
473 0 2 0 20.407065348664425 24.017866339968272 0.6376566315185935 0 0 0
1905 0 2 0 20.493836365594696 21.759335819531216 0.09464631254658061 0 0 1
476 0 2 0 22.859152770857683 24.735472185443392 1.0851486093255613 0 0 0
472 0 1 0 20.765822738435283 23.36070360014721 1.3245245147700653 0 0 0
457 0 1 0 24.744064403487236 23.217269953069405 3.841870281743533 0 0 0
377 0 2 0 24.630060333066474 20.757288961759514 1.7702950430754483 -1 0 0
475 0 1 0 23.511424780826232 24.507734709633972 0.4010867880327782 0 0 0
460 0 1 0 22.062966676911905 23.44366021913718 3.865757939837956 0 0 0
461 0 2 0 21.732956767541808 23.39933908397657 2.9544958041690657 0 0 0
462 0 2 0 23.013587832980903 23.340134205243523 3.709825475763749 0 0 0
469 0 1 0 23.537913265503207 21.855148557390315 0.783748450515827 0 0 0
471 0 2 0 22.635034309562435 21.65815280788157 1.1353602766566648 0 0 0
477 0 2 0 23.79120869018483 23.59744763279228 0.4257291349561685 0 0 0
120 0 2 0 20.795476583920205 24.691692105138664 4.284615384852601 0 -1 0
13 0 1 0 1.459459857170832 2.89531021307483 5.446467439891835 0 0 0
14 0 2 0 1.3800469236714705 1.8938253476631024 5.516257058067515 0 0 0
15 0 2 0 1.4573100621652806 3.2113918104920436 6.374383468034062 0 0 0
484 0 1 0 2.8612835792455718 1.3511211376116454 7.813222680221035 0 0 0
485 0 2 0 1.912058019161618 1.4602888761973494 7.740425284409822 0 0 0
486 0 2 0 3.20552084163068 2.0333757268515353 7.219418875016803 0 0 0
496 0 1 0 -0.036901299757156475 1.7245794534765813 7.717100791525872 0 0 0
28 0 1 0 1.486350912630082 0.17471043800841923 5.371513333168487 0 0 0
3 0 2 0 4.390963218508662 0.4859718628610037 4.998937751523845 0 0 0
43 0 1 0 7.9611945571636245 2.826206473543526 4.914056152804591 0 0 0
44 0 2 0 8.126237019356074 1.9031988050539606 4.9077290170709835 0 0 0
500 0 2 0 4.99555148008868 2.5257418841787374 5.7120745386547895 0 0 0
499 0 1 0 4.9353835478790495 3.069719627612291 6.5187532679299265 0 0 0
501 0 2 0 5.579557003880449 2.666270171254225 7.120233453161061 0 0 0
526 0 1 0 6.362195410429984 1.011422851261217 8.028182745977157 0 0 0
527 0 2 0 7.291490136379123 1.1308390582389323 8.178451558047422 0 0 0
528 0 2 0 5.87505597636207 1.3047969947950377 8.831897300031436 0 0 0
58 0 1 0 7.761765346558264 0.06324771348179127 5.154729321365748 0 0 0
867 0 2 0 5.174527918083325 -0.0004407033414176101 6.983494808844308 0 1 0
534 0 2 0 7.817752131757469 4.07065831836608 6.410464423612843 0 0 0
33 0 2 0 10.842246387224499 2.083822714668887 4.728983063736272 0 0 0
514 0 1 0 9.180164287205008 1.3333017235844222 7.9684944654502 0 0 0
516 0 2 0 9.586017087644093 0.6324344925187508 7.456175879933456 0 0 0
529 0 1 0 10.736944438827082 2.7547350610942933 6.2777836683317565 0 0 0
531 0 2 0 10.066023750213864 2.452594398014442 6.884228749296011 0 0 0
515 0 2 0 9.604238830747212 1.3552731362324837 8.86571093717617 0 0 0
558 0 2 0 12.213072661698689 2.13999141284187 7.025379774034905 0 0 0