LAMMPS (29 Sep 2021 - Update 2)
  using 1 OpenMP thread(s) per MPI task
echo both

include		in.partitions
variable        pid world 0
include		in.temp
variable        temperature equal 270
variable        tempDamp equal 0.100 # this is 0.1 ps
include		in.pressure
variable        pressure equal 9119.25
variable        pressureDamp equal 1.0 #this is 1ps
include		in.seed
variable        seed world 745823

units           metal
atom_style	full
include		in.box
read_data       iceVI.data
Reading data file ...
  orthogonal box = (0.0000000 0.0000000 0.0000000) to (24.724405 24.724405 22.792372)
  1 by 1 by 1 MPI processor grid
  reading atoms ...
  1920 atoms
Finding 1-2 1-3 1-4 neighbors ...
  special bond factors lj:    0        0        0       
  special bond factors coul:  0        0        0       
     0 = max # of 1-2 neighbors
     0 = max # of 1-3 neighbors
     0 = max # of 1-4 neighbors
     1 = max # of special neighbors
  special bonds CPU = 0.002 seconds
  read_data CPU = 0.027 seconds
include 	in.setup
variable	out_freq equal 500
variable	out_freq2 equal 500

timestep        0.0005

neigh_modify    delay 7 every 1

include         in.deepmd
# This is deepMD model

# create groups ###
#group ox type 2
#group hy type 1

mass 2 15.999
mass 1 1.008

pair_style      deepmd ../graph.pb
pair_coeff      * *

bond_style      none
angle_style     none
dihedral_style  none
improper_style  none
neigh_modify exclude none


neighbor        2.0 bin
neigh_modify    every 10 delay 0 check no

thermo          ${out_freq}
thermo          500
thermo_style 	custom step temp pe etotal epair emol press lx ly lz xy xz yz vol pxx pyy pzz pxy pxz pyz

restart 	${out_freq} restart.lmp.${pid} restart2.lmp.${pid}
restart 	500 restart.lmp.${pid} restart2.lmp.${pid}
restart 	500 restart.lmp.0 restart2.lmp.${pid}
restart 	500 restart.lmp.0 restart2.lmp.0


include         in.dump
dump            myDump all atom ${out_freq2} dump.water.${pid}
dump            myDump all atom 500 dump.water.${pid}
dump            myDump all atom 500 dump.water.0
dump            myDump2 all dcd ${out_freq2} dump.dcd
dump            myDump2 all dcd 500 dump.dcd
dump_modify     myDump append yes
dump_modify     myDump2 append yes


timer           timeout 03:55:00 every 1000
New timer settings: style=normal  mode=nosync  timeout=03:55:00

fix             2 all nph aniso ${pressure} ${pressure} ${pressureDamp}
fix             2 all nph aniso 9119.25 ${pressure} ${pressureDamp}
fix             2 all nph aniso 9119.25 9119.25 ${pressureDamp}
fix             2 all nph aniso 9119.25 9119.25 1
fix             3 all temp/csvr ${temperature} ${temperature} ${tempDamp} ${seed}
fix             3 all temp/csvr 270 ${temperature} ${tempDamp} ${seed}
fix             3 all temp/csvr 270 270 ${tempDamp} ${seed}
fix             3 all temp/csvr 270 270 0.1 ${seed}
fix             3 all temp/csvr 270 270 0.1 745823
velocity 	all create ${temperature} ${seed} dist gaussian
velocity 	all create 270 ${seed} dist gaussian
velocity 	all create 270 745823 dist gaussian

run             400000

CITE-CITE-CITE-CITE-CITE-CITE-CITE-CITE-CITE-CITE-CITE-CITE-CITE

Your simulation uses code contributions which should be cited:

- USER-DEEPMD package:

@article{Wang_ComputPhysCommun_2018_v228_p178,
  author = {Wang, Han and Zhang, Linfeng and Han, Jiequn and E, Weinan},
  doi = {10.1016/j.cpc.2018.03.016},
  url = {https://doi.org/10.1016/j.cpc.2018.03.016},
  year = 2018,
  month = {jul},
  publisher = {Elsevier {BV}},
  volume = 228,
  journal = {Comput. Phys. Commun.},
  title = {{DeePMD-kit: A deep learning package for many-body potential energy representation and molecular dynamics}},
  pages = {178--184}
}

CITE-CITE-CITE-CITE-CITE-CITE-CITE-CITE-CITE-CITE-CITE-CITE-CITE

Neighbor list info ...
  update every 10 steps, delay 0 steps, check no
  max neighbors/atom: 2000, page size: 100000
  master list distance cutoff = 8
  ghost atom cutoff = 8
  binsize = 4, bins = 7 7 6
  1 neighbor lists, perpetual/occasional/extra = 1 0 0
  (1) pair deepmd, perpetual
      attributes: full, newton on
      pair build: full/bin
      stencil: full/bin/3d
      bin: standard
Per MPI rank memory allocation (min/avg/max) = 9.089 | 9.089 | 9.089 Mbytes
Step Temp PotEng TotEng E_pair E_mol Press Lx Ly Lz Xy Xz Yz Volume Pxx Pyy Pzz Pxy Pxz Pyz 
       0          270   -333.91511   -266.94155   -333.91511            0    45539.364    24.724405    24.724405    22.792372            0            0            0     13932.89    46210.363    47573.474    42834.257   -805.77429   -391.97139   -355.84924 
     500    247.50489   -310.20441   -248.81076   -310.20441            0    4835.3575    24.839122    24.877442    22.883339            0            0            0    14140.389     6697.108    6229.3051    1579.6592   -1627.0771   -2001.1642    1147.4303 
    1000    272.72466   -309.77042   -242.12101   -309.77042            0    8078.9236    24.853712     24.86889    22.857504            0            0            0    14127.862    7927.4233    6127.8425    10181.505    349.40484    -1269.788   -918.31004 
    1500    272.76379   -309.21558   -241.55646   -309.21558            0    15050.646    24.874547     24.75463    22.797856            0            0            0    14038.012    13734.183    17115.518    14302.237     1045.356   -1926.3236     2266.527 
    2000    266.24809   -305.81238   -239.76948   -305.81238            0    3638.5862    24.887033     24.89877    22.914221            0            0            0    14198.947    2718.9876    3462.3383    4734.4326     184.0938    77.004005    180.82499 
    2500    280.43256   -307.27257   -237.71121   -307.27257            0    8563.9519    24.743271    24.820877    22.866209            0            0            0    14043.275    7279.7261    10519.585    7892.5442    789.78405   -147.04078    248.70308 
    3000    272.93178   -306.97187   -239.27108   -306.97187            0    12031.372    24.825095    24.868584    22.932782            0            0            0    14157.896    13591.229    11757.522    10745.366     1088.471    1332.5104   -710.14717 
    3500    259.54291   -305.37165   -240.99198   -305.37165            0    9372.2924      24.8668    24.780439    22.854346            0            0            0    14083.081    9969.6501    8811.8004    9335.4268    2311.1477   -1991.7512    567.46007 
    4000    270.94103   -309.08184   -241.87486   -309.08184            0    9054.4653    24.903791    24.840791    22.843105            0            0            0    14131.428    9631.0573     9634.951    7897.3876    1435.4069    2105.2057   -793.22894 
    4500    271.99007     -309.014   -241.54681     -309.014            0    11852.262    24.817433    24.878387    22.810649            0            0            0    14083.698    9449.4058    13376.632    12730.749    1515.4728   -16.807142    4209.3235 
    5000    272.93389    -308.0846   -240.38329    -308.0846            0    5849.5876    24.710093    24.846491    22.948143            0            0            0    14089.221    7523.1221    6670.5558    3355.0848    1068.5683    520.65791   -862.16396 
    5500    268.69781   -308.43645    -241.7859   -308.43645            0    10249.551    24.867644    24.729129    23.036436            0            0            0    14166.376    7653.1643    11272.535    11822.953   -1232.8486    3086.4139    -141.5132 
    6000    271.64766   -307.39738   -240.01512   -307.39738            0    12068.143    24.924248    24.631939    22.744014            0            0            0     13963.29    12201.778    12774.958    11227.693    1111.4152   -862.84227   -691.31943 
    6500    263.75346   -307.75383   -242.32973   -307.75383            0    4702.5994    24.983735    25.064931    22.781679            0            0            0    14266.242    4016.6486     3304.105    6787.0447    571.28014   -2217.0696    657.47096 
    7000    269.20368   -304.83532   -238.05929   -304.83532            0    10246.731    24.689315    24.913268    22.773249            0            0            0    14007.632    11393.482    7428.0098    11918.701    836.30228   -552.11069   -911.52143 
    7500    265.05062   -305.82868   -240.08282   -305.82868            0    10630.941    24.855871    24.858997    22.973205            0            0            0    14194.961    12254.393    10503.708    9134.7212    970.45954    820.62229    389.90119 
    8000     268.5533   -307.68009   -241.06538   -307.68009            0    10981.326    24.846636    24.709901    22.884348            0            0            0    14050.027    11670.379    11472.763    9800.8356   -972.06645    1245.0464   -2351.6786 
    8500    274.33157   -309.95761   -241.90961   -309.95761            0    10372.543    24.870039    24.874531    22.863083            0            0            0    14143.802    9112.2417    9666.8833    12338.504   -1557.5983    268.44641    -60.46813 
    9000    275.27295   -306.22853   -237.94702   -306.22853            0      7648.27    24.777674    24.913596    22.828316            0            0            0    14091.941    8630.7999    6312.3897    8001.6204   -981.52133   -1407.7518    385.64405 
    9500     268.4398   -305.74255   -239.15599   -305.74255            0    9702.0985    24.866996    24.866034    22.879123            0            0            0    14147.158     9486.308    10242.355    9377.6329    545.09007   -469.22875    782.38318 
   10000    263.90648   -303.11698   -237.65492   -303.11698            0    11529.336     24.91235    24.756969     22.89145            0            0            0    14118.399    9600.6826    13043.211    11944.116   -1278.0925   -148.73274   -980.46088 
   10500      282.936   -305.48719   -235.30485   -305.48719            0    10319.122    24.827452    24.897917    22.896485            0            0            0    14153.504    8458.8156    9637.0753    12861.474    201.93557   -401.89089   -1611.7958 
   11000    277.92305   -307.59756   -238.65869   -307.59756            0    8347.1353     24.74172    24.971904    22.829849            0            0            0    14105.374    8268.8511    6624.2133    10148.341    543.94357    1145.7541    1163.5927 
   11500    269.80204   -307.79087   -240.86641   -307.79087            0    10463.809    24.851037    24.825064    22.809775            0            0            0    14072.002    8398.9953     11583.93    11408.501    172.49549     2962.534   -1514.6191 
   12000     271.7954   -306.29792   -238.87901   -306.29792            0    7353.4837    25.030433    24.667016    22.909562            0            0            0    14144.961    7950.9284    7326.2718     6783.251   -193.07235   -1771.4705    432.91884 
   12500    282.53917   -308.44198   -238.35808   -308.44198            0    11539.512    24.872154    24.767257    22.878481            0            0            0    14093.489     10936.33    13470.633    10211.575    1540.1362    1387.2231    988.05209 
   13000    273.15827   -305.27062   -237.51365   -305.27062            0    6656.5401    24.723386    25.051292    22.894703            0            0            0    14179.897    6427.2534    6762.5385    6779.8284    92.603188   -1060.7444     2610.735 
   13500    273.80499   -307.74944   -239.83205   -307.74944            0    10109.968    24.755845    24.905139    22.828861            0            0            0    14075.083    11087.417    7766.8158    11475.672    6.8334424    1085.0316    -1441.735 
   14000    268.54571     -309.028   -242.41518     -309.028            0    8619.1173    24.956983    24.712764     22.90378            0            0            0    14126.044     7155.701    9423.7247    9277.9263   -190.56616   -1654.7898    56.996385 
   14500    264.40811    -308.9574   -243.37091    -308.9574            0     7766.998    24.884194    24.738846    22.913478            0            0            0     14105.68    7163.9764    6677.0382    9459.9794   -1436.3535    -756.4061   -1966.7645 
   15000    266.63973   -306.10572   -239.96568   -306.10572            0    10580.499    24.746983    24.897005    22.900774            0            0            0    14109.757    10873.077    10619.402    10249.019    1358.1709     1157.647   -1498.0933 
   15500    267.95353   -306.38179   -239.91586   -306.38179            0    7636.7856     24.78709    24.897668     22.88281            0            0            0    14121.914    9947.7987    7347.2533    5615.3048    459.65128    928.45915    511.21927 
   16000    276.48696   -307.12064   -238.53799   -307.12064            0    9859.4951    24.985892     24.76629    22.744157            0            0            0    14074.263    7738.9105    11644.581    10194.994   -1064.4498    1450.6423    1265.0422 
   16500    268.25961   -306.02963   -239.48777   -306.02963            0    9937.3505    25.018875    24.822831    22.806735            0            0            0    14163.879     8243.362    11225.271    10343.418    1213.8583   -325.51312   -588.60014 
   17000    271.40264   -306.90484   -239.58336   -306.90484            0    9497.5032    24.633029    24.848742    22.957946            0            0            0    14052.554    13320.401    7752.2466    7419.8621    -784.7899   -198.84572     624.5475 
   17500      270.266   -307.50726   -240.46772   -307.50726            0     12345.25    24.664012    24.880562    23.088749            0            0            0    14168.514    11995.675    11759.733    13280.342    1000.5201    1427.5576   -208.90552 
   18000    265.64217   -308.19479   -242.30219   -308.19479            0    9070.0118      24.9463    24.724469    22.850163            0            0            0    14093.615     5772.363     11483.85    9953.8222   -858.98092    2172.1855    485.68449 
   18500    259.05905   -306.00837   -241.74872   -306.00837            0    9347.4852    24.997486    24.783424    22.733579            0            0            0    14083.982    8772.2314    8164.7844     11105.44    790.65826   -762.89525    691.99165 
   19000     263.2982   -306.27191   -240.96073   -306.27191            0    8994.8646    24.859171    24.929071    22.829898            0            0            0    14148.053    7694.0841    7018.3862    12272.123   -1046.2896   -1155.7571   -258.32271 
   19500    262.23938   -305.23083    -240.1823   -305.23083            0    8057.9155    24.723531    24.849046    22.928519            0            0            0    14086.277    6724.4607     10320.26    7129.0256    649.60623    1774.1096   -147.52942 
   20000    267.11865   -308.54751   -242.28867   -308.54751            0     8898.932    24.844366    24.773077    22.948599            0            0            0    14124.206    5844.6372    10035.638    10816.521   -1024.2703    2306.8133   -2661.6228 
   20500    272.29002   -309.10235   -241.56075   -309.10235            0    10299.198    24.925459    24.762286    22.797933            0            0            0    14071.143    9183.6596    9758.8093    11955.126    1388.6684    1123.6584   -2225.7997 
   21000    273.74127   -309.51691   -241.61533   -309.51691            0    6396.9227    24.865666    24.885729    22.775216            0            0            0    14093.309    5633.0806    6122.9641    7434.7233    573.35078    -721.4002     1246.129 
   21500    261.90344   -308.70065   -243.73544   -308.70065            0    8264.5019    24.781901    24.882227    22.869848            0            0            0    14102.209     8426.992    8955.3618    7411.1518   -1481.2561   -2345.2873   -34.024295 
   22000    268.64639   -307.32676   -240.68897   -307.32676            0    10359.455      24.7515    24.732162    22.973027            0            0            0    14063.125    10463.129    9346.4613    11268.776      834.021    899.07654    65.747267 
   22500     273.8424   -308.02697    -240.1003   -308.02697            0    8056.3997    24.854177    24.806078    23.017556            0            0            0    14191.121    6821.3727    8757.4525    8590.3738     626.3949    689.96036    484.37385 
   23000    264.52455    -308.7215   -243.10613    -308.7215            0    10656.679    24.755244    24.853023    22.775343            0            0            0    14012.362    11146.865     11542.84     9280.333    704.82004    703.33786   -154.75727 
   23500    265.61788   -306.74072   -240.85415   -306.74072            0    7643.9716    24.917031    24.938615    22.787974            0            0            0    14160.361    8401.3137    6471.5998    8059.0013    640.72979    1430.4553    -1140.855 
   24000     278.9815    -306.1855   -236.98408    -306.1855            0     9441.255    24.855822    24.714708    22.925308            0            0            0    14083.117     10733.29    8865.4026    8725.0726    1032.9452     685.5878    1250.3759 
   24500    260.35782   -304.86277   -240.28095   -304.86277            0    10685.442    24.731241      24.7141    23.118012            0            0            0    14129.968    14351.632    9223.2608    8481.4321   -970.69754   -201.49849    47.848104 
   25000    268.18338   -303.69019   -237.16725   -303.69019            0    8816.5531     24.68396    24.934213    23.044513            0            0            0    14183.324    11903.191    6001.9802    8544.4885   -105.57972   -1171.5766   -1784.8574 
   25500    277.76545   -306.92242   -238.02264   -306.92242            0    6770.6529    24.859248    24.884757     22.73937            0            0            0    14066.946    5107.3511    7845.5832    7359.0244   -566.97489   -674.71972   -204.52569 
   26000    282.65404   -305.60764   -235.49525   -305.60764            0    9259.3355    25.033986    24.847943    22.802804            0            0            0    14184.326    8848.5355    9337.8736    9591.5974    -607.3073    1495.7019    4443.3381 
   26500    273.00272   -308.56375   -240.84537   -308.56375            0    10399.634     24.85242    24.774297     22.83407            0            0            0    14058.965    6304.8944    11769.858    13124.149    715.71376   -589.56938    1537.1967 
   27000    271.84721   -306.86245   -239.43069   -306.86245            0    8956.7246    24.726477    24.882527    22.974623            0            0            0    14135.303    7707.8739    10192.462    8969.8378    1400.4763   -91.713554    712.69212 
   27500     266.6448    -306.3646    -240.2233    -306.3646            0    9042.4189    24.767169    24.833149    22.888843            0            0            0    14077.709    11100.569    7847.3334    8179.3537    576.08791   -1285.0928    197.12762 
   28000    264.25601   -307.48009   -241.93133   -307.48009            0    6512.1208    24.919505    24.837743    22.844352            0            0            0    14139.381    4405.1338    8181.2906    6949.9382     350.5006     651.6676   -1354.7644 
   28500    271.91956   -307.00316   -239.55345   -307.00316            0     8378.876    24.832482     24.86109    22.790703            0            0            0    14070.126    10524.455     7130.608    7481.5654     659.7439     685.0748    308.93574 
   29000    269.46432   -308.94791   -242.10722   -308.94791            0    11342.708    24.827804    24.928465    22.868185            0            0            0    14153.556    8650.3193    14427.985     10949.82    -117.0369   -959.43655   -747.92442 
   29500    276.92301   -307.04813   -238.35732   -307.04813            0    9834.5176    24.841733    24.771469    22.925206            0            0            0    14107.398     10065.37    8491.6552    10946.528    954.74099    413.75926    -937.4602 
   30000    274.80562   -304.18579    -236.0202   -304.18579            0    8724.0259    24.886563    24.791366    22.954491            0            0            0    14162.276    10422.943    8507.1634    7241.9714   -1421.6098   -732.14735   -892.75307 
   30500    277.96385   -306.67265   -237.72365   -306.67265            0    8996.5445    24.846597    24.936507    22.859948            0            0            0    14163.734    9713.1812    8522.1443    8754.3079   -1049.1599    613.99044   -135.50778 
   31000    273.75306   -305.42156   -237.51705   -305.42156            0    11320.433    24.779181    24.977072    22.745247            0            0            0    14077.292    12427.639    9684.6239    11849.036    2423.9293    2206.4628    703.03482 
   31500    277.45747   -307.14473   -238.32134   -307.14473            0    7582.8961    24.999307    24.838034    22.915636            0            0            0    14229.089     7433.204    8914.2151    6401.2693   -867.20759    963.37007    410.04011 
   32000    274.81714   -307.84621   -239.67776   -307.84621            0    8103.8278    24.878115    24.624566    22.889569            0            0            0    14022.443    7685.3342    11685.504    4940.6451    1136.9234    1142.5067    1259.1158 
   32500    277.29402   -307.56958   -238.78674   -307.56958            0    6482.3187    24.845382    24.926581    22.935735            0            0            0     14204.34    4650.4015    9086.8741    5709.6804    154.75646   -824.17197    1267.4587 
   33000     279.6802   -307.06252   -237.68778   -307.06252            0    9869.5265    24.741937    24.976825    22.778735            0            0            0    14076.689    11314.596    9925.5932    8368.3906    714.83971   -2951.3272    1819.3086 
   33500    262.42432   -307.01393   -241.91952   -307.01393            0     9003.101     24.87125    24.825345    22.871119            0            0            0    14121.484    7690.0833    10351.786    8967.4341    1275.7218    330.69551   -3776.9414 
   34000    263.63674   -307.76716   -242.37201   -307.76716            0    10251.769    24.889681    24.722972    22.941839            0            0            0    14117.189    10126.633     9466.635     11162.04    1578.3818     1757.039   -2591.8812 
   34500    261.34827   -308.32016   -243.49266   -308.32016            0    8601.8229    24.812925    24.771348    22.896173            0            0            0    14073.124    11786.087    4864.2294    9155.1522   -551.53158   -258.26587   -797.29459 
   35000    261.00094   -308.45909   -243.71775   -308.45909            0    10051.222    24.765919     24.92272    22.830335            0            0            0    14091.661    8194.4586    9632.6555    12326.553    41.994705    1476.7717   -50.026377 
   35500    270.34358   -308.32029    -241.2615   -308.32029            0    8225.5633    24.794729     24.88166    22.844282            0            0            0    14093.415     7037.335    10846.724    6792.6305   -651.62549   -615.79347   -148.69998 
   36000    268.83894   -308.07031   -241.38475   -308.07031            0    10012.825    24.897348    24.721097    22.945506            0            0            0    14122.724    8129.6981    11743.267     10165.51    192.09494    -683.7701    1090.7666 
   36500    266.63633    -307.8734    -241.7342    -307.8734            0    10893.928     24.90878    24.703008    22.913153            0            0            0    14098.962    10934.116    12888.666    8859.0031   -687.26374    -2209.818   -4.7712112 
   37000    269.29717   -308.40984   -241.61062   -308.40984            0    7268.3015    24.811043    24.923927     22.78013            0            0            0    14086.974    7829.2205    6594.3043    7381.3798   -619.87008    -3034.124   -1138.1117 
   37500    270.26516   -308.79191   -241.75258   -308.79191            0    7518.9355    24.817514    25.012354    22.757776            0            0            0    14126.763    11210.114     3210.843    8135.8499     932.3827    1999.7617      861.297 
   38000    271.85077   -306.02776   -238.59511   -306.02776            0    9080.4536    24.869299    24.726776    22.869801            0            0            0      14063.5    10189.453    8665.1267    8386.7814   -1466.1521     1166.599    1910.6971 
   38500    275.39192   -308.06829   -239.75727   -308.06829            0    9144.2935    24.866473    24.684284    23.122712            0            0            0    14192.977    12140.514    8734.5827     6557.784    746.60641   -772.86286    108.36851 
   39000    265.54745   -306.86805   -240.99895   -306.86805            0    10579.058    24.695173    24.776437    22.923891            0            0            0    14026.176    11159.194    11923.414    8654.5649    426.11206   -3225.8716   -610.73691 
   39500    267.41323   -305.01847   -238.68657   -305.01847            0    6608.0874    24.871144    25.022304    22.777228            0            0            0    14175.028    4616.5764    5715.5053    9492.1804   -654.40124    1173.9683    197.06799 
   40000    269.63399   -308.39824   -241.51547   -308.39824            0    9806.5736     24.84078    24.859454    22.736332            0            0            0    14040.327    9221.1117    7719.2238    12479.385     -11.2261   -991.33154   -362.74971 
   40500    263.00224   -307.75323   -242.51547   -307.75323            0    7771.7249    24.914342    24.730685    22.936301            0            0            0    14132.173    5475.0431    7856.7321    9983.3994    268.52141   -87.290695    198.54045 
   41000    267.20567   -308.69275   -242.41233   -308.69275            0    8961.8761    24.798405    24.740632    23.009755            0            0            0    14117.134    7951.8161     11299.43     7634.382   -1121.8118    1576.2671    1461.5179 
   41500    269.55408   -307.28831   -240.42536   -307.28831            0    11013.397    24.740575    24.856049    22.873769            0            0            0    14066.292    11497.361    10446.907    11095.923    1500.7821   -1040.8646   -921.95997 
   42000    264.37694   -305.67045   -240.09169   -305.67045            0    7700.1742    24.868214    24.939711     22.81676            0            0            0    14151.093     6225.171    8159.2456     8716.106    724.65489    1138.7893   -1394.6892 
   42500    269.05188   -306.41878    -239.6804   -306.41878            0    9710.2821    24.882401    24.829643    22.816455            0            0            0    14096.488    9865.1239    7915.7678    11349.954    14.636927    1271.2583   -1135.3543 
   43000    274.37384   -306.99873   -238.94024   -306.99873            0    8555.3758    24.805316    24.749553    23.012473            0            0            0    14127.829    6266.4265    12081.426    7318.2751    594.78701   -1262.6681   -2505.1487 
   43500    271.36445   -306.68944   -239.37743   -306.68944            0    8957.0178     24.77318    24.836041     22.97308            0            0            0    14134.594    7019.4451    10792.495    9059.1128   -488.89399   -850.00543    679.58282 
   44000    268.88025    -308.1856    -241.4898    -308.1856            0    9344.4598    24.836858    24.942145     22.76471            0            0            0    14102.385    10042.872    7126.5124    10863.995    245.14378    1399.3264    901.59436 
   44500    270.42238   -308.14335   -241.06502   -308.14335            0    7825.3884    24.926987    24.876077    22.699502            0            0            0    14075.636    9343.4364    4988.4509    9144.2777   -1048.4712    -2203.266   -1291.5805 
   45000    268.72386   -308.81837   -242.16136   -308.81837            0    4417.7009    24.939949    24.717118    22.972817            0            0            0    14161.448    4179.9402    5217.9505    3855.2119    402.20858    1945.0803   -1540.9977 
   45500    269.97062   -309.11632   -242.15005   -309.11632            0    9559.6047    24.676202    24.656777    23.087562            0            0            0    14047.295    11837.511    8217.6011    8623.7021   -797.97036   -639.81305    1033.1441 
   46000    269.96123   -308.39419   -241.43025   -308.39419            0    10121.107     24.71718    24.933795    22.920918            0            0            0    14126.004    11927.823    10903.061    7532.4381    385.88167    1058.7629   -506.82998 
   46500    267.71027   -306.32983   -239.92424   -306.32983            0    9467.8347    24.923255    24.986636    22.680058            0            0            0    14123.968    7965.9104    9787.7133     10649.88   -752.54116   -1278.7416    1128.9202 
   47000    263.92409   -305.51554   -240.04911   -305.51554            0     11267.57    24.911924    24.854932    22.733188            0            0            0     14076.03     11527.96    9672.8015     12601.95   -1108.9855   -1203.0956   -323.41745 
   47500    272.15051    -306.1376   -238.63061    -306.1376            0    7879.6612    24.830533    24.793254    22.955938            0            0            0    14132.357     7802.481    8641.2843    7195.2183    793.23389   -490.43198    749.19663 
   48000    268.30799   -307.14139   -240.58754   -307.14139            0    8453.8696    24.732217     24.80458    22.964552            0            0            0    14088.115    10891.109    7094.8471    7375.6531   -14.291923   -2249.6204   -1113.9002 
   48500    266.94552   -306.67179   -240.45589   -306.67179            0     8422.067     24.84402    24.831302    22.833552            0            0            0    14086.232    9968.5656    7227.7696    8069.8657     1271.106    1000.9459   -812.15564 
   49000    268.60741   -305.05329   -238.42516   -305.05329            0    7005.9879     24.96202    24.869628    22.765375            0            0            0    14132.657    3606.2726    8560.6037    8851.0875   -547.95618    1265.3118   -1124.5156 
   49500    278.37343   -303.55085   -234.50026   -303.55085            0    10466.458    24.819671    24.883068    22.847925            0            0            0     14110.64    11336.899    9354.0161     10708.46    641.25001    125.87509   -2003.1257 
   50000    274.31886   -305.72635    -237.6815   -305.72635            0      7341.19    24.791892    24.886357    22.973886            0            0            0    14174.426    10040.931    5900.9084    6081.7311   -500.33247    2206.1247    222.92353 
   50500    273.98807   -307.59863   -239.63583   -307.59863            0    10974.654    24.758025    24.732336    22.911431            0            0            0    14029.214    11337.646    12989.517    8596.7979    1589.8483   -556.89865    1738.9003 
   51000    273.62402   -306.19971   -238.32721   -306.19971            0    8641.4477    24.956914    24.848259    22.848477            0            0            0     14169.16    8657.2653    9200.2556    8066.8221    301.64706   -2080.4899      1880.09 
   51500    272.44565   -306.67057   -239.09037   -306.67057            0      10358.8    24.863143    24.906758    22.699764            0            0            0    14057.062    9114.2678    10993.808    10968.323   -1292.5826   -1506.4938   -98.271184 
   52000    268.60955   -308.80409   -242.17543   -308.80409            0    9181.1549    24.820582    24.864206    22.837657            0            0            0    14094.124    11133.691     8060.324    8349.4498    500.70785    2819.5041   -379.00681 
   52500    269.85393   -305.50648   -238.56915   -305.50648            0    10238.002    24.776329    24.753879    23.057797            0            0            0    14141.584    7550.5109    13313.015    9850.4799   -2671.9268   -622.89384    829.21116 
   53000    272.14285   -308.77393   -241.26884   -308.77393            0    9573.5361    24.762663     24.70686    23.019376            0            0            0     14083.43    11966.652    8520.8337    8233.1224   -1106.6369    602.17219   -949.02766 
   53500    273.74877   -308.40328   -240.49984   -308.40328            0    10588.308    24.881807    24.916958     22.79666            0            0            0    14133.449    8267.9311    9766.4459    13730.548   -1830.4449     953.0072    621.54937 
   54000    270.48363   -305.35125   -238.25773   -305.35125            0    8785.5706    24.909639    24.888702    22.676605            0            0            0    14058.783    7120.7312    8816.1191    10419.861     1118.929    369.03915    792.26411 
   54500    270.46405   -309.86658   -242.77792   -309.86658            0     10477.85     24.89991    24.783221     22.88147            0            0            0    14120.154    11552.803    10094.867    9785.8816    1030.0276    655.29796    415.00049 
   55000    272.38443   -307.66268   -240.09767   -307.66268            0     10452.02     24.73447    24.656578    23.066757            0            0            0    14067.663    8694.7882    12649.856    10011.415   -1061.1424    2252.0752   -729.82354 
   55500    261.54327   -306.74176    -241.8659   -306.74176            0    5145.2999    24.765429    24.856535    22.988569            0            0            0    14151.366    6248.1676    3413.1623    5774.5697    1701.5426    -642.0026   -714.97031 
   56000    279.05351   -306.66843   -237.44915   -306.66843            0    8459.5713    24.885198    24.938084    22.678769            0            0            0    14074.198    8440.3161    8175.2215    8763.1763    -593.3605    851.63567   -530.31481 
   56500    270.93471   -307.29732   -240.09191   -307.29732            0    8371.2194    24.974757    24.881032    22.730811            0            0            0    14124.874    8440.6735    7850.6695    8822.3152   -86.824985    849.77525    585.00295 
   57000    270.91515   -308.32474   -241.12418   -308.32474            0    10751.749    24.815431     24.71984    22.954709            0            0            0    14081.187     11806.14    10310.478     10138.63    445.46261    1764.2987    1292.1646 
   57500    270.36866    -307.5868    -240.5218    -307.5868            0    8005.3242    24.762324     24.78646    23.014385            0            0            0    14125.547    7155.4342    7473.1198    9387.4185   -242.82649   -1275.0715    1862.7086 
   58000    268.81689   -308.08062   -241.40053   -308.08062            0    12773.833    24.814599    24.847926    22.880237            0            0            0    14107.755    14090.423    12443.204    11787.871    1073.9071   -242.42487     1242.149 
   58500    283.64314   -309.00854    -238.6508   -309.00854            0     8147.652    24.850742    24.889699    22.794312            0            0            0    14098.909     7895.767    8132.6533    8414.5356   -152.93733    2077.5194    1454.6259 
   59000    265.10199   -305.66023   -239.90163   -305.66023            0    8938.1213      24.8631    24.872417    22.900811            0            0            0    14161.985    9660.3155    8886.0748    8267.9736   -1204.2048    44.108056   -811.32034 
   59500    272.99665   -306.66562   -238.94874   -306.66562            0      9263.26    24.752853    24.770018    22.907441            0            0            0    14045.207    7023.5073    10152.507    10613.766   -105.76006   -1603.6724    1428.4217 
   60000    259.51615   -306.19561   -241.82257   -306.19561            0    6834.5744    24.850805    24.902183    22.888406            0            0            0    14164.245    8733.7908    2988.0972    8781.8351    1831.3211   -999.83585   -727.16904 
   60500    277.37429   -309.48624   -240.68349   -309.48624            0    13138.017    24.907036    24.788582    22.793584            0            0            0    14072.989     10015.19    14330.316    15068.547   -584.96292    1979.0559     1772.391 
   61000    266.54697   -307.39364   -241.27661   -307.39364            0    12187.447    24.895085    24.772601    22.860858            0            0            0    14098.657    13633.287    12083.659    10845.394   -105.08724    2620.3142   0.78785803 
   61500    275.20757   -307.18729   -238.92199   -307.18729            0    7972.7258    24.718567    24.889112    22.954164            0            0            0    14121.934     8701.041    6272.6679    8944.4685    228.45892    -1970.672   -3624.7034 
   62000    265.28864   -305.00812   -239.20321   -305.00812            0    10324.839    24.659644    24.930889    22.934927            0            0            0    14100.092    12624.597    10136.967     8212.954    855.67142     1530.593    216.98114 
   62500    264.42927   -306.53942   -240.94769   -306.53942            0    11067.754    24.982319    24.721703    22.850786            0            0            0    14112.771    11504.444    10614.939    11083.879    -1213.009    429.96357    1139.5237 
   63000    274.80248   -304.51127   -236.34645   -304.51127            0    10283.306     25.02106    24.713761    22.839284            0            0            0    14123.003    8756.1199    12141.359    9952.4399   -582.15509    904.80236     1018.334 
   63500    268.37131   -307.91553   -241.34597   -307.91553            0    9453.3225    24.704055    24.936766    22.909973            0            0            0    14113.443     9754.583    8429.9529    10175.432    -25.41215    2105.6826    221.35866 
   64000     276.0626   -306.70885   -238.23146   -306.70885            0    8647.7802    24.721863    24.940988    22.923851            0            0            0    14134.564    8909.1521    9812.3524    7221.8359    518.15125    92.933058    274.29997 
   64500    271.42086    -308.0048   -240.67879    -308.0048            0     10228.72    24.970067    24.713258    22.816749            0            0            0    14080.027    8748.4313    11505.702    10432.026    2029.3729   -680.02839    113.93696 
   65000    263.17976   -308.76872   -243.48692   -308.76872            0    9270.1747    24.977454    24.781815    22.793914            0            0            0    14109.128    11739.644    9173.3124    6897.5674    1134.3541    1045.3471   -168.29278 
   65500    268.82592   -308.13403    -241.4517   -308.13403            0    10070.042    24.674999    24.985433    22.808089            0            0            0    14061.541    11294.637     8248.857    10666.631    821.28875   -68.381599     1588.411 
   66000    276.56893   -305.99154   -237.38855   -305.99154            0    6697.0495    24.786008    24.933404     22.88987            0            0            0     14145.93    9647.2416    6383.8466    4060.0603     1970.417   -1733.8055    1182.3966 
   66500    272.08973   -305.02947   -237.53756   -305.02947            0    12032.003    24.952369    24.716315    22.897573            0            0            0    14121.634    8654.9032    17027.639    10413.467    288.10995   -595.82258    32.046168 
   67000     277.2357   -310.39055   -241.62217   -310.39055            0    9291.9234    24.894099    24.745168    22.862797            0            0            0    14083.681    7478.2832    9628.1216    10769.365    653.17869   -1887.5667    2220.2988 
   67500    265.89813   -307.22187   -241.26578   -307.22187            0    9912.9857    24.782901    24.949836    22.888648            0            0            0    14152.722    10102.006    10308.528    9328.4233   -312.33522   -1043.7393     1828.702 
   68000    259.31179   -306.02281   -241.70047   -306.02281            0     9863.825    24.704924    24.870946    22.842063            0            0            0    14034.959    7863.1081    10169.066    11559.301    347.55648   -2322.1769   -2920.4249 
   68500    268.24798    -306.8933   -240.35433    -306.8933            0    8856.1839    24.915253    24.764246    22.950673            0            0            0    14160.737    11383.045    9816.0082    5369.4982    160.54324   -401.98973   -538.09112 
   69000    262.48832   -307.95584   -242.84556   -307.95584            0    10016.109     24.89582    24.705879    22.859199            0            0            0    14060.079    7047.1449    12806.406    10194.777    -863.9993    2606.2341   -593.38854 
   69500    263.96785   -308.15558   -242.67829   -308.15558            0    10430.725     24.79896    24.906542    22.852394            0            0            0    14114.926    11618.896    8894.0041    10779.274    761.68584   -1426.9774   -2338.7776 
   70000     261.9571   -306.64955   -241.67103   -306.64955            0    9407.4853    24.754453    24.932429    22.841238            0            0            0    14097.353    8517.1889    9855.2736    9849.9935    418.83605   -2370.3233    130.75825 
   70500    267.55055   -308.91175   -242.54577   -308.91175            0    9236.3318    24.871894    24.742273    22.905116            0            0            0    14095.515    6120.2192    13342.421    8246.3553   -733.55535   -1400.6112   -1329.0056 
   71000    265.75883   -308.56314    -242.6416   -308.56314            0    6915.3173    24.920068    24.723159    22.904921            0            0            0    14111.786    10047.403    4179.9795    6518.5696   -815.62602    2634.4167   -708.60054 
   71500    270.03224   -308.08792   -241.10636   -308.08792            0    7740.3726    24.725511    24.896098    22.844889            0            0            0      14062.6    7458.9215    6255.7994    9506.3968    643.88078    418.56828   -465.38968 
   72000    282.25677   -306.96516    -236.9513   -306.96516            0    7134.5449    24.785398     24.99846    22.897486            0            0            0    14187.208    9415.0779    3346.9026    8641.6543    1757.7906    937.63041    272.91424 
   72500    270.69582   -307.43459   -240.28843   -307.43459            0    8211.5393    24.939075    24.675103    22.851211            0            0            0    14062.046    5232.1396    10062.055    9340.4235   -1789.4488   -722.16426   -1929.6331 
   73000     269.1372    -308.5586   -241.79906    -308.5586            0    8178.1512    24.985619    24.728272    22.863135            0            0            0    14126.015    7790.6574    7248.3868    9495.4093    1356.4833     110.1578    1875.8669 
   73500    276.54406   -307.45739   -238.86057   -307.45739            0    11425.496    24.712044    25.012063     22.83942            0            0            0    14117.027    12906.512    9459.0895    11910.886    1203.3122    96.640498    439.28661 
   74000    270.75887   -307.58791   -240.42611   -307.58791            0    8427.5965    24.702195    24.934452    22.891658            0            0            0    14099.789    8500.1611    7216.0624    9566.5661    1177.0034    -963.3709    985.49173 
   74500    270.69648   -307.95884   -240.81252   -307.95884            0    8492.5178    24.912033    24.700084    22.923448            0            0            0    14105.469    10718.458    6978.5228    7780.5723    537.84252    796.72042    554.94592 
   75000    268.53581   -305.58579   -238.97542   -305.58579            0    9120.5419    24.939086    24.700917    22.887579            0            0            0    14099.168    6356.3728    12219.538    8785.7148   -1549.3899    -968.0168   -1760.0242 
   75500    278.19484   -309.50554   -240.49925   -309.50554            0    6932.6406    24.785618    24.915846     22.86624            0            0            0    14121.153    9338.8822    6537.6502    4921.3895   -1578.2508    -1000.017    922.10124 
   76000    267.06086   -306.51079   -240.26629   -306.51079            0    9160.1139    24.736116    24.935016    22.807702            0            0            0    14067.687    10101.335    8718.4157    8660.5905   -503.24627    1231.6882    1122.4909 
   76500     261.3122   -311.18004   -246.36149   -311.18004            0    10380.843     24.86455    24.765115     22.86813            0            0            0    14081.587    10337.628    10738.531    10066.369   -376.12711   -799.65878   -2298.4271 
   77000    254.19694   -308.53901   -245.48541   -308.53901            0    7743.0241    24.882518    24.700538    22.884899            0            0            0    14065.324    6468.0602    10363.226    6397.7866    1035.4727    668.33282    172.01458 
   77500     266.3882   -308.25441   -242.17676   -308.25441            0    8237.5334    24.803206    24.912451    22.868338            0            0            0    14130.543    10614.482    6919.7113    7178.4072   -1430.7026    45.125108    1197.3586 
   78000    281.82832   -307.19932   -237.29174   -307.19932            0    9621.9919    24.765501    24.944818    22.821919            0            0            0    14098.717    7628.2105    8656.0715    12581.694   -849.97699   -223.56985    -1004.897 
   78500      265.751   -307.51481   -241.59522   -307.51481            0    6682.2052    24.933351    24.781829    22.829005            0            0            0    14105.907    3470.6643    7835.7566    8740.1948    -557.9888   -570.40218   -2498.0656 
   79000    262.71419   -307.52945   -242.36313   -307.52945            0    11028.065    24.966408    24.690042    22.803214            0            0            0    14056.395     9928.188    12255.091    10900.916    -450.3783    360.40775    677.06436 
   79500    266.62439   -306.43154    -240.2953   -306.43154            0    6991.4812    24.818091    24.954562    22.876518            0            0            0     14167.99     7229.589    5486.5798     8258.275   -872.25854   -2963.4391    1600.5217 
   80000    268.00118   -305.95107   -239.47331   -305.95107            0    10547.987     24.62781    24.975219    22.811147            0            0            0    14030.793    10840.112    8533.8841    12269.964   -1431.4616    596.54176   -2074.7628 
   80500    266.26111   -307.43226   -241.38613   -307.43226            0    4710.6073    24.962405     24.80632    22.883334            0            0            0    14169.941    2828.4951    4925.8059    6377.5211    1067.1243   -535.13414    814.12137 
   81000    266.14221   -306.19951   -240.18288   -306.19951            0    11208.745    25.010425    24.654301    22.807648            0            0            0    14063.527    8824.8378    10393.778    14407.619    261.03885    351.55303   -867.81131 
   81500    266.30262   -308.64538   -242.58895   -308.64538            0    10353.799    24.783863    24.878774    22.846676            0            0            0    14087.081    11525.482    8734.8956    10801.019    1121.7641    -2224.561   -2555.2787 
   82000    276.22993   -309.63769    -241.1188   -309.63769            0    8223.4653    24.683129    24.991438    22.890066            0            0            0    14120.124      6236.78    7134.7151    11298.901   -1299.6249    343.14607     963.8535 
   82500    275.05181   -305.45042   -237.22376   -305.45042            0    13351.592    24.840267    24.797186    22.899392            0            0            0    14105.309    14753.311    12428.231    12873.235   -1017.0395    550.96672    600.10575 
   83000    265.23493   -305.10942   -239.31784   -305.10942            0    7225.7692    24.966146    24.744504    22.899711            0            0            0    14146.867     8665.258    6732.3636     6279.686   -1432.9115    1190.4832    893.08721 
   83500    271.81371   -307.33202   -239.90857   -307.33202            0    9837.0659    24.807078    24.775426    22.887302            0            0            0    14066.672    10495.952    8486.8198    10528.426    1977.2138   -935.54107    1328.5472 
   84000    269.77975   -304.35282    -237.4339   -304.35282            0    9705.1194    24.773244    24.875018    22.966324            0            0            0     14152.65    9025.2054    11071.529    9018.6242    621.43904   -384.52323    99.544014 
   84500     266.8428   -306.46836   -240.27794   -306.46836            0    7601.4052    24.742033     24.87944     22.87855            0            0            0    14083.302    7781.1103     6767.458    8255.6473    1525.9493   -1544.9059    1376.4398 
   85000       269.29   -308.43005   -241.63261   -308.43005            0    9247.6685    24.874094     24.85582     22.80143            0            0            0    14097.349    10080.642    9331.2251    8331.1379    1869.7358    -1398.593    270.98714 
   85500    272.84311   -305.98189   -238.30309   -305.98189            0    6709.8505    24.958675    24.775712      22.8506            0            0            0    14130.102    4839.3024    7782.1657    7508.0832   -736.22904   -1020.2648   -1762.5848 
   86000    275.46203   -308.30117   -239.97276   -308.30117            0     9727.395    24.788255    24.802239     22.87053            0            0            0    14060.898    10529.868    7572.1329    11080.184    663.06541   -1916.2543    1586.1418 
   86500    266.50367    -308.3352    -242.2289    -308.3352            0    7002.0167    24.730338    24.925371    22.939991            0            0            0    14140.505    7684.1536    6871.3388    6450.5578    655.52374    1186.0122    1639.9059 
   87000     272.5787   -308.87022   -241.25701   -308.87022            0    10678.932    24.775283    24.776814    22.852461            0            0            0    14028.042    10588.547     8767.134    12681.115   -1248.5065   -1231.4565   -922.42895 
   87500    264.75318   -307.07389   -241.40181   -307.07389            0    10139.636    25.018033    24.761222    22.913649            0            0            0     14194.48    12026.995    8170.4421    10221.472    1392.9375    -1564.641    1476.3902 
   88000    279.42629   -307.37056   -238.05881   -307.37056            0    10024.543    24.840736    24.781738    22.787331            0            0            0    14027.804    8137.9218    9829.0461     12106.66   -973.56222    1043.2179   -526.75721 
   88500    268.41009   -307.90405   -241.32487   -307.90405            0    9924.2079    24.804282    24.967757    22.853724            0            0            0    14153.478    8256.4797    11969.759    9546.3851    835.01911    199.42815    575.89979 
   89000    262.70451   -309.73794   -244.57403   -309.73794            0    9749.9711    24.765482    24.809178    22.839502            0            0            0    14032.847    12139.106    8816.8304    8293.9769   -1953.9525    196.48721   -45.020046 
   89500    258.81006   -309.18285   -244.98496   -309.18285            0    8955.1976    24.850198    24.757755    22.904934            0            0            0     14091.92    9506.4808    7642.9089    9716.2031    1015.0749   -1552.8452   -66.390194 
   90000    270.09131   -311.66072   -244.66452   -311.66072            0    10253.352    24.828871    24.774269    22.916217            0            0            0    14096.158    11310.715    11698.632      7750.71    1673.4281   -2413.9409   -2030.1696 
   90500    267.54079   -306.23481   -239.87126   -306.23481            0    9047.9474     24.76813    24.840261     22.83117            0            0            0    14046.805    9039.0751    9579.1438    8525.6234    970.83438    855.43417    -93.40028 
   91000    270.22175   -308.46398   -241.43542   -308.46398            0    7075.8138    24.920226    24.931562    22.827379            0            0            0    14182.654    5940.0601    7117.6215    8169.7598     1438.022   -1341.8722   -1133.4415 
   91500    264.90675   -307.50149   -241.79131   -307.50149            0    9161.2161    24.832536    24.737328    22.780923            0            0            0    13994.107    8288.4336    9814.5047    9380.7098    438.69393   -1410.2449   -1173.7651 
   92000     268.4664   -307.96393   -241.37079   -307.96393            0    8152.0739    24.894015    24.789398    23.029471            0            0            0    14211.663    4728.1815    11564.974    8163.0663     2724.022    780.70338    1616.6766 
   92500    275.43934   -308.13099    -239.8082   -308.13099            0    8323.5238    24.721268    24.741638    23.019063            0            0            0    14079.487    8840.6912    9137.7039    6992.1762    1490.6491    58.943983   -835.45647 
   93000    265.67932   -306.08777   -240.18596   -306.08777            0    8663.4222    24.762486     24.86419    22.903334            0            0            0    14101.564    9475.1471    7284.7572    9230.3622     681.4084    110.66104    923.27573 
   93500    263.24596   -307.83492    -242.5367   -307.83492            0    7331.7539    24.914615    24.872364    22.803135            0            0            0    14130.769    5241.9239    6131.5936    10621.744   -1409.9851   -920.65876     317.4411 
   94000    265.25954   -307.49529    -241.6976   -307.49529            0    8617.5671    24.837719    24.765901    22.779433            0            0            0    14012.278    12430.375    6106.6328    7315.6936   -733.41677   -522.47829    503.09493 
   94500    266.06265   -307.83102   -241.83413   -307.83102            0    8027.3313    24.785468    24.909935    22.947848            0            0            0    14168.102    10325.751    7601.9811    6154.2621   -1149.2582    1790.2482   -1822.5778 
   95000    264.63024   -308.34987   -242.70828   -308.34987            0    10755.593     24.73898    24.768046    22.889222            0            0            0    14025.055    11552.126    11319.363    9395.2891    366.54023   -780.90799   -911.34989 
   95500    270.40388    -308.0503   -240.97656    -308.0503            0    7437.2453    24.865069    24.837621    22.881452            0            0            0    14131.336    7715.4961    7154.1097    7442.1302    220.99611   -287.14728     263.6357 
   96000    265.19671   -306.73422   -240.95211   -306.73422            0    9807.9986    24.859962    24.827177    22.777567            0            0            0    14058.375    10433.883    9701.1395     9288.973   -349.59457   -192.86053    3781.2841 
   96500    270.93148   -308.75307   -241.54846   -308.75307            0    9158.3094    24.810617    24.882657    22.875148            0            0            0    14122.066    8710.6751     11741.73     7022.523    111.02148   -2520.7424    -1381.484 
   97000    270.58848   -307.94304   -240.82351   -307.94304            0    8549.4402    24.748735    24.830866    22.934425            0            0            0     14093.95    11288.225    5869.8704     8490.225   -1518.0621    1672.1789   -1232.7532 
   97500    270.40413   -308.23438   -241.16058   -308.23438            0    9015.6116    24.752817    24.807747     22.88884            0            0            0    14055.159    12218.035    8049.1521    6779.6476    189.20728    -862.5594   -412.08865 
   98000    270.93082   -309.46541   -242.26096   -309.46541            0    8939.8745    24.988252    24.870076    22.736056            0            0            0    14129.543    7967.5004    7500.6978    11351.425   -1719.3339   -493.68578    1437.0776 
   98500     265.2555   -307.81358   -242.01689   -307.81358            0    9905.5704    24.883658    24.800596    22.694489            0            0            0    14005.439    8979.7588    11495.647    9241.3052    1249.7993    685.20766   -168.99009 
   99000    266.68253   -307.45835   -241.30769   -307.45835            0    7188.6266     24.72803    24.847986    23.001198            0            0            0    14132.896    8203.7365    5012.3872    8349.7562   -419.17415    9.9896878    347.26228 
   99500    278.95522   -306.27947   -237.08457   -306.27947            0    7893.0051    24.676713    24.737922    23.092229            0            0            0    14096.665     6831.953    9821.0912     7025.971   -1289.0463    1163.7028   -874.88388 
  100000    272.31107   -308.28392    -240.7371   -308.28392            0    12331.688    24.914482    24.796944    22.865692            0            0            0    14126.494    9826.4059    12749.558    14419.101   -106.20938   -1038.1928   -859.18299 
  100500    267.86321   -306.99036   -240.54684   -306.99036            0    8007.1559    24.971249    24.892396    22.663259            0            0            0    14087.351    6423.3321    7881.2323    9716.9034    1767.1197    2235.2976    2726.7892 
  101000    270.58234   -308.26852   -241.15051   -308.26852            0    8630.5232    24.814633    24.910646    22.820927            0            0            0    14106.722    9667.8661    7523.5249    8700.1787    158.45149    1137.9011     -381.408 
  101500    282.11499   -310.31179   -240.33311   -310.31179            0    8944.7115    24.729327    24.750222    23.027799            0            0            0     14094.31    7591.2899    11757.496    7485.3487   -924.50383    80.923393   -1617.7289 
  102000    277.26587   -308.51838   -239.74252   -308.51838            0     10791.19    24.809359    24.703023    23.007096            0            0            0    14100.271    12417.546    8621.4894    11334.535   -202.32505   -1454.2703   -645.94262 
  102500    267.35178   -308.39296    -242.0763   -308.39296            0    12790.272    24.838799    24.812641    22.825675            0            0            0    14067.834    11657.482    15370.259    11343.074    337.22705   -1516.6813    598.21543 
  103000    257.39909   -306.25107   -242.40317   -306.25107            0    10747.686    24.873358     24.87717    22.781336            0            0            0    14096.607     9613.235    9823.4213    12806.401    166.14125    1022.5685    770.85773 
  103500    268.09485    -308.2658   -241.76481    -308.2658            0    8749.0104     24.82645    24.789031    22.876944            0            0            0    14079.012    9292.3363    7584.1435    9370.5513    2011.4488    497.57327    100.92281 
  104000    270.94167   -307.87732   -240.67018   -307.87732            0    9387.6207    24.816349    24.785519    22.962753            0            0            0     14124.07    12342.778     9985.333     5834.751   -303.98933   -984.07122    501.68783 
  104500    262.10392    -307.1519   -242.13697    -307.1519            0    8476.4531    24.765356    24.881433     22.86471            0            0            0    14089.177    7965.3114    10343.683    7120.3645   -246.32635   -1616.9929   -2203.4321 
  105000    273.71042   -306.67291   -238.77898   -306.67291            0    9346.7666     24.83069    24.903796    22.792507            0            0            0    14094.394    10813.962     7723.433    9502.9052    571.68256    382.45795    313.54541 
  105500    276.64002   -305.87481    -237.2542   -305.87481            0    9479.3328    24.906793    24.827255    22.781732            0            0            0    14087.478    9768.9507     8588.144    10080.904     -123.785   -919.93451   -1505.0638 
  106000    263.78152   -305.51023   -240.07917   -305.51023            0    8406.3583    24.813428    24.810051    22.945073            0            0            0    14125.502    11043.803    7038.4239    7136.8476   -1299.2752   -1604.3391    1434.7049 
  106500    269.87079   -305.72513   -238.78362   -305.72513            0    11229.319    24.697915    24.765979    23.044451            0            0            0    14095.554    9997.4125     11814.01    11876.536    118.22489    552.94898   -77.884726 
  107000    269.46143   -307.75362   -240.91366   -307.75362            0    9752.3953    24.814461    24.875027       22.887            0            0            0    14127.238    9690.1311    9984.3881    9582.6665    302.26424   -466.33673     1626.186 
  107500    274.20138   -305.65594   -237.64022   -305.65594            0    8388.4988    24.945386    24.906906    22.593994            0            0            0    14037.928    8134.0662    10051.943    6979.4871   -497.59344    -372.3133   -1921.6996 
  108000    276.02933   -307.18316   -238.71403   -307.18316            0    9776.4028    24.963107      24.9226    22.771016            0            0            0    14166.886    8385.6555    10050.501    10893.052    453.52205   -45.690716   -1425.7576 
  108500    267.86285   -305.55936   -239.11592   -305.55936            0    10065.751      24.6947    24.774312    22.980073            0            0            0    14059.075    11685.465    7432.9612    11078.827    1721.7479    2242.3534    1752.8659 
  109000    259.33402   -306.17642   -241.84856   -306.17642            0    7739.2162    24.704888    24.799805     23.10284            0            0            0    14154.564    6888.7701    9468.3299    6860.5487   -635.98203    1504.6284   -1084.8111 
  109500    272.64715   -307.73283   -240.10264   -307.73283            0    8823.6268    24.857407    24.824044    22.868735            0            0            0    14111.412    9587.3061    9470.7593    7412.8151    232.23954   -1061.2248   -144.85236 
  110000    272.67288    -307.5624   -239.92583    -307.5624            0    10880.676    24.931622    24.831455     22.72976            0            0            0    14071.732    11841.555    11949.367    8851.1065    321.66531   -579.26017    2618.3481 
  110500    266.77566   -309.16158   -242.98782   -309.16158            0    8952.9092    24.889109    24.833388    22.825463            0            0            0    14107.983    10848.336     8036.296    7974.0956    1274.3906    620.78123    843.86175 
  111000    269.08113    -307.6412   -240.89556    -307.6412            0    10152.552    24.740328    24.850281    22.942252            0            0            0     14104.99    13048.905    12375.653     5033.098   -154.97774   -1863.7088    1296.4853 
  111500    270.59682   -308.16178   -241.04018   -308.16178            0    7317.3995    24.810708    24.774039     22.96723            0            0            0    14117.071    6510.7679     7496.435    7944.9957    471.43855   -2847.3451    -151.1291 
  112000    261.26531    -306.7997   -241.99278    -306.7997            0    9415.6303    24.873893    24.738855    22.900703            0            0            0    14091.985    8336.4467    11328.115    8582.3293    1295.1732    440.31695   -319.72418 
  112500    268.43645   -308.73068   -242.14496   -308.73068            0    6608.7748    24.848135     24.86287    22.825657            0            0            0    14101.599    9446.3446    4679.6787     5700.301    107.22124    2744.7155   -432.55622 
  113000    272.78481   -308.66699   -241.00266   -308.66699            0    9130.0318    24.777414    24.930293    22.787877            0            0            0    14076.258    12536.684    7786.3997    7067.0117      432.499     223.3188    1742.8629 
  113500    274.98327    -307.9695   -239.75984    -307.9695            0     8570.216    24.861593    24.823522    22.950181            0            0            0    14163.757     8841.005    9773.0402    7096.6028   -680.53223   -1346.1559    2565.1739 
  114000    266.40382   -306.60149   -240.51997   -306.60149            0    10847.098    24.820578    24.601853    22.930888            0            0            0    14002.339     8686.696    14543.158    9311.4402    490.06651    350.37822    56.595397 
  114500     267.0628     -305.698   -239.45302     -305.698            0    9202.6901    24.899442    24.919596    22.887063            0            0            0    14201.057    6105.4398    9575.9292    11926.701    183.28094    2776.9082    1881.6587 
  115000    270.83629   -305.23138   -238.05038   -305.23138            0     9323.027    24.718173    24.997507    22.770304            0            0            0    14069.604    11174.583    8628.8617     8165.636   -1225.4843    1564.6813    1783.6119 
  115500    270.07904    -307.7255   -240.73234    -307.7255            0    8601.7499     24.79072    24.908358    22.892564            0            0            0     14136.07      8502.28    7738.2128     9564.757    111.49604   -2626.2786    481.38182 
  116000    262.25391   -308.82722   -243.77508   -308.82722            0    7428.8649    24.917085    24.709548    22.966834            0            0            0    14140.448     5809.808    9801.8664    6674.9202    1378.2982     -610.492    3073.1268 
  116500    264.99112   -305.42282   -239.69171   -305.42282            0    12398.545    24.795704    24.750871    22.898749            0            0            0    14053.312    12325.881    11043.157    13826.597   -595.89075   -2319.3063     57.04783 
  117000    263.05207   -308.37545   -243.12532   -308.37545            0    9330.1596    24.845133    24.980044    22.835207            0            0            0    14172.271    12092.762    4697.4079    11200.308    679.77796   -1325.8877    2186.9533 
  117500    259.98538   -307.31758   -242.82815   -307.31758            0    9515.1928    24.789383    24.823731     22.79869            0            0            0    14029.516    4970.0763    11558.283    12017.219    -1296.686    865.09744   -2244.5104 
  118000    263.24552   -308.76392   -243.46581   -308.76392            0    5461.4472    24.886064    24.806974    22.978305            0            0            0     14185.61    6097.2468     5266.975    5020.1199    1452.5584   -101.54298   -1855.0799 
  118500    265.67364   -306.24904   -240.34863   -306.24904            0    10583.289    24.789224    24.730895    22.919497            0            0            0     14051.02    9444.2576    11324.912    10980.696    2039.0298   -1882.6523   -297.84727 
  119000    268.81082   -307.92567   -241.24709   -307.92567            0    7238.0958    24.819079    24.881715    22.878178            0            0            0    14128.219      7686.95    6535.8294    7491.5079   -530.51288   -636.60318    608.12083 
  119500    274.25743   -308.13454   -240.10492   -308.13454            0    10379.468    24.856344    24.886685     22.81044            0            0            0    14110.356    7933.8223    11422.366    11782.216     197.0547   -56.764598     2289.963 
  120000     269.9854   -306.63197   -239.66203   -306.63197            0    10238.763    24.849581     24.82959    22.853549            0            0            0    14100.752    10254.043    6911.7537    13550.492    1286.2448    465.72728   -1878.2687 
  120500     267.0066   -306.45775   -240.22671   -306.45775            0    7395.7528    24.867792    24.740544    22.993048            0            0            0    14146.305    5731.0768      9788.75    6667.4316    142.22951    1219.9331   -495.02069 
  121000    270.64952   -308.29679   -241.16212   -308.29679            0    8266.2477    24.707934    24.849129    22.941811            0            0            0    14085.599    8829.5416    8213.5412    7755.6602     -41.7645   -674.62128    780.20607 
  121500    268.95004   -308.56867   -241.85556   -308.56867            0     6843.137    24.819037    24.996472    22.805109            0            0            0    14148.024    9247.4956    6851.4011    4430.5142    1226.3454    432.97159   -356.59291 
  122000    269.48035   -306.52594   -239.68128   -306.52594            0    9083.7394    25.006937    24.857596    22.722736            0            0            0    14124.733    6361.2694     9736.117    11153.832    628.02052   -757.82322    1002.4954 
  122500    273.68324    -306.7901   -238.90291    -306.7901            0    7969.4612    24.907846    24.743976    22.899783            0            0            0    14113.575    4876.9149    11572.833    7458.6358      315.138   -695.29001    1562.2786 
  123000    276.01435   -309.86189   -241.39647   -309.86189            0    8763.7795    24.732653    24.761111    23.119603            0            0            0    14158.629    9543.5288    10402.892    6344.9178    705.48872   -502.60496   -1185.2815 
  123500    268.13737    -306.6916   -240.18006    -306.6916            0    9927.6561    24.677498    24.885386     22.93606            0            0            0    14085.243     11435.34    8904.0171    9443.6108    417.74805    -1500.836     199.6661 
  124000     279.5777   -309.71732   -240.36801   -309.71732            0    11141.002    24.918513    24.903259    22.758029            0            0            0    14122.544    8771.6279    11197.109    13454.268   -208.22792    1889.3246   -363.93666 
  124500     272.7729   -306.02939   -238.36802   -306.02939            0     10309.84    24.996083    24.764842    22.802684            0            0            0     14115.41    8395.0023    11427.507    11107.012     18.37513   -834.55516    1177.1648 
  125000    273.31472   -304.53972   -236.74394   -304.53972            0     9709.283    24.847321     24.77739    22.919804            0            0            0    14110.617    10665.599    12012.493     6449.757    952.99471   -616.04722   -396.99598 
  125500    270.11015   -307.32598   -240.32509   -307.32598            0    7804.9417    24.695394    24.957763    22.982939            0            0            0    14165.346    9405.6439    5071.4422     8937.739   -1247.4681    1672.0413   -491.67177 
  126000    272.23882   -306.31403   -238.78513   -306.31403            0     9484.829    24.804013    24.791289    22.854475            0            0            0    14053.753    10499.978    10383.737    7570.7714    2581.2363    683.27897   -401.52576 
  126500    264.44022   -307.85109   -242.25663   -307.85109            0    7096.6191    24.972104    24.795945    22.871753            0            0            0    14162.347    4390.5305    10326.382    6572.9444    277.63518   -1492.2563    519.28915 
  127000    271.95599   -307.16673   -239.70798   -307.16673            0    9263.2308    24.802138    24.855607    22.845612            0            0            0    14083.684    9157.3955    8639.5434    9992.7536    -2862.783    1286.4344   -1481.6319 
  127500    274.59808   -308.68848   -240.57437   -308.68848            0    8947.3024    24.774335    24.953504    22.875951            0            0            0    14142.061     10620.15     8889.452    7332.3053   -108.92394      755.153    2758.7255 
  128000    269.67098   -307.44745    -240.5555   -307.44745            0     9133.716    24.847148    24.755692    22.864134            0            0            0     14063.92    5966.3559    10887.324    10547.468     10.39076    669.77463    397.72382 
  128500    264.13125   -306.03668   -240.51887   -306.03668            0    6579.0293    24.983478    24.785347    22.954521            0            0            0    14213.994    5001.5483    5978.6708    8756.8688     1800.797   -524.26608   -1556.5917 
  129000    274.66946   -307.22073   -239.08891   -307.22073            0    12535.326    24.699577    24.866491    22.805287            0            0            0     14006.82    13568.576    11442.967    12594.434    212.86428    82.087525   -2846.2116 
  129500    267.04533   -305.80881   -239.56815   -305.80881            0    8162.7581    24.841313     25.03062    22.878613            0            0            0    14225.772    6669.5528    7398.4556    10420.266   -343.54656    1008.5893    598.10343 
  130000    271.93706   -307.59107   -240.13702   -307.59107            0    10942.821     24.88833    24.784194    22.838559            0            0            0    14087.673    12156.677    9100.4874    11571.299   -185.22493    50.742979    739.67517 
  130500    271.07431   -306.73476   -239.49471   -306.73476            0    10787.119    24.881028    24.779352    22.880419            0            0            0    14106.596    8437.6833    12224.873    11698.802   -1128.0712    918.83554    727.99423 
  131000    257.41202   -307.37888   -243.52777   -307.37888            0    9957.2879    24.826442    24.901967    22.925621            0            0            0    14173.243    10481.297    10031.725    9358.8412    462.09236    106.85547   -1303.5057 
  131500    267.14569   -310.24925    -243.9837   -310.24925            0    10364.761    24.782819    24.792644    22.853037            0            0            0    14041.628    10475.861    11797.711    8820.7114    477.80032    -104.1388    389.76875 
  132000    270.20068    -308.8811   -241.85776    -308.8811            0    8877.2912    24.924849    24.843888    22.915288            0            0            0    14189.838    9415.4636    9717.1637    7499.2464   -940.65347   -1662.0877   -1889.7006 
  132500      273.369   -305.70765   -237.89841   -305.70765            0    5969.9959    24.862845    24.796757    22.829775            0            0            0    14074.965    5502.3312    5387.9988    7019.6577    725.94828    2145.2749    226.57806 
  133000    270.27717   -305.49782   -238.45551   -305.49782            0    10424.994    24.889728    24.895401    22.896077            0            0            0     14187.32    10904.983    10405.266    9964.7329   -1127.7346   -602.03172    1500.0193 
  133500    265.60299   -306.72935   -240.84647   -306.72935            0    9544.0299    24.810729    24.857175    22.880571            0            0            0    14111.012    9500.4704    8409.4932    10722.126   -5.5516005   -1473.6828   -100.21216 
  134000    262.11099   -307.58344   -242.56675   -307.58344            0    9508.0375    24.799847    24.780788    22.877959            0            0            0    14059.873    8796.0948    6995.2247    12732.793   -1267.1967   -284.92029    345.21081 
  134500    272.64129   -306.98113    -239.3524   -306.98113            0     7641.527    24.931182    24.812965    22.951966            0            0            0    14198.466    5531.5747    10958.982     6434.024    529.33984   -319.75664    512.77771 
  135000    267.00712   -309.50641   -243.27524   -309.50641            0    11354.442    24.809599    24.744674    22.825627            0            0            0    14012.777    10827.809    11501.803    11733.714   -832.92068    45.052527    1816.1715 
  135500    265.41534   -307.77026   -241.93393   -307.77026            0    8465.0002    24.896738    24.977098    22.858519            0            0            0     14214.53    7460.0226    8614.7714    9320.2067      246.436    1286.7795    208.85727 
  136000    278.62648   -308.89834   -239.78498   -308.89834            0    11260.312    24.755044     24.85412    22.798566            0            0            0    14027.156    10112.524    12871.648    10796.765   -549.32069   -1343.0463   -382.33144 
  136500    264.76375   -306.43609   -240.76138   -306.43609            0    7285.4077    24.866776    24.818097    22.987984            0            0            0    14186.944    7634.9321    7851.7594    6369.5316   -423.75554   -482.09386   -753.88715 
  137000    277.83437   -308.06838   -239.15151   -308.06838            0    7737.5379    24.858944    24.741023    22.965823            0            0            0    14124.801    8602.2618    8359.6727    6250.6792    487.72387   -1283.4381     1410.321 
  137500    277.84203   -306.87349   -237.95471   -306.87349            0    11002.437    24.791923    24.898549    22.835611            0            0            0    14096.033    10895.814     8676.624    13434.873   -1323.6813    -1425.351    1190.8377 
  138000    271.80634   -306.36975   -238.94812   -306.36975            0    7721.2486    24.909872    25.024316    22.819891            0            0            0    14224.836    7366.6698     8374.234    7422.8419    190.49911   -1293.1482    938.22743 
  138500    268.30631   -307.07415   -240.52071   -307.07415            0    10669.449    24.861969    24.721729     22.77378            0            0            0    13997.468     9291.143    11346.816    11370.387   -1607.9341   -1035.0745     2711.644 
  139000    257.75673   -309.25031    -245.3137   -309.25031            0    7974.6929    24.936435    24.804849    22.959701            0            0            0    14201.597    5068.8855    7177.4233     11677.77   -1620.6717     631.9064     88.68735 
  139500    273.81589   -307.99834   -240.07824   -307.99834            0     10008.72    24.713732    24.829919    22.876002            0            0            0    14037.629     8850.623    9606.7062    11568.831    2129.8251    1013.4409   -2054.8023 
  140000    273.38214   -307.45693   -239.64444   -307.45693            0    6635.0712    24.840189    25.009368    22.886882            0            0            0    14218.188    5108.2483    5593.1275    9203.8377   -233.98148     101.3997   -230.59413 
  140500    275.90965   -305.65607   -237.21663   -305.65607            0    9462.7343    24.903421    24.779008    22.827269            0            0            0    14086.298    8314.5606    9718.0921     10355.55    1637.7146   -868.54528    449.37466 
  141000    266.84137   -307.29408   -241.10402   -307.29408            0    10494.844    24.902627     24.76912    22.909166            0            0            0    14130.744    10903.723    9276.9856    11303.824   -1716.3406    907.68552    -1269.588 
  141500    275.41106   -308.84923   -240.53345   -308.84923            0    8329.0274     24.73328    24.856575    22.934959            0            0            0     14100.06    8110.1055    8088.1508     8788.826    1175.6757   -343.07968   -865.76875 
  142000    271.33935    -308.0135   -240.70772    -308.0135            0    9527.1108    24.721683     24.88188    22.891863            0            0            0    14081.287    11946.977    9340.3497    7294.0055   -622.88528   -981.91491   -1330.6741 
  142500    275.19673   -307.11818   -238.85557   -307.11818            0    10784.353    24.984718    24.809757    22.848858            0            0            0    14163.203       9590.5    11495.202    11267.357      738.495   -376.64564     1824.386 
  143000    274.78576   -308.41762   -240.25695   -308.41762            0    8732.1135    24.898932    24.752591    22.840183            0            0            0    14076.703    11012.873    7611.2098    7572.2574    1936.9429    1957.9728    1559.3494 
  143500    273.82478   -307.88786   -239.96556   -307.88786            0    10014.006    24.776028     24.86593    22.952381            0            0            0     14140.48    10014.542    9203.0039    10824.471    1017.7527     735.9549    7.3089082 
  144000    278.19045   -308.96538   -239.96017   -308.96538            0    9401.6473    24.753537    24.778862    23.006048            0            0            0    14111.092    11667.197    7802.5682    8735.1771   -950.22541    1203.4564    -1740.747 
  144500    272.36467   -307.37625   -239.81613   -307.37625            0    9144.4929    24.908836    24.766795    22.912371            0            0            0    14134.917    9026.6674    11074.176    7332.6359    316.32419   -1016.0157   -460.64445 
  145000    262.19619   -305.73909   -240.70127   -305.73909            0    10252.008    24.959553    24.894584    22.692105            0            0            0    14099.914    8994.6876    8961.6223    12799.714   -982.98671    931.24522   -142.20917 
  145500    272.50326   -307.95592   -240.36142   -307.95592            0    8036.6267    24.798177     24.94373    22.817292            0            0            0    14113.842    7280.0639    8181.6608    8648.1555   -1248.8574   -38.844124   -2191.4781 
  146000    269.45305   -307.79548    -240.9576   -307.79548            0    9022.3279     24.74973     24.81461    22.995781            0            0            0    14122.972    11003.091    4757.6351    11306.257    548.81052    352.64363    809.49686 
  146500    260.85673   -306.68616   -241.98059   -306.68616            0    10560.195     24.83741    24.659296    22.956299            0            0            0    14060.115    10287.356    10519.529    10873.701    617.70324    681.07001   -1904.0776 
[...]
  365000    270.75507   -306.18562   -239.02476   -306.18562            0    10334.142    24.657488    24.787929    23.017856            0            0            0    14068.699     12799.18    9053.2053    9150.0396    530.32873   -2387.4822    -459.2531 
  365500    270.78552   -306.99308   -239.82468   -306.99308            0    8226.0992    24.825211     24.82791    22.997651            0            0            0    14174.788    9019.6939     8284.364    7374.2397   -1516.9959   -1531.0984    3355.9803 
  366000    273.20841   -305.10484   -237.33543   -305.10484            0    8876.7035    24.924762    24.811177    22.794633            0            0            0     14096.49    7319.9486    8085.1482    11225.014   -133.43204    534.83712   -58.846282 
  366500     274.0015   -308.03767   -240.07153   -308.03767            0    8019.8422     24.87968    24.901063     22.79723            0            0            0    14123.579    8886.4427    4266.9025    10906.182   -281.69269     2320.664   -204.75665 
  367000     268.3435   -308.10154   -241.53887   -308.10154            0    9624.6867    24.763573    24.912902    22.896643            0            0            0    14125.682    11366.379    11412.887    6094.7938    386.75207   -183.07185   -196.55016 
  367500    265.82012   -306.07612   -240.13938   -306.07612            0     10848.34     24.74544    24.810879    22.958806            0            0            0    14095.699    11347.504    10519.991    10677.525   -2032.8039    1099.3322    1156.4731 
  368000    270.86184   -306.35359   -239.16625   -306.35359            0    10142.775    24.885269    24.775832    22.946861            0            0            0    14147.961    8816.0804    12716.227    8896.0187    537.49602   -962.85524    345.39967 
  368500    266.67039   -306.76081   -240.61316   -306.76081            0    10282.588    24.897665    24.832937    22.690717            0            0            0    14029.265    11980.785    8852.8102    10014.168   -429.24151    2418.8796    166.33905 
  369000    275.07756   -308.01472   -239.78167   -308.01472            0    5362.4193    24.929144    25.112329    22.727123            0            0            0    14227.835    5726.8813    4904.4901    5455.8863    1619.7153    366.37965    705.93962 
  369500    277.07553   -307.44771   -238.71906   -307.44771            0    10497.957    24.703706    24.838897    22.833991            0            0            0    14011.229    13871.136    6780.4246    10842.309   -587.33228   -549.39361    3278.3217 
  370000    270.41699   -306.45388   -239.37688   -306.45388            0    9548.3736    24.859937     24.69941    23.141285            0            0            0    14209.346    8375.7419    12723.694    7545.6847   -534.85161    1055.2474   -1774.3684 
  370500    260.73755   -306.92955   -242.25355   -306.92955            0    11837.607    24.816505    24.703203    22.974641            0            0            0    14084.539    10452.919    12846.117    12213.784    -108.8185    954.89437   -2558.1076 
  371000    259.35863   -308.27673   -243.94276   -308.27673            0    7671.8919     24.83958    24.869023      22.8331            0            0            0     14104.83    6038.4334    9420.5215     7556.721   -1225.6275    2307.6174    2071.2577 
  371500    273.61236   -309.15442   -241.28481   -309.15442            0    9131.6673    24.868448    24.930344    22.728148            0            0            0    14090.974    9164.9251    7003.2603    11226.816   -1293.6423    433.75268    692.52865 
  372000    270.49953   -306.81276   -239.71529   -306.81276            0    10054.429    24.876113    24.837783    22.833368            0            0            0    14107.996    11477.717    8409.7453    10275.825   -190.86782    911.78095   -1592.8572 
  372500    273.94015   -310.35192   -242.40101   -310.35192            0    8502.9438    24.835107     24.75274    22.972775            0            0            0    14122.214    6137.5136    11460.243    7911.0749    -257.4759   -274.57971    1278.9471 
  373000    253.95992   -308.67156   -245.67674   -308.67156            0    11017.628    24.753648    24.769051    22.912309            0            0            0    14048.095    15304.176     8404.304    9344.4022    2332.0891    660.98306    3025.4002 
  373500    267.10025   -306.77814   -240.52387   -306.77814            0    9582.8006    24.868861    24.920543    22.798346            0            0            0    14129.172    9572.7414    7044.7062    12130.954    109.24838   -1759.0654   -1341.2956 
  374000    270.55145   -307.37254    -240.2622   -307.37254            0    10227.433    24.872141    24.855967    22.775163            0            0            0    14080.087    9459.5001    11119.119     10103.68   -517.67833    350.48678    641.32827 
  374500     280.7793   -307.57959   -237.93222   -307.57959            0    10392.012    24.874864    24.781323    22.970818            0            0            0    14159.948    8176.1437    11480.754    11519.138   -942.31149    2475.5277   -584.27673 
  375000    273.84405   -306.59609   -238.66902   -306.59609            0    6855.3224    24.768655    24.786828    23.043384            0            0            0    14147.172    8355.2659    7443.7231    4766.9783     1472.486    1699.7887    1403.1708 
  375500    265.27951   -305.59004    -239.7874   -305.59004            0     10845.02    24.770288    24.775926    22.843272            0            0            0    14019.072    9585.2237    11042.683    11907.155    -336.5241   -1779.1221   -866.07944 
  376000    276.27845   -307.09893     -238.568   -307.09893            0    6699.8614    25.001957      25.0005    22.805938            0            0            0    14255.112    8447.0297    6497.7023    5154.8522    927.06534   -816.36237   -969.24874 
  376500    273.06507   -307.39109   -239.65724   -307.39109            0    11351.818    24.854219    24.765167    22.709618            0            0            0    13978.199    10436.279    10028.984    13590.191   -1280.7544   -30.253913    2412.2353 
  377000    258.11311   -307.55736   -243.53234   -307.55736            0    8086.7148    24.844611    24.819607    23.018391            0            0            0     14193.91    8908.0068    7341.9352    8010.2024    596.49222    984.26077    698.09751 
  377500    265.32667   -308.23851   -242.42417   -308.23851            0    8540.6892     24.70171    24.763666    22.991879            0            0            0    14064.245    4115.9874    11481.802    10024.278    1028.8809     200.7447   -819.04139 
  378000    269.11478   -307.19246   -240.43848   -307.19246            0    7035.2344    24.813087    24.848498    22.949235            0            0            0    14149.763    6879.6571    9160.0504    5065.9957    1841.7082    1915.9087   -287.29483 
  378500    272.60705   -308.37543   -240.75519   -308.37543            0    10469.804    24.859218    24.838827    22.796202            0            0            0    14076.058    9339.3958    8211.6255    13858.392    1530.1747     562.2255    1055.6349 
  379000    265.57963   -306.45519    -240.5781   -306.45519            0    7104.2687    24.878245    24.889423    22.845653            0            0            0    14146.146    6236.9457    8327.1638    6748.6966    779.08608    194.07683     1549.896 
  379500     265.1604   -308.06737   -242.29428   -308.06737            0    11383.946    24.815136    24.826916    22.909768            0            0            0    14114.325    15845.065    8666.7285    9640.0454    1730.0458    105.84403     1359.448 
  380000    263.92591   -310.10671   -244.63983   -310.10671            0    7743.3198    24.831391     24.76582    22.891437            0            0            0    14077.542    8099.0222    8235.6153    6895.3218     1595.677   -650.82398    2046.2809 
  380500    264.75003   -306.31502   -240.64372   -306.31502            0    8440.0072    24.843957    24.855394    22.850139            0            0            0    14110.106    8760.0788     9115.632    7444.3109    2021.3663    518.51748   -499.74225 
  381000    271.87541   -307.66185   -240.22309   -307.66185            0    10633.187    24.831157    24.938665    22.814635            0            0            0    14128.098     12052.11    8073.0306     11774.42    2742.0792    253.35299   -1612.8333 
  381500    276.70223   -305.49089   -236.85485   -305.49089            0    9208.1057    24.824784    24.832955    22.905686            0            0            0    14120.731    9148.2721    9690.7367    8785.3084   -2521.6109    304.31958    -404.7931 
  382000    269.83783   -307.28009   -240.34676   -307.28009            0     7962.703    24.875244    24.769351    22.927447            0            0            0    14126.601    9036.6369    7389.9158    7461.5562    423.63175    868.29766    1770.3354 
  382500    273.74129   -304.99317   -237.09158   -304.99317            0    8922.8484    24.856624    24.913605    22.810263            0            0            0    14125.668    7504.8466    8544.4496    10719.249    498.24675   -985.41534   -157.36547 
  383000    274.68584   -304.98114   -236.84526   -304.98114            0    9586.0993    24.819621    24.982058     22.76499            0            0            0    14115.323    10395.467    7209.5467    11153.284   -561.58933   -876.16219   -1150.9689 
  383500    271.57512   -304.66233   -237.29806   -304.66233            0    7964.9141     24.90327    24.799341    22.927412            0            0            0    14159.618    5015.9328    9638.2518    9240.5577   -1440.8782    471.67493    556.53181 
  384000    261.82994   -307.63778   -242.69081   -307.63778            0    10517.301     24.88522    24.551843    23.059548            0            0            0    14088.877    9381.4003    12107.192    10063.312   -1000.2025    -496.8455    542.24836 
  384500    270.95565   -309.83835   -242.62775   -309.83835            0    9446.4644      24.7883    24.759316    22.971963            0            0            0    14098.843    9074.6785    10088.908     9175.807    837.02185   -334.24846    534.55027 
  385000    264.87044   -309.02609   -243.32492   -309.02609            0    7593.2781    24.794414    25.058198    22.746843            0            0            0    14132.689    4425.0177    7927.4019    10427.415    1240.3716   -1171.1435   -1065.6399 
  385500    267.72265    -308.3974   -241.98873    -308.3974            0    10655.909     24.86497    24.910162    22.680418            0            0            0    14048.034    12435.244    8688.1069    10844.377    1208.0068    486.74993   -1339.5817 
  386000    270.19653    -305.9675   -238.94519    -305.9675            0     6693.786    24.954446    24.762335    22.942821            0            0            0    14177.066    2803.1238    8288.4986    8989.7356    483.83825   -8.0113677   -1766.0265 
  386500    271.07226   -306.88762   -239.64809   -306.88762            0    10937.577    24.788364    24.751393    22.948583            0            0            0    14080.024    10454.383    13655.211    8703.1383    824.31384   -769.62783   -1277.3418 
  387000    267.84692   -307.04595   -240.60646   -307.04595            0    9289.3091    24.775406    24.936603    22.908137            0            0            0    14152.978    11830.693    6489.1402    9548.0938    426.19266    808.78616   -354.88517 
  387500    265.67298   -307.72278   -241.82254   -307.72278            0     7865.353    24.883263    24.829061    22.786846            0            0            0    14078.353    6539.4794    7228.3186    9828.2611   -1077.1449    734.03159    -637.7789 
  388000    270.24927    -310.4009   -243.36551    -310.4009            0    9488.2638    24.934175    24.750927    22.837489            0            0            0    14094.019    9500.4418    11225.904     7738.446    225.72766    1562.0105   -178.29209 
  388500    268.39874    -311.1739   -244.59753    -311.1739            0    9476.1573    24.835277    24.799855    22.915966            0            0            0    14114.202    9106.4952    10892.441    8429.5355   -263.34372   -1443.4124    2049.9619 
  389000    265.52105   -308.73201   -242.86945   -308.73201            0     7663.363     24.69946    24.880605    22.893979            0            0            0    14069.208    8294.9724    6921.9707     7773.146   -907.01154   -2282.8791    2260.2752 
  389500    262.00967    -309.5051   -244.51354    -309.5051            0     10147.34    24.805667    24.872569    22.863849            0            0            0    14106.553    7991.2456    9791.8409    12658.933     1318.293   -578.12573     655.9458 
  390000    259.83388    -310.0599   -245.60805    -310.0599            0    12342.654    24.908475    24.765371     22.79265            0            0            0    14060.048    10883.811    12528.742    13615.407   -181.89283   -1471.5447    1217.3761 
  390500      271.872   -307.59712   -240.15921   -307.59712            0    5891.9519    24.876113    24.835721    22.843088            0            0            0     14112.83    4999.7767    6039.6253    6636.4537    485.40631    656.79105   -337.88448 
  391000    267.27143   -305.75168   -239.45494   -305.75168            0    9322.1202    24.752399    24.886539    22.870386            0            0            0    14088.193    9866.3669    9932.9845    8167.0091   -345.14921   -29.046468    2723.0921 
  391500    273.74061    -308.0532   -240.15179    -308.0532            0     10472.17    24.819168    24.802345    22.917949            0            0            0    14107.684     12117.57    9465.1708    9833.7691   -2480.6925    633.79953   -3479.7889 
  392000    270.36655   -309.45558    -242.3911   -309.45558            0     6064.911    24.852595    24.704083    22.959237            0            0            0    14096.066    5436.6716    7461.5805    5296.4807    1608.8364   -2264.2971   -1337.7362 
  392500    281.00939   -309.91301   -240.20857   -309.91301            0    9844.7438    24.836046    24.822083    22.834429            0            0            0    14077.023     8649.386    9045.1514    11839.694   -2181.0072    1205.3077   -1773.8753 
  393000    267.16581   -306.30419   -240.03365   -306.30419            0    8835.8971    24.846391    24.994214    22.784275            0            0            0      14149.4    10063.502    6820.3961    9623.7936    800.62795   -516.53015   -562.40752 
  393500    274.62244   -308.13106   -240.01091   -308.13106            0    7806.7187    24.823122    24.834744    22.812854            0            0            0    14063.574    10542.628    7195.2769    5682.2509     625.3004   -1270.5457    1885.7908 
  394000    262.17668   -307.51999   -242.48701   -307.51999            0    10283.583    24.882418    24.721127    23.015449            0            0            0    14157.295    12906.857    8809.2759    9134.6176   -689.33987    1128.9906   -204.14037 
  394500    267.29688   -306.34321   -240.04016   -306.34321            0    10903.868     24.74441    24.765403     22.94133            0            0            0    14058.568    9955.4817     11397.14    11358.983   -470.28247    696.89767    1083.3747 
  395000    268.04635   -307.84026    -241.3513   -307.84026            0    7111.4728      24.8005    25.040552    22.775604            0            0            0    14144.064    5156.1471    6606.6576    9571.6136    264.44857     329.2074   -409.49428 
  395500    270.43646   -309.00448   -241.92266   -309.00448            0    8982.0111    24.891931    24.877078    22.735317            0            0            0    14078.584    7545.2488    9227.8686    10172.916    -837.9617    -1985.284   -374.11764 
  396000     271.6534   -309.83004   -242.44635   -309.83004            0    9475.1867    24.880495    24.687382    22.913617            0            0            0    14074.329    8460.2319    9860.5067    10104.822     1481.785    390.47165   -454.61243 
  396500    272.10859   -305.71994   -238.22335   -305.71994            0    7085.7195    24.769588     24.82674    23.014679            0            0            0    14152.833    8308.5129    6525.1212    6423.5243   -274.15448    149.20261    1406.7028 
  397000    265.77057   -307.99271   -242.06827   -307.99271            0    10312.801    24.722488     24.88551     22.89853            0            0            0    14087.902    11190.142    8600.3668    11147.893   -105.58622    452.13596     2564.913 
  397500    274.08436     -307.773   -239.78632     -307.773            0    10419.511    24.917234    24.880492    22.774381            0            0            0    14119.047    10017.274     10213.24     11028.02    949.25218   -481.91844    -390.7376 
  398000    268.05108   -307.81325   -241.32312   -307.81325            0     9029.662    24.990867    24.769998    22.788883            0            0            0     14106.86    6683.5355    9119.3892    11286.061   -182.08288   -2264.2044    189.04878 
  398500    265.68951   -306.94108   -241.03674   -306.94108            0    10270.686    24.787012    24.741425    22.984949            0            0            0    14095.888    12018.334    10737.173    8056.5519    162.90591   -124.16282   -1561.5178 
  399000      266.298   -309.73112   -243.67585   -309.73112            0    8344.0072    24.667319    24.812521    23.021986            0            0            0    14090.799    10023.927    8822.6915    6185.4027    199.14059    191.06709   -1484.0133 
  399500    269.12072   -309.93867   -243.18321   -309.93867            0    9770.2845    24.842528    24.822982    22.825651            0            0            0    14075.795     8365.922    11628.837    9316.0949     109.3491    356.65891    194.38339 
  400000    263.17115   -309.01053   -243.73087   -309.01053            0       9500.3    24.998568     24.82136    22.690149            0            0            0    14079.203    8671.5611    8321.7721    11507.567   -1797.6162    116.63073    1016.6437 
Loop time of 4449.13 on 1 procs for 400000 steps with 1920 atoms

Performance: 3.884 ns/day, 6.179 hours/ns, 89.905 timesteps/s
65.4% CPU use with 1 MPI tasks x 1 OpenMP threads

MPI task timing breakdown:
Section |  min time  |  avg time  |  max time  |%varavg| %total
---------------------------------------------------------------
Pair    | 3811.2     | 3811.2     | 3811.2     |   0.0 | 85.66
Bond    | 0.080343   | 0.080343   | 0.080343   |   0.0 |  0.00
Neigh   | 585.97     | 585.97     | 585.97     |   0.0 | 13.17
Comm    | 16.858     | 16.858     | 16.858     |   0.0 |  0.38
Output  | 2.8981     | 2.8981     | 2.8981     |   0.0 |  0.07
Modify  | 29.641     | 29.641     | 29.641     |   0.0 |  0.67
Other   |            | 2.467      |            |       |  0.06

Nlocal:        1920.00 ave        1920 max        1920 min
Histogram: 1 0 0 0 0 0 0 0 0 0
Nghost:        7199.00 ave        7199 max        7199 min
Histogram: 1 0 0 0 0 0 0 0 0 0
Neighs:         0.00000 ave           0 max           0 min
Histogram: 1 0 0 0 0 0 0 0 0 0
FullNghs:      550566.0 ave      550566 max      550566 min
Histogram: 1 0 0 0 0 0 0 0 0 0

Total # of neighbors = 550566
Ave neighs/atom = 286.75313
Ave special neighs/atom = 0.0000000
Neighbor list builds = 40000
Dangerous builds not checked

unfix		3
unfix		2

write_data	data.final.${pid}
write_data	data.final.0
System init for write_data ...

write_restart   restart.lmp.${pid}
write_restart   restart.lmp.0
System init for write_restart ...
Total wall time: 1:14:12
