LAMMPS data file via MDAnalysis

        3840  atoms
           0  bonds
           0  angles
           0  dihedrals
           0  impropers

           2  atom types
           0  bond types
           0  angle types
           0  dihedral types
           0  improper types

0.000000 52.789078 xlo xhi
0.000000 24.833082 ylo yhi
0.000000 22.875975 zlo zhi


Masses

1 15.999000
2 1.008000

Atoms

1 0 1 -1.179400 5.660915 22.235191 5.456234
2 0 2 0.589700 5.590858 23.170563 5.618452
3 0 2 0.589700 6.178065 21.904047 6.185089
4 0 1 -1.179400 2.154505 10.568564 13.270255
5 0 2 0.589700 2.076732 10.299142 14.179329
6 0 2 0.589700 2.319133 11.505359 13.311862
7 0 1 -1.179400 20.342388 13.668022 4.785097
8 0 2 0.589700 20.160734 13.720585 5.717582
9 0 2 0.589700 20.285221 12.739573 4.583066
10 0 1 -1.179400 0.794406 1.739769 2.823128
11 0 2 0.589700 -0.044712 1.559357 2.402481
12 0 2 0.589700 1.446896 1.578127 2.146150
13 0 1 -1.179400 -0.617437 2.488210 5.062538
14 0 2 0.589700 -0.083548 2.269366 4.303901
15 0 2 0.589700 -1.324372 3.027484 4.714870
16 0 1 -1.179400 50.959103 1.366195 1.996667
17 0 2 0.589700 50.575558 0.570752 1.639282
18 0 2 0.589700 50.363136 2.059011 1.723266
19 0 1 -1.179400 7.596868 11.959681 9.218177
20 0 2 0.589700 7.636260 11.939567 10.168410
21 0 2 0.589700 8.488070 11.753944 8.938588
22 0 1 -1.179400 -0.469972 4.115898 1.314200
23 0 2 0.589700 -0.917825 3.411540 0.854482
24 0 2 0.589700 -0.637574 4.889427 0.785420
25 0 1 -1.179400 1.420091 22.134140 21.890112
26 0 2 0.589700 1.380498 21.716127 21.036394
27 0 2 0.589700 2.026213 21.594902 22.391760
28 0 1 -1.179400 -0.504784 24.748936 5.364686
29 0 2 0.589700 -0.620323 0.660750 5.486044
30 0 2 0.589700 -1.136438 24.517168 4.688540
31 0 1 -1.179400 20.861223 2.555283 10.817021
32 0 2 0.589700 21.675962 2.460022 11.307133
33 0 2 0.589700 21.127419 2.953032 9.994279
34 0 1 -1.179400 6.627829 8.959409 16.978865
35 0 2 0.589700 7.213500 9.181712 17.697716
36 0 2 0.589700 5.933052 8.443438 17.381680
37 0 1 -1.179400 4.656413 3.545818 13.009214
38 0 2 0.589700 4.006052 4.203653 13.243684
39 0 2 0.589700 5.254001 3.519723 13.751842
40 0 1 -1.179400 14.858161 0.698155 10.558101
41 0 2 0.589700 15.451818 1.428221 10.401464
42 0 2 0.589700 15.095774 0.054186 9.898564
43 0 1 -1.179400 9.708245 23.997473 21.344542
44 0 2 0.589700 10.460000 24.427889 20.942400
45 0 2 0.589700 9.763423 24.234711 22.264145
46 0 1 -1.179400 16.260799 3.028811 10.295416
47 0 2 0.589700 16.712934 3.694405 10.805872
48 0 2 0.589700 15.706404 3.520601 9.695594
49 0 1 -1.179400 6.638611 20.911371 12.189375
50 0 2 0.589700 7.020474 20.888691 11.317397
51 0 2 0.589700 6.630075 20.001713 12.469490
52 0 1 -1.179400 21.408625 20.455463 13.144375
53 0 2 0.589700 20.997351 20.099434 12.362559
54 0 2 0.589700 22.154165 20.956169 12.819502
55 0 1 -1.179400 2.252083 18.590900 16.679678
56 0 2 0.589700 1.371353 18.737814 16.337318
57 0 2 0.589700 2.759821 19.336760 16.371914
58 0 1 -1.179400 11.127789 15.199325 3.870337
59 0 2 0.589700 10.988672 14.910789 2.974443
60 0 2 0.589700 11.816863 14.627860 4.201686
61 0 1 -1.179400 20.258768 22.769627 10.869807
62 0 2 0.589700 20.447250 22.124624 10.195762
63 0 2 0.589700 19.469761 22.444418 11.299244
64 0 1 -1.179400 9.480866 20.438828 13.643409
65 0 2 0.589700 9.293409 20.438410 14.576241
66 0 2 0.589700 8.739902 19.980083 13.252936
67 0 1 -1.179400 11.352970 10.043260 22.795788
68 0 2 0.589700 12.234372 10.130265 0.012259
69 0 2 0.589700 10.921653 9.408819 0.216612
70 0 1 -1.179400 0.647012 19.753590 1.647306
71 0 2 0.589700 0.930567 18.964725 2.098991
72 0 2 0.589700 1.275588 19.858089 0.937559
73 0 1 -1.179400 21.286358 2.832991 18.360622
74 0 2 0.589700 21.013290 2.001609 18.736101
75 0 2 0.589700 22.085947 2.628777 17.879189
76 0 1 -1.179400 17.414761 16.756969 2.299037
77 0 2 0.589700 17.675259 17.331783 3.011708
78 0 2 0.589700 17.705124 15.892166 2.572436
79 0 1 -1.179400 21.290995 0.509155 6.776429
80 0 2 0.589700 21.232731 1.293571 6.240647
81 0 2 0.589700 20.411888 0.133879 6.745607
82 0 1 -1.179400 17.569098 3.692957 3.543269
83 0 2 0.589700 17.803085 4.408918 4.125426
84 0 2 0.589700 17.823538 2.907423 4.017315
85 0 1 -1.179400 12.038623 9.944105 12.201981
86 0 2 0.589700 11.503497 10.727857 12.294836
87 0 2 0.589700 12.330169 9.958592 11.296044
88 0 1 -1.179400 12.550319 18.506104 17.412134
89 0 2 0.589700 13.288657 18.067886 16.994177
90 0 2 0.589700 12.858994 18.698803 18.291731
91 0 1 -1.179400 23.705061 2.664976 0.233346
92 0 2 0.589700 23.888422 3.599193 0.243722
93 0 2 0.589700 24.447495 2.272621 0.688035
94 0 1 -1.179400 13.331396 6.787638 11.023139
95 0 2 0.589700 13.028085 6.985018 10.142734
96 0 2 0.589700 12.567108 6.940409 11.575088
97 0 1 -1.179400 25.042719 4.537383 3.370497
98 0 2 0.589700 25.736376 4.339042 2.745701
99 0 2 0.589700 25.392769 5.254781 3.890018
100 0 1 -1.179400 6.113071 4.650546 5.587707
101 0 2 0.589700 5.604631 4.601338 6.392158
102 0 2 0.589700 5.629282 5.263303 5.041121
103 0 1 -1.179400 14.345393 0.806780 21.664850
104 0 2 0.589700 13.910233 1.654623 21.665171
105 0 2 0.589700 14.186220 0.457700 22.535578
106 0 1 -1.179400 13.728245 4.866452 15.820021
107 0 2 0.589700 13.509709 4.224741 16.488216
108 0 2 0.589700 14.612749 4.632362 15.541702
109 0 1 -1.179400 21.265629 2.844795 1.566431
110 0 2 0.589700 22.122534 2.679771 1.175973
111 0 2 0.589700 21.112278 2.094551 2.131726
112 0 1 -1.179400 15.491619 -0.009312 7.802806
113 0 2 0.589700 14.583891 0.257393 7.661231
114 0 2 0.589700 15.559642 24.167149 7.377630
115 0 1 -1.179400 24.017632 5.439551 0.510307
116 0 2 0.589700 23.097775 5.627326 0.694628
117 0 2 0.589700 24.498066 5.864976 1.214702
118 0 1 -1.179400 20.753939 11.142541 13.023621
119 0 2 0.589700 20.142860 11.761683 13.415104
120 0 2 0.589700 21.168560 10.711107 13.764709
121 0 1 -1.179400 30.114540 1.169851 4.182928
122 0 2 0.589700 29.440516 1.136870 3.508327
123 0 2 0.589700 30.941380 1.158597 3.703837
124 0 1 -1.179400 28.350382 1.138000 2.243525
125 0 2 0.589700 27.393290 1.125519 2.245106
126 0 2 0.589700 28.600704 0.305918 1.854190
127 0 1 -1.179400 31.539164 4.266161 3.282558
128 0 2 0.589700 31.978342 4.339160 2.440501
129 0 2 0.589700 31.752047 3.389079 3.585709
130 0 1 -1.179400 28.692034 4.322071 3.626866
131 0 2 0.589700 29.618692 4.529644 3.509614
132 0 2 0.589700 28.337862 4.291761 2.743648
133 0 1 -1.179400 26.575333 2.532026 4.849322
134 0 2 0.589700 27.261854 2.896389 4.295421
135 0 2 0.589700 25.799278 3.052661 4.650925
136 0 1 -1.179400 25.637442 1.126746 1.998586
137 0 2 0.589700 25.020456 1.280126 2.709510
138 0 2 0.589700 25.251875 0.410146 1.503369
139 0 1 -1.179400 30.111626 2.664721 0.550664
140 0 2 0.589700 30.145798 3.615791 0.529872
141 0 2 0.589700 29.316000 2.464843 1.040332
142 0 1 -1.179400 27.055340 4.157879 1.202502
143 0 2 0.589700 26.915176 4.892577 0.613912
144 0 2 0.589700 27.091492 3.397402 0.631490
145 0 1 -1.179400 30.164005 5.570750 0.400652
146 0 2 0.589700 30.893524 5.953157 0.883572
147 0 2 0.589700 30.266945 5.902509 22.659065
148 0 1 -1.179400 26.678005 24.862549 4.949249
149 0 2 0.589700 25.891970 24.529303 4.520592
150 0 2 0.589700 26.608738 0.783304 4.869485
151 0 1 -1.179400 36.359657 0.734263 4.056548
152 0 2 0.589700 35.659096 0.859718 3.420603
153 0 2 0.589700 37.159142 0.692267 3.535170
154 0 1 -1.179400 34.517715 1.104471 2.021587
155 0 2 0.589700 33.581848 0.912720 2.077430
156 0 2 0.589700 34.558216 2.030130 1.803436
157 0 1 -1.179400 37.655483 4.354840 3.553950
158 0 2 0.589700 38.068977 4.207628 2.708746
159 0 2 0.589700 38.139050 3.793795 4.153608
160 0 1 -1.179400 34.981514 4.062882 3.599830
161 0 2 0.589700 35.937042 4.099268 3.557595
162 0 2 0.589700 34.745029 4.716841 4.249884
163 0 1 -1.179400 32.894260 2.540217 4.769682
164 0 2 0.589700 33.599045 2.940791 4.265647
165 0 2 0.589700 33.008114 1.604786 4.634619
166 0 1 -1.179400 31.729069 0.972634 1.780964
167 0 2 0.589700 31.357662 1.768643 1.412347
168 0 2 0.589700 31.194378 0.271909 1.417407
169 0 1 -1.179400 36.750404 2.979779 0.594471
170 0 2 0.589700 36.585453 2.665185 22.855900
171 0 2 0.589700 36.603439 3.919056 0.544315
172 0 1 -1.179400 33.470192 4.212833 1.369246
173 0 2 0.589700 34.158802 4.413094 1.998926
174 0 2 0.589700 33.553406 4.888626 0.704438
175 0 1 -1.179400 36.281528 5.605132 0.384006
176 0 2 0.589700 37.007111 5.838660 0.958852
177 0 2 0.589700 36.365116 6.198155 22.788692
178 0 1 -1.179400 33.307709 24.897902 4.716260
179 0 2 0.589700 32.496895 24.481674 4.428918
180 0 2 0.589700 33.494282 24.500589 5.560570
181 0 1 -1.179400 42.752338 1.310871 4.018526
182 0 2 0.589700 42.783092 0.504181 4.522599
183 0 2 0.589700 42.070587 1.159806 3.368109
184 0 1 -1.179400 40.947258 1.225655 1.916285
185 0 2 0.589700 41.403221 1.851932 1.361435
186 0 2 0.589700 41.274467 0.376868 1.634002
187 0 1 -1.179400 44.243958 4.198696 3.391958
188 0 2 0.589700 44.646355 4.961206 3.797334
189 0 2 0.589700 44.587814 3.459312 3.884057
190 0 1 -1.179400 41.335918 4.369704 3.304955
191 0 2 0.589700 42.284595 4.265101 3.376126
192 0 2 0.589700 40.975159 3.607940 3.748634
193 0 1 -1.179400 39.828518 2.563102 4.629949
194 0 2 0.589700 39.628746 1.637686 4.731143
195 0 2 0.589700 39.679821 2.934855 5.493098
196 0 1 -1.179400 38.207512 1.200725 2.150353
197 0 2 0.589700 37.812435 1.860344 1.588018
198 0 2 0.589700 39.143391 1.244485 1.955653
199 0 1 -1.179400 42.707676 2.776637 0.392779
200 0 2 0.589700 42.884853 3.703770 0.517182
201 0 2 0.589700 43.467678 2.337377 0.769234
202 0 1 -1.179400 39.458412 4.448122 1.423705
203 0 2 0.589700 40.152763 4.496127 2.076699
204 0 2 0.589700 39.527832 5.266789 0.943266
205 0 1 -1.179400 42.752060 5.597163 0.598798
206 0 2 0.589700 42.025181 5.820705 1.175982
207 0 2 0.589700 43.521534 5.981630 1.014115
208 0 1 -1.179400 39.412975 24.717510 4.840325
209 0 2 0.589700 40.151749 24.240725 4.467751
210 0 2 0.589700 39.324123 24.368708 5.721001
211 0 1 -1.179400 48.858799 1.061717 4.113422
212 0 2 0.589700 49.597904 1.232153 3.533478
213 0 2 0.589700 49.222126 0.511285 4.800402
214 0 1 -1.179400 47.263023 0.950829 1.758249
215 0 2 0.589700 47.614204 1.005958 2.641447
216 0 2 0.589700 46.321995 1.090399 1.862235
217 0 1 -1.179400 50.748856 4.265341 3.542333
218 0 2 0.589700 49.864502 4.348217 3.187950
219 0 2 0.589700 -1.471291 4.253248 2.777451
220 0 1 -1.179400 47.667152 3.945980 3.670446
221 0 2 0.589700 47.375961 4.665648 4.221735
222 0 2 0.589700 47.129967 4.016829 2.886317
223 0 1 -1.179400 45.802429 2.358316 5.031751
224 0 2 0.589700 45.794815 1.406630 5.050621
225 0 2 0.589700 46.609295 2.581498 4.571160
226 0 1 -1.179400 44.436966 0.949594 1.928310
227 0 2 0.589700 43.917015 0.352215 1.397748
228 0 2 0.589700 43.908001 1.091519 2.708319
229 0 1 -1.179400 48.964256 2.834431 0.684656
230 0 2 0.589700 48.960281 2.467103 22.951227
231 0 2 0.589700 48.274807 2.360676 1.144293
232 0 1 -1.179400 46.171078 4.347530 1.533767
233 0 2 0.589700 45.451305 4.382377 2.159857
234 0 2 0.589700 45.956684 3.611931 0.968861
235 0 1 -1.179400 49.250107 5.511802 0.687159
236 0 2 0.589700 49.009590 4.592471 0.626047
237 0 2 0.589700 49.111893 5.853081 22.953968
238 0 1 -1.179400 45.884201 24.611948 4.876832
239 0 2 0.589700 45.904884 24.220762 5.743804
240 0 2 0.589700 45.166145 24.167242 4.431692
241 0 1 -1.179400 17.938450 4.957846 11.145597
242 0 2 0.589700 17.521563 5.747464 11.478143
243 0 2 0.589700 18.037481 5.115304 10.212626
244 0 1 -1.179400 12.949292 2.541016 3.212747
245 0 2 0.589700 13.841815 2.655744 2.888763
246 0 2 0.589700 12.846887 3.217942 3.873748
247 0 1 -1.179400 1.709731 5.940502 21.848776
248 0 2 0.589700 0.762311 5.882487 21.971212
249 0 2 0.589700 2.042568 6.249190 22.685619
250 0 1 -1.179400 12.949442 24.397316 4.537692
251 0 2 0.589700 12.163658 24.446142 3.996709
252 0 2 0.589700 13.576278 -0.049819 4.109917
253 0 1 -1.179400 3.099281 7.276840 16.436127
254 0 2 0.589700 2.551309 8.054947 16.375353
255 0 2 0.589700 3.681663 7.448011 17.171406
256 0 1 -1.179400 50.901855 7.224487 2.201137
257 0 2 0.589700 50.436188 6.487401 1.816226
258 0 2 0.589700 50.482681 7.352443 3.046709
259 0 1 -1.179400 2.561905 1.451304 0.688519
260 0 2 0.589700 3.456479 1.789504 0.672082
261 0 2 0.589700 2.566853 0.736074 0.060824
262 0 1 -1.179400 1.384426 17.933565 3.645727
263 0 2 0.589700 2.077205 18.589413 3.681943
264 0 2 0.589700 0.729541 18.236828 4.269792
265 0 1 -1.179400 6.285728 0.453551 2.434082
266 0 2 0.589700 5.429097 0.288277 2.825031
267 0 2 0.589700 6.847907 24.790461 2.779785
268 0 1 -1.179400 -0.759170 6.019258 5.496130
269 0 2 0.589700 -0.858616 6.960628 5.395385
270 0 2 0.589700 -1.299189 5.647357 4.804222
271 0 1 -1.179400 4.909126 15.154855 18.246487
272 0 2 0.589700 4.135798 15.529656 17.829424
273 0 2 0.589700 5.530367 15.876981 18.300812
274 0 1 -1.179400 3.257674 16.898376 7.632712
275 0 2 0.589700 3.952054 17.373516 7.181914
276 0 2 0.589700 2.735138 16.512711 6.935093
277 0 1 -1.179400 12.552656 24.204390 17.920328
278 0 2 0.589700 11.750301 23.818853 17.573027
279 0 2 0.589700 13.163808 24.196093 17.188267
280 0 1 -1.179400 2.263993 24.551643 5.862422
281 0 2 0.589700 1.341640 24.354658 5.701520
282 0 2 0.589700 2.678737 23.699966 5.965521
283 0 1 -1.179400 1.416795 12.273080 22.034676
284 0 2 0.589700 1.751770 13.037599 22.493334
285 0 2 0.589700 0.471070 12.299001 22.179068
286 0 1 -1.179400 3.928726 18.962337 3.687222
287 0 2 0.589700 4.209806 18.262932 3.105542
288 0 2 0.589700 4.327091 19.747911 3.324096
289 0 1 -1.179400 11.473886 9.965796 17.185390
290 0 2 0.589700 10.861137 10.164882 16.482208
291 0 2 0.589700 11.568595 9.018936 17.158806
292 0 1 -1.179400 7.618382 16.699423 21.764385
293 0 2 0.589700 6.674938 16.836678 21.680937
294 0 2 0.589700 7.739789 15.769610 21.600201
295 0 1 -1.179400 21.704765 7.833126 13.449654
296 0 2 0.589700 20.866144 8.143042 13.787819
297 0 2 0.589700 21.477125 7.086802 12.904251
298 0 1 -1.179400 2.612071 3.469214 6.475542
299 0 2 0.589700 3.286435 3.509535 7.149410
300 0 2 0.589700 1.906330 2.959162 6.866896
301 0 1 -1.179400 8.429284 18.757311 3.729853
302 0 2 0.589700 8.424071 18.662720 4.676382
303 0 2 0.589700 9.270332 18.392986 3.458382
304 0 1 -1.179400 -1.474209 14.843833 10.810264
305 0 2 0.589700 -1.509846 13.903189 10.668748
306 0 2 0.589700 51.071648 15.220908 9.970942
307 0 1 -1.179400 7.514834 15.465038 14.545413
308 0 2 0.589700 6.589929 15.435773 14.788578
309 0 2 0.589700 7.875764 14.645337 14.869802
310 0 1 -1.179400 21.536467 12.316957 1.675044
311 0 2 0.589700 21.637278 13.231327 1.919821
312 0 2 0.589700 22.331367 12.112938 1.185924
313 0 1 -1.179400 2.454272 7.980650 0.693986
314 0 2 0.589700 1.962278 7.652639 1.441223
315 0 2 0.589700 3.364071 7.996842 0.989107
316 0 1 -1.179400 1.996897 9.691135 7.452679
317 0 2 0.589700 2.152583 10.207604 8.236620
318 0 2 0.589700 1.810426 8.815341 7.776053
319 0 1 -1.179400 22.155474 12.358801 7.755861
320 0 2 0.589700 22.782993 12.152687 7.067723
321 0 2 0.589700 22.042599 11.540463 8.228660
322 0 1 -1.179400 18.712557 1.281499 4.053533
323 0 2 0.589700 18.337845 1.091476 3.199047
324 0 2 0.589700 19.630753 1.023252 3.978708
325 0 1 -1.179400 15.333675 20.123304 1.249745
326 0 2 0.589700 14.609394 19.595324 0.920527
327 0 2 0.589700 15.346044 19.952539 2.185483
328 0 1 -1.179400 9.361855 17.762177 19.808681
329 0 2 0.589700 10.209855 17.516676 20.175367
330 0 2 0.589700 8.740431 17.628046 20.519672
331 0 1 -1.179400 19.152601 14.872556 -0.046130
332 0 2 0.589700 19.490259 15.421236 22.396837
333 0 2 0.589700 18.256128 15.177396 0.089264
334 0 1 -1.179400 23.051247 5.767343 6.732444
335 0 2 0.589700 23.316227 5.825574 5.820223
336 0 2 0.589700 23.688314 6.303616 7.198102
337 0 1 -1.179400 24.949900 10.444838 3.386424
338 0 2 0.589700 25.320791 11.190271 3.849143
339 0 2 0.589700 25.171274 9.694211 3.928467
340 0 1 -1.179400 1.170656 21.794174 8.926814
341 0 2 0.589700 0.783126 21.304916 9.646194
342 0 2 0.589700 1.949444 21.295456 8.687083
343 0 1 -1.179400 16.027697 22.806940 10.185411
344 0 2 0.589700 15.808152 22.827641 9.259752
345 0 2 0.589700 16.722088 23.454887 10.282311
346 0 1 -1.179400 9.398191 9.538161 5.431539
347 0 2 0.589700 10.096996 9.955000 4.932480
348 0 2 0.589700 9.019027 8.902765 4.831778
349 0 1 -1.179400 20.646051 7.141523 7.276060
350 0 2 0.589700 21.422073 6.641486 7.030282
351 0 2 0.589700 20.559383 7.798822 6.593411
352 0 1 -1.179400 15.810380 13.339537 4.627660
353 0 2 0.589700 16.287565 12.518566 4.710826
354 0 2 0.589700 15.767756 13.681701 5.514322
355 0 1 -1.179400 18.653381 1.980834 9.446639
356 0 2 0.589700 19.356981 2.403836 9.933722
357 0 2 0.589700 17.849623 2.354697 9.803349
358 0 1 -1.179400 15.971843 10.914379 7.465368
359 0 2 0.589700 15.874930 10.578595 8.350245
360 0 2 0.589700 15.758957 11.839700 7.536606
361 0 1 -1.179400 30.146757 7.278758 4.154932
362 0 2 0.589700 29.923037 7.948629 4.793158
363 0 2 0.589700 29.473160 7.357525 3.483698
364 0 1 -1.179400 28.587896 7.350668 1.829077
365 0 2 0.589700 28.923532 6.712017 1.207543
366 0 2 0.589700 27.651781 7.405663 1.638387
367 0 1 -1.179400 31.498199 10.315922 3.306195
368 0 2 0.589700 32.033012 9.624735 3.687379
369 0 2 0.589700 31.791777 10.370155 2.402415
370 0 1 -1.179400 28.610098 10.445836 3.424156
371 0 2 0.589700 29.562126 10.355148 3.462721
372 0 2 0.589700 28.431446 10.714946 2.529151
373 0 1 -1.179400 26.796206 8.889780 5.010904
374 0 2 0.589700 26.846027 7.950983 4.861589
375 0 2 0.589700 27.513533 9.251558 4.495183
376 0 1 -1.179400 25.447725 7.522034 1.813908
377 0 2 0.589700 25.105736 7.515677 2.702347
378 0 2 0.589700 24.867275 8.113636 1.342100
379 0 1 -1.179400 30.125977 9.072638 0.483259
380 0 2 0.589700 29.425314 8.585804 0.911421
381 0 2 0.589700 30.924965 8.791152 0.925135
382 0 1 -1.179400 26.954212 10.504314 1.199945
383 0 2 0.589700 26.163322 10.431596 1.730803
384 0 2 0.589700 26.883837 9.792969 0.571718
385 0 1 -1.179400 29.997736 11.908450 0.253683
386 0 2 0.589700 29.279270 12.303814 0.742514
387 0 2 0.589700 29.876451 10.971457 0.370311
388 0 1 -1.179400 26.978096 6.134313 4.716714
389 0 2 0.589700 27.679649 5.569601 4.399993
390 0 2 0.589700 26.849642 5.870498 5.621745
391 0 1 -1.179400 36.215889 7.664850 4.044110
392 0 2 0.589700 36.222458 6.847270 4.531259
393 0 2 0.589700 36.059837 8.334253 4.702398
394 0 1 -1.179400 34.736759 7.631544 1.716216
395 0 2 0.589700 35.220486 7.529608 2.530707
396 0 2 0.589700 34.941120 6.845532 1.219564
397 0 1 -1.179400 37.582153 10.388121 3.493574
398 0 2 0.589700 37.961720 11.177925 3.867272
399 0 2 0.589700 36.647861 10.580540 3.417614
400 0 1 -1.179400 34.774933 10.379294 3.221428
401 0 2 0.589700 34.413750 9.665483 3.738349
402 0 2 0.589700 34.551708 11.164497 3.711290
403 0 1 -1.179400 33.222801 8.633218 4.729158
404 0 2 0.589700 32.952465 8.997210 5.566051
405 0 2 0.589700 33.123764 7.692379 4.835115
406 0 1 -1.179400 31.719954 7.263984 1.837587
407 0 2 0.589700 32.655304 7.464735 1.861006
408 0 2 0.589700 31.429018 7.367814 2.737874
409 0 1 -1.179400 36.690708 9.191644 0.586280
410 0 2 0.589700 36.014809 8.842782 1.162595
411 0 2 0.589700 36.557762 10.134064 0.608324
412 0 1 -1.179400 33.246536 10.554782 1.009555
413 0 2 0.589700 33.837524 10.524747 1.757230
414 0 2 0.589700 33.456730 9.771749 0.510613
415 0 1 -1.179400 36.615360 11.948822 0.430696
416 0 2 0.589700 35.727932 12.290208 0.534070
417 0 2 0.589700 37.181667 12.635415 0.773285
418 0 1 -1.179400 33.045162 5.898264 4.938467
419 0 2 0.589700 32.962547 5.320148 5.689718
420 0 2 0.589700 32.565395 5.455682 4.244252
421 0 1 -1.179400 42.798252 7.348562 3.992447
422 0 2 0.589700 42.612011 8.006023 4.654987
423 0 2 0.589700 42.087952 7.440717 3.361499
424 0 1 -1.179400 41.127628 7.287069 1.980586
425 0 2 0.589700 40.179253 7.369871 2.079124
426 0 2 0.589700 41.344414 7.863703 1.255042
427 0 1 -1.179400 44.114071 10.544235 3.437469
428 0 2 0.589700 44.522804 11.267474 3.903858
429 0 2 0.589700 44.483902 10.589224 2.561245
430 0 1 -1.179400 41.188511 10.676790 3.372916
431 0 2 0.589700 40.847485 9.987605 3.934780
432 0 2 0.589700 42.128120 10.503219 3.319785
433 0 1 -1.179400 39.357422 8.820734 4.967167
434 0 2 0.589700 39.317112 7.882326 4.812669
435 0 2 0.589700 38.642654 9.179171 4.445637
436 0 1 -1.179400 38.277496 7.233323 2.094021
437 0 2 0.589700 37.759048 7.406917 2.874608
438 0 2 0.589700 38.050713 7.939845 1.497706
439 0 1 -1.179400 42.665222 9.274748 0.279606
440 0 2 0.589700 42.387028 8.999365 22.556152
441 0 2 0.589700 42.623596 10.225379 0.252955
442 0 1 -1.179400 39.370808 10.863039 1.328771
443 0 2 0.589700 38.518406 10.740953 1.743945
444 0 2 0.589700 39.998020 10.838324 2.046915
445 0 1 -1.179400 42.550659 11.955595 0.753949
446 0 2 0.589700 42.623051 12.535830 0.003288
447 0 2 0.589700 43.252552 12.233904 1.337860
448 0 1 -1.179400 39.362286 6.008762 4.729726
449 0 2 0.589700 40.115189 5.750890 4.201897
450 0 2 0.589700 38.601677 5.782965 4.198148
451 0 1 -1.179400 49.369446 7.244753 4.447116
452 0 2 0.589700 48.982166 7.931939 4.981129
453 0 2 0.589700 48.736439 7.105993 3.747187
454 0 1 -1.179400 47.419048 7.215703 2.476557
455 0 2 0.589700 46.471752 7.327116 2.555227
456 0 2 0.589700 47.523975 6.474771 1.888527
457 0 1 -1.179400 50.581081 10.471531 3.639261
458 0 2 0.589700 50.957039 9.728982 4.102576
459 0 2 0.589700 51.017719 10.467218 2.792760
460 0 1 -1.179400 47.607285 10.466086 3.277515
461 0 2 0.589700 47.350227 11.046369 3.986987
462 0 2 0.589700 48.560337 10.409384 3.345109
463 0 1 -1.179400 45.776627 8.808480 4.866675
464 0 2 0.589700 45.102661 9.284353 4.386977
465 0 2 0.589700 46.603527 9.138701 4.519320
466 0 1 -1.179400 44.654530 7.511322 1.795125
467 0 2 0.589700 44.266808 8.047979 1.110436
468 0 2 0.589700 44.002956 7.512678 2.491952
469 0 1 -1.179400 48.919346 8.971627 0.649048
470 0 2 0.589700 48.103920 8.710005 1.073094
471 0 2 0.589700 49.607300 8.560258 1.167165
472 0 1 -1.179400 45.651611 10.719305 1.067993
473 0 2 0.589700 45.611435 9.894567 0.594681
474 0 2 0.589700 46.286556 10.564832 1.762881
475 0 1 -1.179400 48.806061 11.632309 0.619032
476 0 2 0.589700 49.017200 10.703859 0.615463
477 0 2 0.589700 48.191185 11.735927 1.340663
478 0 1 -1.179400 45.801979 5.870769 4.768670
479 0 2 0.589700 45.407246 5.522432 5.562276
480 0 2 0.589700 45.547314 6.788322 4.759880
481 0 1 -1.179400 -0.639826 10.445603 18.751526
482 0 2 0.589700 0.311404 10.547602 18.722923
483 0 2 0.589700 -0.845854 9.906154 17.994989
484 0 1 -1.179400 6.497723 14.336356 7.898549
485 0 2 0.589700 6.880517 13.595012 8.358246
486 0 2 0.589700 6.536924 14.092392 6.979894
487 0 1 -1.179400 14.946246 20.552658 16.194500
488 0 2 0.589700 15.317959 20.161074 15.410098
489 0 2 0.589700 14.002681 20.566404 16.035255
490 0 1 -1.179400 3.922188 9.059352 5.651991
491 0 2 0.589700 4.499382 9.808458 5.527709
492 0 2 0.589700 3.345716 9.314232 6.367383
493 0 1 -1.179400 -0.825829 14.970474 4.780211
494 0 2 0.589700 -0.809987 15.561524 5.525712
495 0 2 0.589700 -0.952533 14.107626 5.161701
496 0 1 -1.179400 50.393166 13.720999 1.999076
497 0 2 0.589700 50.005402 14.551488 1.739067
498 0 2 0.589700 50.014740 13.084794 1.399711
499 0 1 -1.179400 0.564580 13.535467 2.216485
500 0 2 0.589700 -0.381753 13.640010 2.313784
501 0 2 0.589700 0.874991 13.325794 3.091592
502 0 1 -1.179400 2.176503 24.178867 18.346085
503 0 2 0.589700 3.011251 24.644505 18.333733
504 0 2 0.589700 1.535991 24.833706 18.613401
505 0 1 -1.179400 1.740657 12.340115 4.467619
506 0 2 0.589700 1.620839 11.476396 4.085896
507 0 2 0.589700 2.425166 12.219812 5.121572
508 0 1 -1.179400 -0.794560 12.170406 5.272758
509 0 2 0.589700 -1.289571 11.651803 4.644835
510 0 2 0.589700 0.101690 12.167276 4.938815
511 0 1 -1.179400 10.294704 13.289126 6.338604
512 0 2 0.589700 10.375409 12.679308 7.064605
513 0 2 0.589700 11.174352 13.648675 6.231131
514 0 1 -1.179400 18.842363 0.533604 13.255185
515 0 2 0.589700 19.398060 0.039965 12.658070
516 0 2 0.589700 17.952234 0.248485 13.052349
517 0 1 -1.179400 9.065014 2.478281 18.302887
518 0 2 0.589700 9.765735 2.852134 18.832369
519 0 2 0.589700 8.790689 1.701635 18.780592
520 0 1 -1.179400 21.925858 14.501938 13.985456
521 0 2 0.589700 21.857635 15.271519 14.541193
522 0 2 0.589700 22.407936 13.869321 14.510521
523 0 1 -1.179400 5.359755 18.148209 15.533202
524 0 2 0.589700 5.599673 18.378645 16.424831
525 0 2 0.589700 4.829383 18.880524 15.230704
526 0 1 -1.179400 16.377104 18.640022 18.352558
527 0 2 0.589700 16.008390 18.844013 17.498713
528 0 2 0.589700 15.614454 18.508999 18.912270
529 0 1 -1.179400 19.449205 8.958007 14.731443
530 0 2 0.589700 18.613258 9.420887 14.704465
531 0 2 0.589700 19.622290 8.830453 15.658288
532 0 1 -1.179400 9.789721 24.474405 5.284104
533 0 2 0.589700 9.379400 24.278265 4.447340
534 0 2 0.589700 10.303947 23.697886 5.487953
535 0 1 -1.179400 5.571605 24.538254 13.244597
536 0 2 0.589700 6.124760 24.472605 14.018143
537 0 2 0.589700 6.068553 24.095127 12.562778
538 0 1 -1.179400 11.166162 1.425007 16.741205
539 0 2 0.589700 11.573059 0.660435 17.138180
540 0 2 0.589700 10.397548 1.598261 17.281044
541 0 1 -1.179400 17.766747 8.270338 18.461197
542 0 2 0.589700 17.307358 8.298438 17.627136
543 0 2 0.589700 18.689787 8.175614 18.227894
544 0 1 -1.179400 13.871296 15.884483 22.817966
545 0 2 0.589700 14.738944 15.659898 22.484825
546 0 2 0.589700 13.988948 15.946318 0.615845
547 0 1 -1.179400 18.224661 24.631025 10.410412
548 0 2 0.589700 18.353191 0.467339 10.026728
549 0 2 0.589700 19.081848 24.212324 10.346353
550 0 1 -1.179400 16.244049 16.104771 8.839739
551 0 2 0.589700 16.914558 16.040747 9.515574
552 0 2 0.589700 15.797557 16.927355 9.019380
553 0 1 -1.179400 12.770337 7.252812 8.501301
554 0 2 0.589700 13.197475 7.824329 7.870032
555 0 2 0.589700 12.209599 6.688440 7.975703
556 0 1 -1.179400 6.872063 16.336103 4.183449
557 0 2 0.589700 7.103446 16.173204 3.274878
558 0 2 0.589700 7.670163 16.691540 4.570250
559 0 1 -1.179400 20.779266 8.548975 2.326304
560 0 2 0.589700 19.881496 8.875963 2.371662
561 0 2 0.589700 21.270788 9.105953 2.923353
562 0 1 -1.179400 14.712044 11.834725 21.204945
563 0 2 0.589700 14.936430 11.079844 20.670073
564 0 2 0.589700 15.546540 12.277558 21.350739
565 0 1 -1.179400 13.334169 13.106435 9.227429
566 0 2 0.589700 14.075873 13.416221 9.742896
567 0 2 0.589700 13.230187 12.195104 9.482016
568 0 1 -1.179400 2.871041 21.856688 5.887684
569 0 2 0.589700 2.446907 21.801161 5.036726
570 0 2 0.589700 3.807868 21.824869 5.695191
571 0 1 -1.179400 23.726366 15.773476 6.434649
572 0 2 0.589700 24.059160 16.651009 6.271914
573 0 2 0.589700 23.274197 15.839397 7.270474
574 0 1 -1.179400 22.180050 22.472223 20.159111
575 0 2 0.589700 23.111931 22.679699 20.223965
576 0 2 0.589700 21.861086 22.513702 21.055035
577 0 1 -1.179400 24.915110 16.920244 3.182566
578 0 2 0.589700 25.110023 16.285233 3.864234
579 0 2 0.589700 23.965221 17.030979 3.221021
580 0 1 -1.179400 13.553258 17.545004 10.998291
581 0 2 0.589700 12.954196 18.286882 11.026585
582 0 2 0.589700 13.021990 16.827257 10.664131
583 0 1 -1.179400 3.819963 12.302879 2.223345
584 0 2 0.589700 3.109549 11.680718 2.082394
585 0 2 0.589700 3.526665 12.832588 2.957996
586 0 1 -1.179400 8.927767 8.261191 10.569933
587 0 2 0.589700 8.013384 8.410300 10.331399
588 0 2 0.589700 9.419668 8.448681 9.775706
589 0 1 -1.179400 23.708199 15.788458 0.189115
590 0 2 0.589700 23.598070 15.250797 22.555935
591 0 2 0.589700 24.079454 15.197525 0.837211
592 0 1 -1.179400 21.177752 22.041420 22.882113
593 0 2 0.589700 20.919827 22.943237 -0.097658
594 0 2 0.589700 22.068846 21.979200 0.079682
595 0 1 -1.179400 8.691958 19.281492 22.928284
596 0 2 0.589700 8.905150 18.358484 22.832273
597 0 2 0.589700 7.913162 19.292122 0.337076
598 0 1 -1.179400 5.682257 24.919468 6.072820
599 0 2 0.589700 6.134576 0.653541 5.716502
600 0 2 0.589700 5.076494 0.253910 6.715646
601 0 1 -1.179400 30.029409 13.422328 3.855566
602 0 2 0.589700 29.989292 14.223575 4.367593
603 0 2 0.589700 29.978052 12.723926 4.499908
604 0 1 -1.179400 28.339586 13.503645 1.765099
605 0 2 0.589700 28.613935 14.249157 1.240203
606 0 2 0.589700 28.959969 13.483654 2.489222
607 0 1 -1.179400 31.490128 16.554430 3.303349
608 0 2 0.589700 31.972235 15.906567 3.809478
609 0 2 0.589700 31.923145 16.560137 2.455022
610 0 1 -1.179400 28.524466 16.414473 3.672272
611 0 2 0.589700 29.447800 16.584574 3.487998
612 0 2 0.589700 28.142126 17.276783 3.806204
613 0 1 -1.179400 26.514530 14.794562 4.615984
614 0 2 0.589700 26.657207 13.853779 4.646193
615 0 2 0.589700 27.343332 15.150182 4.299520
616 0 1 -1.179400 24.572340 13.974538 2.379299
617 0 2 0.589700 23.984648 13.947691 3.129659
618 0 2 0.589700 25.439695 14.123142 2.753202
619 0 1 -1.179400 29.842342 15.531440 0.448739
620 0 2 0.589700 29.998354 16.465136 0.347496
621 0 2 0.589700 30.692944 15.174887 0.700391
622 0 1 -1.179400 26.944889 16.578360 1.127580
623 0 2 0.589700 26.190306 16.900719 1.616188
624 0 2 0.589700 27.613045 16.416281 1.789184
625 0 1 -1.179400 30.093109 18.237457 0.465175
626 0 2 0.589700 30.893059 18.646761 0.790070
627 0 2 0.589700 29.408102 18.533693 1.059987
628 0 1 -1.179400 26.941582 12.187881 4.809751
629 0 2 0.589700 27.035730 11.748381 5.648339
630 0 2 0.589700 27.519175 11.706524 4.223236
631 0 1 -1.179400 36.450352 13.328089 3.856463
632 0 2 0.589700 36.280552 14.010358 4.497984
633 0 2 0.589700 35.779915 13.457612 3.189991
634 0 1 -1.179400 34.684402 13.649133 1.793092
635 0 2 0.589700 34.886044 14.362058 1.195467
636 0 2 0.589700 33.771648 13.793498 2.040527
637 0 1 -1.179400 37.676125 16.886536 3.305910
638 0 2 0.589700 37.989811 16.151474 3.823714
639 0 2 0.589700 38.209396 17.623047 3.592799
640 0 1 -1.179400 34.886688 16.993471 3.449018
641 0 2 0.589700 35.840424 17.027615 3.376026
642 0 2 0.589700 34.701836 16.112953 3.760278
643 0 1 -1.179400 33.354088 14.785920 4.521696
644 0 2 0.589700 33.443970 13.879238 4.797291
645 0 2 0.589700 33.499817 15.292004 5.314245
646 0 1 -1.179400 31.855047 13.517385 1.617253
647 0 2 0.589700 31.319727 12.834918 1.221368