LAMMPS data file via write_data, version 23 Jun 2022, timestep = 400000

972 atoms
2 atom types

-0.03637248170394081 20.02742548170349 xlo xhi
-0.060574608708989786 20.051627608708387 ylo yhi
0.31442603317015383 20.486345966830665 zlo zhi

Masses

1 1.008
2 15.999

Atoms # full

2 0 2 0 1.8327715197696852 2.561545563014051 0.8617425719496109 0 0 0
31 0 1 0 0.7244457514677902 2.2191570207105205 2.2650132679214114 0 0 0
32 0 2 0 0.8462884142015464 1.2886104976191126 2.542507471775447 0 0 0
33 0 2 0 1.009822037360791 2.92736777014999 2.89525407692793 0 0 0
5 0 2 0 3.1932295063839096 1.2981159515761638 3.6509405530131898 0 0 0
18 0 2 0 4.353592989875371 3.3359146102433708 3.4076410645999733 0 0 0
4 0 1 0 4.036897254571224 1.3892844961404327 3.278921040631869 0 0 0
35 0 2 0 4.528847989755342 2.3730607321636503 0.5994672795332762 0 0 0
34 0 1 0 5.458090579725599 2.6001219153481423 0.48511861586199556 0 0 0
36 0 2 0 5.948590642164046 2.3327841779518796 1.2976341420440218 0 0 0
67 0 1 0 7.370272356162816 1.9963119968040122 2.2936959647879505 0 0 0
68 0 2 0 7.521349272402906 2.478147882919264 3.121080271748029 0 0 0
272 0 2 0 7.6103606221437765 0.246462508819982 2.482148195430429 0 1 0
6 0 2 0 4.69865763537672 1.2025664518079908 3.9881387454209576 0 0 0
69 0 2 0 7.978108025680001 2.3608532550924406 1.6414788662228454 0 0 0
230 0 2 0 4.359289128885678 0.1578124730967959 2.2032174061691485 0 1 0
41 0 2 0 10.33150060617672 0.6997867246271985 3.909387227986407 0 0 0
40 0 1 0 11.17010148179888 0.9007626271304237 3.4703842785239365 0 0 0
54 0 2 0 11.436621776284479 2.916150531793603 4.061105810233629 0 0 0
42 0 2 0 11.860447181485114 0.5968656906460312 4.090507474353323 0 0 0
39 0 2 0 10.26646438493332 2.6391117628276404 0.6496704798847195 0 0 0
37 0 1 0 9.314166093943909 2.6474902304442853 0.46657520399538355 0 0 0
70 0 1 0 11.970453856783273 2.411884263424106 1.090945312125438 0 0 0
46 0 1 0 8.282182712126184 3.609244433332706 4.161232943433506 0 0 0
47 0 2 0 9.260456460547735 3.5391303802425753 4.339095125267005 0 0 0
72 0 2 0 12.300576170267206 2.1676096659471082 1.956541525629587 0 0 0
103 0 1 0 14.315031293474657 1.8399329699211868 2.7440426664178985 0 0 0
105 0 2 0 14.231133531671606 0.9021971244565087 2.7961114721701557 0 0 0
84 0 2 0 14.496233226188545 3.5694426442021427 3.542411506492406 0 0 0
104 0 2 0 15.096674769783023 1.919084170373557 2.157781024330208 0 0 0
71 0 2 0 12.328323843793514 3.2726228694715407 0.8856644583371042 0 0 0
75 0 2 0 15.90003359139885 3.3183818955368967 0.47482771605024104 0 0 0
76 0 1 0 17.728548683791978 1.5855077482549678 3.365113830142807 0 0 0
77 0 2 0 17.527103924259194 0.895749521507798 2.672005414520034 0 0 0
89 0 2 0 17.732409602297807 3.3361030922611974 3.4845955568152918 0 0 0
108 0 2 0 19.495366775691927 2.174319656732225 1.2719262911137497 0 0 0
107 0 2 0 18.01803365716777 2.2420467624137608 0.7817580058551135 0 0 0
106 0 1 0 18.90102530800307 2.284867668600078 0.4936306643670662 0 0 0
78 0 2 0 18.399758846841735 1.1463913149204688 3.9505241723420994 0 0 0
73 0 1 0 16.12637425695894 2.402440915182047 0.7414185796147442 0 0 0
10 0 1 0 1.2365445553724577 4.434158768511648 3.6548183863019643 0 0 0
20 0 2 0 0.8138310312481648 5.161612606824374 2.0628715207164747 0 0 0
19 0 1 0 0.7206546910266125 5.8945189272841025 1.352898004038154 0 0 0
21 0 2 0 0.9431256244836519 6.684519001291066 1.8462973794823516 0 0 0
12 0 2 0 2.1393435004841748 4.460943405153234 3.9507654431827572 0 0 0
675 0 2 0 2.154531575306094 5.453882533549584 0.42857173935091614 0 0 1
131 0 2 0 2.477383572338933 7.703114281530658 4.316524283691231 0 0 0
16 0 1 0 4.256312505912134 4.256517360150615 3.7255414671650806 0 0 0
17 0 2 0 4.652580536282503 4.7587095693076815 3.011000131218223 0 0 0
14 0 2 0 4.510862715525287 5.714362588973759 0.9074625450444914 0 0 0
114 0 2 0 4.437841863478913 7.545375578759086 2.6019145483362394 0 0 0
13 0 1 0 4.933569345651399 5.857161517998761 1.7519428322145747 0 0 0
15 0 2 0 5.889410148980125 5.98936862426191 1.6392513307407444 0 0 0
55 0 1 0 7.681792360164914 6.020060493146874 2.484438659166718 0 0 0
177 0 2 0 7.1347203024583665 7.907572824453203 2.6997195333098514 0 0 0
113 0 2 0 4.976228268277795 7.5393917620174875 4.088724060519972 0 0 0
112 0 1 0 4.328818592179705 7.94189661618563 3.5225030122557066 0 0 0
56 0 2 0 8.114696507294253 5.42647792721891 3.107349915616494 0 0 0
57 0 2 0 8.173143691088303 5.826768806716357 1.655061646903994 0 0 0
51 0 2 0 11.02415270688452 4.877883240703174 2.7683849551340636 0 0 0
49 0 1 0 11.294756316687236 5.510421739550941 2.0863664366811205 0 0 0
50 0 2 0 10.73015585166526 5.3067867707142184 1.3226122745230282 0 0 0
150 0 2 0 10.85062097108192 7.138877690224613 2.886077665762656 0 0 0
149 0 2 0 9.758234296478703 7.61614896415822 3.902878544718345 0 0 0
148 0 1 0 10.602870834795427 7.902503227261129 3.4325080900036853 0 0 0
82 0 1 0 14.551982648724415 4.370974681926003 4.0610537270308384 0 0 0
83 0 2 0 14.459204264986159 5.1296045991499195 3.4979628743662143 0 0 0
93 0 2 0 13.08482334066872 5.820165153920815 2.0701202728418537 0 0 0
91 0 1 0 13.904142156993649 6.325255400433134 2.2270800418595824 0 0 0
92 0 2 0 13.60658569395242 7.271701680011624 2.499155046546459 0 0 0
747 0 2 0 15.218388345485005 5.782470986013546 1.0241467172817291 0 0 1
204 0 2 0 15.81721879692732 7.878683916767039 4.326057180145104 0 0 0
745 0 1 0 15.868410323963161 5.294816482701275 0.46719336469626493 0 0 1
88 0 1 0 17.524557868165502 4.257797419002551 3.6635260773560763 0 0 0
90 0 2 0 16.569622826590788 4.338803545731591 3.9592725894877043 0 0 0
86 0 2 0 17.95587155341621 5.540619541882073 2.5233050915505904 0 0 0
85 0 1 0 18.254511412686625 6.124394756512746 1.7637033876734485 0 0 0
87 0 2 0 19.172543407645335 5.946384805512657 1.4394611707021137 0 0 0
746 0 2 0 16.71863328778113 5.704934995096466 0.7291484627741698 0 0 1
185 0 2 0 17.920544101283618 7.837402095615887 2.8096245878265482 0 0 0
139 0 1 0 0.6253693186979934 8.532695775160546 2.150519596526501 0 0 0
141 0 2 0 1.2213572278865996 8.88306689115346 1.4532658905961136 0 0 0
110 0 2 0 3.3059182553649684 9.707643961182209 0.7094355796201206 0 0 0
109 0 1 0 2.387900944595048 9.473998761669163 0.47516896959419286 0 0 0
119 0 2 0 0.6802615539666469 9.72217766031774 3.2902751504260066 0 0 0
118 0 1 0 0.9292851916896742 10.451279826169579 3.9312670332170407 0 0 0
120 0 2 0 1.8951367770455734 10.351637066689714 3.803668144721602 0 0 0
124 0 1 0 3.8100601970880734 10.461145574959566 3.7088382738104366 0 0 0
129 0 2 0 0.7046522024678372 11.819641976086254 2.744251304025617 0 0 0
126 0 2 0 4.2078931417423195 9.587038752884567 3.4919527602422833 0 0 0
175 0 1 0 7.2428639495921 8.87701315892663 2.604807569148947 0 0 0
176 0 2 0 6.387315914580988 9.166692820833823 2.282911381353829 0 0 0
142 0 1 0 5.1723953670020535 9.524668890960061 0.7462167281360204 0 0 0
122 0 2 0 4.2926343135507485 11.678881347916896 2.394759074191801 0 0 0
155 0 2 0 7.843435663944849 10.339412541486892 3.7167406120450703 0 0 0
156 0 2 0 7.839612948856095 11.93190110413195 3.7016949337317397 0 0 0
154 0 1 0 8.133090760139424 11.14990081744169 4.200128963251521 0 0 0
147 0 2 0 8.221494231445707 9.101087670973294 1.1204796747674952 0 0 0
162 0 2 0 10.5540473839921 9.544582026867253 3.6961126809176594 0 0 0
179 0 2 0 10.566856317270847 8.828721404806812 0.7176211027562805 0 0 0
178 0 1 0 11.500943796395402 9.104571929178917 0.8323733346002795 0 0 0
161 0 2 0 9.763507033751555 10.673906795319539 4.283084657515554 0 0 0
160 0 1 0 10.636836937165958 10.484687600649766 3.9367471833377854 0 0 0
158 0 2 0 10.968571993754363 11.64729434869449 2.8208507618874035 0 0 0
145 0 1 0 8.811244573244956 9.122234750626697 0.35160761871938934 0 0 0
817 0 1 0 9.088261482442267 11.862920908676031 0.5198386451112308 0 0 1
211 0 1 0 13.52391062535384 9.172620105084995 2.5373899490909264 0 0 0
212 0 2 0 13.938327791107332 9.899921386173764 3.0127033357557527 0 0 0
213 0 2 0 12.612991836525252 9.47493903458909 2.2903005225444377 0 0 0
183 0 2 0 14.901960997231772 9.134971071221678 0.9832261137458349 0 0 0
190 0 1 0 14.721067534019316 11.190769551743143 4.014374706499423 0 0 0
191 0 2 0 14.370194815057962 11.816042572440871 3.3593677304149496 0 0 0
192 0 2 0 15.676155519386336 11.180703821815799 3.869403277213516 0 0 0
181 0 1 0 15.670623117198707 9.214572512992572 0.3763739173656563 0 0 0
184 0 1 0 17.346869977885753 8.22848790023829 3.5284536808846028 0 0 0
140 0 2 0 19.812732941847365 8.687341954007136 1.7394580140498481 -1 0 0
186 0 2 0 17.439143193081243 9.219709255567617 3.397794601129746 0 0 0
214 0 1 0 18.339392466830333 8.928954931625015 0.6793056820255485 0 0 0
216 0 2 0 17.360766731950513 8.927140015237294 0.7372783057090542 0 0 0
197 0 2 0 17.738400975858433 11.562544080469186 2.8730303290349033 0 0 0
196 0 1 0 17.705419305024307 10.804139202599218 3.469786100782081 0 0 0
198 0 2 0 18.185014558818928 10.905224705851223 4.281426023384833 0 0 0
782 0 2 0 1.6611315031756844 12.393695455037587 0.8073874189819452 0 0 1
127 0 1 0 0.4136094877499745 12.61610989336447 2.26834203201735 0 0 0
249 0 2 0 0.7236292345273907 14.439930148376705 3.0117505853047994 0 0 0
221 0 2 0 3.1479270003785884 14.661095565997542 3.1745795423142225 0 0 0
123 0 2 0 3.8141406017435027 12.292770918756588 1.0522084122337256 0 0 0
247 0 1 0 0.6386731973303948 15.360826203926486 2.72513440893256 0 0 0
218 0 2 0 1.8282873259567503 15.83808317056505 1.4725874236980505 0 0 0
248 0 2 0 -0.02101858209187111 15.331902682059063 2.0247692800932158 0 0 0
217 0 1 0 2.44298193465899 15.987130765817529 0.7494396885085624 0 0 0
220 0 1 0 4.107152421342688 14.757589535524241 3.115371567823281 0 0 0
222 0 2 0 4.3414845398340205 14.044390034289826 2.475026813399282 0 0 0
121 0 1 0 4.5715137753397155 12.29550523079598 1.6843110527322687 0 0 0
165 0 2 0 6.29862479467593 12.609937773560096 1.911488386385527 0 0 0
163 0 1 0 7.1895610247329875 12.725753882895729 2.1949838937774766 0 0 0
164 0 2 0 7.381882358361782 13.677925333103945 2.2488241429497995 0 0 0
283 0 1 0 7.525855982061453 15.391863982321135 2.3941180106511024 0 0 0
284 0 2 0 6.749888783512711 15.653159111355718 1.8404507537965924 0 0 0
251 0 2 0 4.28465638519331 15.984053300410064 0.9672844174003774 0 0 0
819 0 2 0 8.262081596748587 12.163883313321866 0.8911939732535541 0 0 1
258 0 2 0 9.639922904385719 14.22995866504258 3.8098343271627635 0 0 0
157 0 1 0 11.258081019422157 12.312700760574728 2.1713080720935216 0 0 0
159 0 2 0 11.106080876960856 13.157283680575013 2.638198390230334 0 0 0
256 0 1 0 10.593688008247865 14.49796914505841 3.6515657407415834 0 0 0
818 0 2 0 9.85910039850537 12.092553313666643 1.1033238849026283 0 0 1
285 0 2 0 8.266643232219755 15.628812079623037 1.817710572136289 0 0 0
257 0 2 0 10.654967154939152 15.437659724833523 3.3923824048773215 0 0 0
255 0 2 0 10.281330204422426 15.718359352128848 0.3743441181132569 0 0 0
286 0 1 0 11.83265944623064 16.017420746383014 0.5355438941800126 0 0 0
855 0 2 0 15.09852754734986 12.04415586930438 0.7160104800520484 0 0 1
199 0 1 0 13.969351327267306 12.700318136630163 1.9563864023047512 0 0 0
200 0 2 0 13.046066528329755 12.523518328853934 1.9465789895061192 0 0 0
201 0 2 0 14.06324295989553 13.654785084635819 2.0606910642746747 0 0 0
319 0 1 0 14.109971482219452 15.389922120681772 1.987845486517983 0 0 0
320 0 2 0 13.280424584934197 15.678699935696928 1.6255290886438947 0 0 0
291 0 2 0 15.364070711284 15.620926910293347 0.7998512024199442 0 0 0
321 0 2 0 14.099682651676076 15.754355250250589 2.8649535342060166 0 0 0
195 0 2 0 17.060067631229998 12.633786520771562 0.7656854621109774 0 0 0
128 0 2 0 19.538314994619824 12.554635209104795 2.050403830346122 -1 0 0
193 0 1 0 17.774859048052 12.875581171457464 1.3806594995902148 0 0 0
194 0 2 0 17.438774658407922 13.628162908447813 1.8610919346662604 0 0 0
294 0 2 0 16.30265435892798 14.7766448454197 3.971004680497082 0 0 0
292 0 1 0 17.103262698953635 14.892417376577626 3.3907133383987 0 0 0
322 0 1 0 19.032158345098324 15.850701940483718 0.7609614298171758 0 0 0
290 0 2 0 16.884577228313923 15.52365276632007 0.4127140724520616 0 0 0
293 0 2 0 17.118738565362058 15.786302609233115 2.929081324802717 0 0 0
235 0 1 0 1.0247026741573104 19.66306749584361 2.0785516310118766 0 0 0
237 0 2 0 1.3456223921888475 19.43390967218302 1.2003506747303767 0 0 0
227 0 2 0 1.397261196060352 16.72720124644959 3.5367277329835054 0 0 0
236 0 2 0 1.2746880872377777 18.961036404117202 2.7407882999515016 0 0 0
891 0 2 0 3.626250617255377 18.82340063283814 0.44472952198198523 0 0 1
226 0 1 0 1.5898836452636147 17.565028252984014 4.009012027885026 0 0 0
228 0 2 0 2.532574336128784 17.552611328017484 4.232218201047105 0 0 0
250 0 1 0 5.268222165896307 16.0990833436854 0.7842485159221277 0 0 0
232 0 1 0 4.2602034527566115 17.546476917405798 3.619529890938492 0 0 0
233 0 2 0 4.432378409830901 16.65478319297216 3.308360899759608 0 0 0
234 0 2 0 4.301410021876157 18.226167724465576 2.8627950541139495 0 0 0
229 0 1 0 4.555812825417893 19.441271393291117 1.7159013027867853 0 0 0
231 0 2 0 5.536299616650612 19.35613062715748 1.7763439575012503 0 0 0
271 0 1 0 7.42593040869896 19.450001370640045 2.160234574787017 0 0 0
273 0 2 0 7.6876044187370525 18.717687630938144 2.8029580139059433 0 0 0
263 0 2 0 7.787529287623601 16.74018987350873 3.7591942451339655 0 0 0
266 0 2 0 11.38212574526416 19.686439532543005 2.273567701511375 0 0 0
262 0 1 0 8.130247768744098 17.60540858739568 3.9993099509722714 0 0 0
927 0 2 0 8.369990092662924 18.728730098971074 1.0031838418502572 0 0 1
265 0 1 0 11.412937777085029 18.934732105854774 1.6396614655652129 0 0 0
267 0 2 0 10.612519510269616 18.851478795786615 1.1086433541961458 0 0 0
268 0 1 0 10.814491959005188 17.05634576933986 3.5886810363720705 0 0 0
269 0 2 0 11.189711986640228 17.529490161092397 2.8359077235152497 0 0 0
270 0 2 0 11.42676248301181 17.26122133534936 4.316729725282589 0 0 0
264 0 2 0 9.095148904566585 17.455292344159442 3.9898944086897554 0 0 0
925 0 1 0 9.115413084121759 18.49996317512565 0.35467366838714426 0 0 1
307 0 1 0 14.211965562206752 19.082315223714154 1.8484712301194153 0 0 0
308 0 2 0 13.296532815843364 19.131875487449705 1.539280227262118 0 0 0
309 0 2 0 14.248399114564384 18.517793686584444 2.6241324473562777 0 0 0
298 0 1 0 14.705012863695504 17.391510636103366 3.8748458575374722 0 0 0
963 0 2 0 15.440845351060325 18.58730310456534 0.6580849527810951 0 0 1
300 0 2 0 15.675180848552944 17.523232785853175 4.032178081964739 0 0 0
301 0 1 0 17.994203884853448 19.60585760142717 1.7680926547815272 0 0 0
302 0 2 0 17.469926493143653 19.286568935708193 0.9666591135380541 0 0 0
303 0 2 0 18.912791143187164 19.553823972878323 1.6129631039585164 0 0 0
304 0 1 0 17.183395527555206 17.674995030982814 3.552255286016379 0 0 0
306 0 2 0 17.32945566392806 18.39772141631284 2.9019786449137315 0 0 0
305 0 2 0 17.962577077268108 17.68666571138532 4.131854462016715 0 0 0
323 0 2 0 19.297427732746826 16.69158011514745 0.3948132945108256 0 0 0
22 0 1 0 1.9885016735195191 0.8535074246580686 4.99463575913569 0 0 0
23 0 2 0 2.389336332030224 1.686806993456968 5.527477546108122 0 0 0
325 0 1 0 2.834112055197804 2.7921830218919705 6.857816962099203 0 0 0
327 0 2 0 2.8262691016443178 3.7839800274030684 6.848023373877775 0 0 0
101 0 2 0 0.3283841605412182 0.6116038118752788 4.9029915178298396 1 0 0
326 0 2 0 3.7393000895986104 2.593830418001227 7.233154897900709 0 0 0
356 0 2 0 1.647623083832244 2.1978585294694772 8.203047311627675 0 0 0
24 0 2 0 2.311914804549929 0.09195529213619502 5.501430634288427 0 0 0
357 0 2 0 0.17003013949747187 2.1101402169802674 8.263344780368744 0 0 0
29 0 2 0 6.9643703511707065 0.9521424214529342 5.045661020804317 0 0 0
28 0 1 0 6.050962904383514 0.9309944614254033 5.367017771054577 0 0 0
358 0 1 0 5.63427405341857 2.6033862359872453 7.505915316656191 0 0 0
359 0 2 0 6.0228718655105675 1.9878247115247767 6.893914283594869 0 0 0
360 0 2 0 6.0922756582935 2.4862410438856326 8.353862555696198 0 0 0
8 0 2 0 5.910903545227509 3.9561652659609328 6.34143232916022 0 0 0
48 0 2 0 7.798215478986456 3.9520873341043528 4.974233056275587 0 0 0
30 0 2 0 5.99832177244904 -0.02949279093069097 5.5387892552144145 0 0 0
52 0 1 0 11.015547765241726 3.6559482321303696 4.4582014416740625 0 0 0
58 0 1 0 8.957771973270178 0.5656615878710947 5.043403146099961 0 0 0
59 0 2 0 9.047616125522927 1.2507498896792977 5.708387836478736 0 0 0
361 0 1 0 9.105020042104938 2.54667533016795 7.009606860704023 0 0 0
363 0 2 0 9.069391955629676 3.4929612807751527 6.705704045904313 0 0 0
362 0 2 0 10.04156773257405 2.365285312956175 7.175734570243517 0 0 0
394 0 1 0 12.096571335872643 2.415440731396538 7.33981393083435 0 0 0
66 0 2 0 12.654729073971467 1.1716153228933308 6.253223037314875 0 0 0
396 0 2 0 12.447702550968206 3.2191619924728325 6.985827344839169 0 0 0
65 0 2 0 13.906638480737511 0.7900375648597978 5.457574276053496 0 0 0
64 0 1 0 13.015689394045447 0.4918594781915572 5.68214249325098 0 0 0
395 0 2 0 12.524105015065023 2.2892381053305115 8.175736903706628 0 0 0
94 0 1 0 15.767030261114584 0.9276091878781765 5.319652853396736 0 0 0
95 0 2 0 15.82450234432824 1.7205881318173712 5.8596506755099 0 0 0
397 0 1 0 15.888016768733474 3.0855749324662227 6.96901944687393 0 0 0
96 0 2 0 16.37086867962006 1.2162726099051804 4.57748614590208 0 0 0
100 0 1 0 19.4413681866237 0.40798388181111583 5.103132854381875 0 0 0
398 0 2 0 16.879994272140166 2.994832071644229 7.160097170928067 0 0 0
430 0 1 0 18.6642995964175 2.7022455411747957 7.0701107812130095 0 0 0
431 0 2 0 18.904934036325265 2.0928462631656846 6.421453206065814 0 0 0
432 0 2 0 18.850408790741945 3.565119631526128 6.6342854206593005 0 0 0
11 0 2 0 0.6299904951510931 4.628478289369946 4.392520683347889 0 0 0
25 0 1 0 2.773446041790725 5.406533207062448 6.681695694302689 0 0 0
130 0 1 0 1.9312494510814007 7.389941023164868 5.043975331739987 0 0 0
26 0 2 0 2.4522419750256534 5.80782910951462 5.8748671924147775 0 0 0
27 0 2 0 3.5439994393479854 5.809114823438826 7.039653831479623 0 0 0
344 0 2 0 1.2710827213579483 5.7521219659436715 7.794079140677328 0 0 0
132 0 2 0 0.9866107831214723 7.429120935322694 4.825342560029059 0 0 0
9 0 2 0 5.400787920178346 4.249960819536718 5.021013574270766 0 0 0
7 0 1 0 6.097014777303265 4.5016859238737865 5.599765622521982 0 0 0
136 0 1 0 5.994751351527478 7.1977524191063305 5.626362029490311 0 0 0
137 0 2 0 6.003045046131425 6.236425773519093 5.808791545070605 0 0 0
138 0 2 0 6.9134316558359945 7.447361083614662 5.435463968767155 0 0 0
53 0 2 0 11.669804301836917 4.171771341434982 4.999280342383972 0 0 0
63 0 2 0 8.359557301582543 5.430764017048073 7.450440611023883 0 0 0
61 0 1 0 9.127724078697142 5.23651693525645 6.840221124466827 0 0 0
166 0 1 0 8.540841186365608 7.221828366749451 5.079741150956464 0 0 0
167 0 2 0 8.915271174262335 6.592720686153356 5.767735907393544 0 0 0
62 0 2 0 9.864477414791784 5.217329060183371 7.509324042808652 0 0 0
173 0 2 0 11.787343739217818 7.553451001045033 4.752435108520531 0 0 0
399 0 2 0 15.876799561153186 3.9857335358163386 6.612255840909525 0 0 0
44 0 2 0 13.679366399071672 4.5341400847448785 5.440242095785771 0 0 0
43 0 1 0 12.890941125171079 4.589324197357284 5.974804546603959 0 0 0
45 0 2 0 12.670843041759234 5.53037008974331 5.89779509096192 0 0 0
172 0 1 0 12.576122095312572 7.318364247088585 5.2962848371628 0 0 0
174 0 2 0 13.377191643420533 7.720254070784319 4.959323860117896 0 0 0
416 0 2 0 14.696449566268186 5.584856593949861 7.782637061916674 0 0 0
202 0 1 0 15.180123426498485 7.797648873672305 5.024069765567589 0 0 0
99 0 2 0 15.748411185191681 6.615382815438339 5.9889141200608496 0 0 0
97 0 1 0 15.963506771901702 5.6789392618367005 6.37365075306052 0 0 0
417 0 2 0 13.247193702557247 5.548262226181347 8.335797360455905 0 0 0
81 0 2 0 18.694169619611074 4.555040867886991 4.8603627559097 0 0 0
79 0 1 0 19.40159103635856 4.790332589412496 5.506521344283286 0 0 0
80 0 2 0 19.256872041372546 5.775066540398552 5.589101318690657 0 0 0
98 0 2 0 16.839573213312455 5.8104923008086695 6.863523452271712 0 0 0
208 0 1 0 19.22530288457729 7.463849747752091 5.381897114505682 0 0 0
209 0 2 0 18.51131519276634 7.653036443622774 4.796985874364022 0 0 0
210 0 2 0 19.061360232727743 7.849899276219839 6.283502382929388 0 0 0
410 0 2 0 19.29231643823146 5.84279294299836 8.289157527068163 0 0 0
409 0 1 0 18.30252977974927 5.802901019952118 8.228962989897228 0 0 0
433 0 1 0 2.381097241748723 9.144190539816064 7.395577868831913 0 0 0
435 0 2 0 2.140007553670364 8.515742187367048 6.680890321148851 0 0 0
434 0 2 0 3.380958711528983 8.979303147037559 7.43479304932585 0 0 0
135 0 2 0 2.313361664018293 10.818173028074291 6.7820265991119575 0 0 0
189 0 2 0 -0.03396078782740375 10.92689675927389 5.0695061529046 1 0 0
133 0 1 0 2.4308488177492937 11.76047405926163 6.875103034402967 0 0 0
134 0 2 0 3.358498498253472 11.79646445442753 7.233782169496804 0 0 0
468 0 2 0 5.438867486152242 8.283252814669483 6.757572085553277 0 0 0
466 0 1 0 5.401972709260858 9.031049759371585 7.352788749195311 0 0 0
125 0 2 0 4.295248983816126 10.691676075905969 4.481688571020084 0 0 0
467 0 2 0 5.273830572798309 9.803481358323069 6.756607071372156 0 0 0
116 0 2 0 6.431787702298406 10.995779062607909 5.461134679656975 0 0 0
115 0 1 0 5.505159271598419 11.051369009642654 5.7460502903147725 0 0 0
117 0 2 0 5.324718449273968 11.95789268029695 5.940202714260287 0 0 0
500 0 2 0 8.211794403757166 8.913087272161238 8.124506838184494 0 0 0
168 0 2 0 8.735298898908153 8.075283165234534 5.585328889992948 0 0 0
469 0 1 0 9.239525328902454 9.263642963866943 6.692880112799512 0 0 0
471 0 2 0 10.138421042399528 9.256834005568479 7.1012994642533664 0 0 0
470 0 2 0 9.128670742430293 10.278719811226493 6.541833465989589 0 0 0
152 0 2 0 11.822242941100821 11.012521759722269 5.1970307028452485 0 0 0
169 0 1 0 9.482225756961506 11.890065218216229 6.615252137288348 0 0 0
502 0 1 0 12.07856419897054 9.076759267783382 7.249030310862713 0 0 0
503 0 2 0 12.20557221043578 8.307779091923944 6.655250347138719 0 0 0
203 0 2 0 15.503301554258805 8.539877473517187 5.557627060721031 0 0 0
507 0 2 0 15.483790173870066 9.085820000627903 8.061444559009633 0 0 0
505 0 1 0 15.964604001516909 9.419134311357888 7.274998608023796 0 0 0
504 0 2 0 12.332117952193169 9.882121594899006 6.819348776847957 0 0 0
151 0 1 0 12.540105263101253 11.169627856098943 5.8464866576381755 0 0 0
153 0 2 0 13.365009353684185 11.265283225901102 5.3088530311356 0 0 0
207 0 2 0 15.970222224895275 11.104069031976616 6.953368517412751 0 0 0
506 0 2 0 16.887734868815272 9.280379268472952 7.491794353087456 0 0 0
538 0 1 0 18.582790746401812 9.215709260974645 7.5707756041666885 0 0 0
540 0 2 0 18.82379961702099 9.93644990526756 6.979408125701851 0 0 0
187 0 1 0 19.35701145059985 11.221591607515139 5.7294870762802645 0 0 0
453 0 2 0 1.3499937580511971 12.425742134865413 7.987850044068078 0 0 0
238 0 1 0 1.7643632254154562 13.941863748437571 5.096501954597506 0 0 0
239 0 2 0 0.8323875491289607 14.138364509272705 5.3013757230286345 0 0 0
240 0 2 0 1.8816180733013061 13.17992817809003 5.685073061634778 0 0 0
542 0 2 0 2.390420514287913 15.2929532950445 6.403776369519301 0 0 0
573 0 2 0 1.3799767029676975 15.849237332741986 8.343905190722326 0 0 0
246 0 2 0 4.890760961196019 14.238006469203128 4.8253767016041795 0 0 0
244 0 1 0 5.37754087875788 14.009281594643415 5.622589949821986 0 0 0
245 0 2 0 5.415251405672566 14.769264836057465 6.24065238774776 0 0 0
276 0 2 0 7.209739292243326 13.641959673981434 4.9747689731472695 0 0 0
445 0 1 0 4.828878715757446 12.378272119175044 8.158052718358704 0 0 0
447 0 2 0 5.776263906053852 12.447016416993678 8.301714291561677 0 0 0
446 0 2 0 4.400305269355873 13.21734058672081 8.321974377244038 0 0 0
489 0 2 0 8.189895765893588 12.496143508975084 7.922737286757297 0 0 0
171 0 2 0 10.152575152687078 12.40796702291851 7.089780915989744 0 0 0
274 0 1 0 8.169592130016259 13.801361177170806 5.02695181211585 0 0 0
170 0 2 0 8.972809171911402 12.468006571269669 6.014023860124509 0 0 0
281 0 2 0 11.842348996268745 14.183842717710663 4.91578778944321 0 0 0
275 0 2 0 8.405646637783809 14.469704971995164 5.678958517449581 0 0 0
578 0 2 0 8.221610304913947 15.629963093454442 7.490028600439747 0 0 0
577 0 1 0 8.87980376254341 15.674636169597504 6.734153928452129 0 0 0
611 0 2 0 10.652990719421505 15.782549058074022 7.192441990837489 0 0 0
610 0 1 0 11.63341804943495 15.78468216901958 7.431122902803608 0 0 0
612 0 2 0 11.955833085793756 15.1948681248453 6.7099530430292615 0 0 0
481 0 1 0 11.322767952070876 12.667455431398986 8.244004172242754 0 0 0
282 0 2 0 12.635042072160381 13.250500730974073 5.986589211721364 0 0 0
280 0 1 0 12.557679667163992 14.096832680660508 5.59774666960816 0 0 0
311 0 2 0 14.349502613128553 14.195556667460194 5.405292602597933 0 0 0
206 0 2 0 15.35230003646383 12.407366273079566 7.449246756043242 0 0 0
310 0 1 0 15.30930020187177 14.263442644059966 5.335318115642836 0 0 0
312 0 2 0 15.676050000009834 13.345564597876855 5.539185820315729 0 0 0
614 0 2 0 15.679599877224499 15.58200121664426 6.324946756947759 0 0 0
645 0 2 0 14.518207551551486 15.705887879469286 8.382622454217932 0 0 0
205 0 1 0 16.027641237603007 12.070960513700658 6.82936348263009 0 0 0
318 0 2 0 18.55892686519028 14.450266254427715 4.917407308071497 0 0 0
188 0 2 0 19.191757497640182 12.168031219186917 5.603037917189199 0 0 0
518 0 2 0 17.50900408711737 12.315616961091912 7.823449617089711 0 0 0
316 0 1 0 19.148624389570685 14.02068985280118 5.5528199299077 0 0 0
317 0 2 0 19.213635269412563 14.677897303129111 6.25917749151511 0 0 0
648 0 2 0 19.308339123989768 15.747201607288376 8.133601947024804 0 0 0
647 0 2 0 17.86316157923096 15.855108070726827 7.4436384391005355 0 0 0
646 0 1 0 18.799345703021302 15.985085849661953 7.32239705700377 0 0 0
541 0 1 0 2.5948659243338756 16.135801885299998 6.871903537800612 0 0 0
543 0 2 0 3.5095511046168983 16.151085806762822 7.188499252437749 0 0 0
241 0 1 0 2.6048382302678585 18.891169193083616 6.5108534046833375 0 0 0
242 0 2 0 2.5753555229276293 17.934047445028202 6.600778412087773 0 0 0
243 0 2 0 3.4456627813944385 19.052193842918825 7.02797933509394 0 0 0
560 0 2 0 1.3117838103711714 18.928475070129426 7.9458471713927725 0 0 0
297 0 2 0 -0.003456058001274416 17.541557392611196 4.910401437040789 1 0 0
575 0 2 0 5.959650611975641 16.036328091485384 8.000608785450368 0 0 0
574 0 1 0 5.289390225825694 16.177935366747064 7.261662575189478 0 0 0
224 0 2 0 5.355231917076682 17.92903664478967 4.827398957125669 0 0 0
225 0 2 0 6.869227033907919 17.978434688782023 5.444641164857867 0 0 0
223 0 1 0 5.924461139870032 18.256109856982306 5.650389534077137 0 0 0
576 0 2 0 5.49690312197086 16.99274952688694 6.753024842820952 0 0 0
60 0 2 0 9.01042675829007 19.874920552532068 5.553856181339594 0 -1 0
278 0 2 0 8.526904338068949 18.729411259076986 7.667835604535743 0 0 0
579 0 2 0 8.924649498288499 16.663925837754448 6.742776850794389 0 0 0
277 0 1 0 9.18644098843241 18.470164079802633 7.026282775732571 0 0 0
279 0 2 0 10.001920187813582 18.485199077816347 7.533511564608682 0 0 0
261 0 2 0 12.294121373328181 17.30276396588327 6.527709253891452 0 0 0
299 0 2 0 14.21271141132451 17.466281873140456 4.7028406435534755 0 0 0
259 0 1 0 12.455455307920626 17.833404304921896 5.7035943969271665 0 0 0
260 0 2 0 12.74115276912102 18.70668320904087 5.976671241115429 0 0 0
315 0 2 0 15.070921559937439 19.176859090453526 7.448663182635734 0 0 0
314 0 2 0 15.961825899474697 19.421876552151353 6.216174262645816 0 0 0
613 0 1 0 15.804638731904447 16.1764840683405 7.094060421557908 0 0 0
615 0 2 0 15.716974349997308 17.142518981419503 6.872110135806266 0 0 0
313 0 1 0 15.754773400263291 18.815367563126994 6.913597059356836 0 0 0
102 0 2 0 19.474549158515124 19.557359054229213 5.218903675167432 0 -1 0
295 0 1 0 19.163268811836566 17.728978796942165 5.213180730016236 0 0 0
296 0 2 0 19.090032908941467 17.15211569600843 5.996184861948161 0 0 0
627 0 2 0 17.189137889444197 19.207785274130067 7.7036062206221265 0 0 0
626 0 2 0 18.79130525103043 19.40591717327303 7.988813966131271 0 0 0
625 0 1 0 17.90745078394992 19.467878071913443 8.361651541542802 0 0 0
355 0 1 0 0.9267079012679008 1.9413533602980553 8.799820463834724 0 0 0
335 0 2 0 1.0514651936705077 3.2191536548937143 10.239995871074942 0 0 0
346 0 1 0 2.119030450659779 0.6645496206283311 11.533497852150136 0 0 0
347 0 2 0 2.437503152251779 0.8896130254542721 10.618503140809478 0 0 0
348 0 2 0 1.1389748435684561 0.7051990629734498 11.489866867691205 0 0 0
334 0 1 0 1.1580186598726647 3.9437706721893466 10.85512425278791 0 0 0
329 0 2 0 4.196614391758283 2.8033566369905203 10.382764317316964 0 0 0
328 0 1 0 4.403371421834566 1.835081313632821 10.194335719100312 0 0 0
330 0 2 0 5.052670031779585 1.5721827046225765 10.852596157663319 0 0 0
393 0 2 0 7.963669388262783 1.022526166479079 9.567636698512118 0 0 0
353 0 2 0 7.171915855632311 0.6447495288562032 12.13099308339488 0 0 0
352 0 1 0 6.210596557639757 0.5228399402145228 12.29306535301052 0 0 0
372 0 2 0 7.721443457115475 3.5998305238685155 10.324813221221513 0 0 0
391 0 1 0 7.856516711034305 1.9732722148890414 9.37101834184495 0 0 0
554 0 2 0 4.559764076049507 0.19944730391484322 8.977791214525656 0 1 0
392 0 2 0 8.555280121063358 2.0688524448828307 8.739632679785458 0 0 0
382 0 1 0 8.900349668460208 0.5160511444748704 12.00190726338641 0 0 0
366 0 2 0 10.042777525002029 0.6736499181157015 10.697964311608505 0 0 0
364 0 1 0 10.781561823151096 1.0923771923969838 10.236160809757479 0 0 0
378 0 2 0 10.794949695764242 2.8634777756103813 10.490508800767143 0 0 0
365 0 2 0 11.498521197527 0.8555647991463926 10.868831575138014 0 0 0
376 0 1 0 10.71549302837467 3.7843275801524694 10.797625333813246 0 0 0
377 0 2 0 11.544541233917153 3.942996399493911 11.287236643834428 0 0 0
429 0 2 0 14.758547659790452 2.5421416574488718 8.581797659268585 0 0 0
427 0 1 0 14.169776223519987 2.144231945241248 9.228180737481434 0 0 0