LAMMPS (23 Jun 2022)
echo both

include		in.partitions
variable        pid world 0
include		in.temp
variable        temperature equal 265
variable        tempDamp equal 0.100 # this is 0.1 ps
include		in.pressure
variable        pressure equal 5066.25
variable        pressureDamp equal 1.0 #this is 1ps
include		in.seed
variable        seed world 745823

units           metal
atom_style	full
include		in.box
read_data       iceIII.data
Reading data file ...
  orthogonal box = (0 0 0) to (19.991053 19.991053 20.800772)
  1 by 1 by 1 MPI processor grid
  reading atoms ...
  972 atoms
Finding 1-2 1-3 1-4 neighbors ...
  special bond factors lj:    0        0        0       
  special bond factors coul:  0        0        0       
     0 = max # of 1-2 neighbors
     0 = max # of 1-3 neighbors
     0 = max # of 1-4 neighbors
     1 = max # of special neighbors
  special bonds CPU = 0.000 seconds
  read_data CPU = 0.010 seconds
include 	in.setup
variable	out_freq equal 500
variable	out_freq2 equal 500

timestep        0.0005

neigh_modify    delay 7 every 1

include         in.deepmd
# This is deepMD model

# create groups ###
#group ox type 2
#group hy type 1

mass 2 15.999
mass 1 1.008

pair_style      deepmd ../graph.pb
Summary of lammps deepmd module ...
  >>> Info of deepmd-kit:
  installed to:       /u/sigbjobo/software/DEEPMD_FROM_SOURCE/deepmd-kit/install
  source:             v2.1.3
  source branch:       master
  source commit:      5a32c49
  source commit at:   2022-07-01 09:52:58 +0800
  surpport model ver.:1.1 
  build float prec:   double
  build with tf inc:  /u/sigbjobo/software/DEEPMD_FROM_SOURCE/tensorflow/install/include;/u/sigbjobo/software/DEEPMD_FROM_SOURCE/tensorflow/install/include
  build with tf lib:  /u/sigbjobo/software/DEEPMD_FROM_SOURCE/tensorflow/install/lib/libtensorflow_cc.so;/u/sigbjobo/software/DEEPMD_FROM_SOURCE/tensorflow/install/lib/libtensorflow_framework.so
  set tf intra_op_parallelism_threads: 0
  set tf inter_op_parallelism_threads: 0
  >>> Info of lammps module:
  use deepmd-kit at:  /u/sigbjobo/software/DEEPMD_FROM_SOURCE/deepmd-kit/install
  source:             v2.1.3
  source branch:      master
  source commit:      5a32c49
  source commit at:   2022-07-01 09:52:58 +0800
  build float prec:   double
  build with tf inc:  /u/sigbjobo/software/DEEPMD_FROM_SOURCE/tensorflow/install/include;/u/sigbjobo/software/DEEPMD_FROM_SOURCE/tensorflow/install/include
  build with tf lib:  /u/sigbjobo/software/DEEPMD_FROM_SOURCE/tensorflow/install/lib/libtensorflow_cc.so;/u/sigbjobo/software/DEEPMD_FROM_SOURCE/tensorflow/install/lib/libtensorflow_framework.so
pair_coeff      * *

bond_style      none
angle_style     none
dihedral_style  none
improper_style  none
neigh_modify exclude none


neighbor        2.0 bin
neigh_modify    every 10 delay 0 check no

thermo          ${out_freq}
thermo          500
thermo_style 	custom step temp pe etotal epair emol press lx ly lz xy xz yz vol pxx pyy pzz pxy pxz pyz cella cellb cellc cellalpha cellbeta cellgamma

restart 	${out_freq} restart.lmp.${pid} restart2.lmp.${pid}
restart 	500 restart.lmp.${pid} restart2.lmp.${pid}
restart 	500 restart.lmp.0 restart2.lmp.${pid}
restart 	500 restart.lmp.0 restart2.lmp.0


include         in.dump
dump            myDump all atom ${out_freq2} dump.water.${pid}
dump            myDump all atom 500 dump.water.${pid}
dump            myDump all atom 500 dump.water.0
dump            myDump2 all dcd ${out_freq2} dump.dcd
dump            myDump2 all dcd 500 dump.dcd
dump_modify     myDump append yes
dump_modify     myDump2 append yes


timer           timeout 04:55:00 every 1000
New timer settings: style=normal  mode=nosync  timeout=04:55:00

fix             2 all nph aniso ${pressure} ${pressure} ${pressureDamp}
fix             2 all nph aniso 5066.25 ${pressure} ${pressureDamp}
fix             2 all nph aniso 5066.25 5066.25 ${pressureDamp}
fix             2 all nph aniso 5066.25 5066.25 1
fix             3 all temp/csvr ${temperature} ${temperature} ${tempDamp} ${seed}
fix             3 all temp/csvr 265 ${temperature} ${tempDamp} ${seed}
fix             3 all temp/csvr 265 265 ${tempDamp} ${seed}
fix             3 all temp/csvr 265 265 0.1 ${seed}
fix             3 all temp/csvr 265 265 0.1 745823
velocity 	all create ${temperature} ${seed} dist gaussian
velocity 	all create 265 ${seed} dist gaussian
velocity 	all create 265 745823 dist gaussian

run             400000

CITE-CITE-CITE-CITE-CITE-CITE-CITE-CITE-CITE-CITE-CITE-CITE-CITE

Your simulation uses code contributions which should be cited:

- USER-DEEPMD package:

@article{Wang_ComputPhysCommun_2018_v228_p178,
  author = {Wang, Han and Zhang, Linfeng and Han, Jiequn and E, Weinan},
  doi = {10.1016/j.cpc.2018.03.016},
  url = {https://doi.org/10.1016/j.cpc.2018.03.016},
  year = 2018,
  month = {jul},
  publisher = {Elsevier {BV}},
  volume = 228,
  journal = {Comput. Phys. Commun.},
  title = {{DeePMD-kit: A deep learning package for many-body potential energy representation and molecular dynamics}},
  pages = {178--184}
}

CITE-CITE-CITE-CITE-CITE-CITE-CITE-CITE-CITE-CITE-CITE-CITE-CITE

Generated 0 of 1 mixed pair_coeff terms from geometric mixing rule
Neighbor list info ...
  update every 10 steps, delay 0 steps, check no
  max neighbors/atom: 2000, page size: 100000
  master list distance cutoff = 8
  ghost atom cutoff = 8
  binsize = 4, bins = 5 5 6
  1 neighbor lists, perpetual/occasional/extra = 1 0 0
  (1) pair deepmd, perpetual
      attributes: full, newton on
      pair build: full/bin
      stencil: full/bin/3d
      bin: standard
Per MPI rank memory allocation (min/avg/max) = 7.648 | 7.648 | 7.648 Mbytes
   Step          Temp          PotEng         TotEng         E_pair         E_mol          Press            Lx             Ly             Lz             Xy             Xz             Yz           Volume          Pxx            Pyy            Pzz            Pxy            Pxz            Pyz           Cella          Cellb          Cellc        CellAlpha       CellBeta      CellGamma   
         0   265           -175.65013     -142.38956     -175.65013      0              37792.124      19.991053      19.991053      20.800772      0              0              0              8312.8663      41560.269      42048.299      29767.804     -62.884948     -1050.0672     -451.78328      19.991053      19.991053      20.800772      90             90             90           
       500   261.27796     -161.41734     -128.62392     -161.41734      0              2337.0801      19.922876      19.831567      20.405151      0              0              0              8062.1126      2973.8418      3325.5759      711.82257     -353.66179     -765.74743     -1199.4987      19.922876      19.831567      20.405151      90             90             90           
      1000   271.93757     -160.20122     -126.0699      -160.20122      0              2034.1721      20.052589      19.947335      20.20558       0              0              0              8082.1453      2753.8135      2069.0192      1279.6837     -1808.8808      152.8429      -222.26666      20.052589      19.947335      20.20558       90             90             90           
      1500   259.71677     -160.4488      -127.85133     -160.4488       0              13465.401      20.171085      20.064574      20.206627      0              0              0              8178.1112      10922.263      15418.273      14055.666     -111.51747      53.399488     -405.06997      20.171085      20.064574      20.206627      90             90             90           
      2000   252.74557     -157.10324     -125.38074     -157.10324      0              1498.4158      20.101735      20.04262       20.230835      0              0              0              8150.8304      1694.5405      4480.3573     -1679.6503      85.153031      745.43455     -401.78851      20.101735      20.04262       20.230835      90             90             90           
      2500   273.24342     -158.44838     -124.15316     -158.44838      0              8443.8731      19.868179      20.084882      20.334875      0              0              0              8114.6326      10338.718      4105.7588      10887.143      1974.0589      3038.1287     -2202.4916      19.868179      20.084882      20.334875      90             90             90           
      3000   261.62428     -157.61887     -124.78199     -157.61887      0              4344.9203      19.886036      20.11673       20.516633      0              0              0              8207.5151      4615.3592      2919.1061      5500.2956      892.87113      2580.6421      1758.4057      19.886036      20.11673       20.516633      90             90             90           
      3500   258.09322     -157.68715     -125.29346     -157.68715      0              4080.6657      20.106862      19.922136      20.424963      0              0              0              8181.6608      1067.9311      3956.2882      7217.7777     -676.84535      3269.9034      1578.9475      20.106862      19.922136      20.424963      90             90             90           
      4000   273.92428     -160.45454     -126.07387     -160.45454      0              4705.8078      20.21469       19.874978      20.291367      0              0              0              8152.3918      3595.6662      6369.9292      4151.8279     -1787.7068     -762.06051     -87.936106      20.21469       19.874978      20.291367      90             90             90           
      4500   273.43026     -160.27759     -125.95893     -160.27759      0              7150.9303      20.079855      20.018448      20.172469      0              0              0              8108.6776      8593.6104      6042.036       6817.1446     -1724.5048     -930.40335      952.93279      20.079855      20.018448      20.172469      90             90             90           
      5000   253.99218     -158.01689     -126.13792     -158.01689      0              1443.7145      20.017074      20.133317      20.267682      0              0              0              8168.0806      38.717979      3542.7278      749.69787      921.7756      -1595.3918     -592.19221      20.017074      20.133317      20.267682      90             90             90           
      5500   261.90118     -160.09212     -127.22049     -160.09212      0              3737.1621      19.951583      20.043272      20.490233      0              0              0              8193.9422      6082.9228      3407.8949      1720.6686     -187.44008      1703.452       438.19612      19.951583      20.043272      20.490233      90             90             90           
      6000   273.60838     -159.61289     -125.27186     -159.61289      0              5773.9535      19.869443      19.834508      20.530071      0              0              0              8090.914       3388.462       7129.8755      6803.523       648.67581      154.3971      -931.6725       19.869443      19.834508      20.530071      90             90             90           
      6500   261.8178      -159.67759     -126.81642     -159.67759      0              4638.3219      20.023778      19.938843      20.371385      0              0              0              8133.2952      1438.556       8013.8127      4462.5971      946.86771      1834.834      -969.11641      20.023778      19.938843      20.371385      90             90             90           
      7000   271.40982     -158.3306      -124.26552     -158.3306       0              2100.0449      20.239884      20.203767      20.195553      0              0              0              8258.404       1434.8967      1158.3827      3706.8553     -2185.2241      1006.9267      2129.6604      20.239884      20.203767      20.195553      90             90             90           
      7500   267.71981     -157.56172     -123.95978     -157.56172      0              5971.56        20.074377      20.097766      20.054361      0              0              0              8090.9348      5225.9141      6538.2116      6150.5543      1384.9492      195.54656      887.12557      20.074377      20.097766      20.054361      90             90             90           
      8000   265.61883     -159.47495     -126.13671     -159.47495      0              4971.2019      20.060801      20.00455       20.266506      0              0              0              8133.0967      5423.2862      2550.8828      6939.4365     -1039.5201      746.33218      1108.2608      20.060801      20.00455       20.266506      90             90             90           
      8500   267.18299     -160.53092     -126.99636     -160.53092      0              5210.6147      20.078051      20.011468      20.492927      0              0              0              8233.8796      9417.5149      2573.82        3640.5093      1944.334       2446.1893      242.47044      20.078051      20.011468      20.492927      90             90             90           
      9000   269.41967     -157.80199     -123.98669     -157.80199      0              8728.1588      19.946779      19.956783      20.385897      0              0              0              8115.0863      7876.8538      9666.5932      8641.0295     -68.853132      2987.3869     -1466.7114      19.946779      19.956783      20.385897      90             90             90           
      9500   273.53279     -159.09394     -124.7624      -159.09394      0              1726.0424      20.044209      20.014628      20.28959       0              0              0              8139.725       3332.3909     -440.30412      2286.0404     -826.49698     -699.90234      1978.2473      20.044209      20.014628      20.28959       90             90             90           
     10000   267.76807     -157.25454     -123.64654     -157.25454      0              3327.4151      20.245277      20.105969      20.233982      0              0              0              8236.2608      3573.9194      3624.3648      2783.9611      92.665376      70.459048     -612.15824      20.245277      20.105969      20.233982      90             90             90           
     10500   274.31772     -156.41967     -121.98962     -156.41967      0              4794.811       20.184097      20.00443       20.128768      0              0              0              8127.4201      283.39675      9550.2664      4550.7699      1599.0155      1478.6986      1587.1658      20.184097      20.00443       20.128768      90             90             90           
     11000   272.19195     -158.89879     -124.73554     -158.89879      0              4624.5233      19.984193      20.03877       20.348981      0              0              0              8148.9252      5879.6111      3096.7301      4897.2287      47.791378      4117.1899     -473.72467      19.984193      20.03877       20.348981      90             90             90           
     11500   268.04611     -159.71871     -126.07581     -159.71871      0              6338.549       19.881163      20.104278      20.713192      0              0              0              8278.989       8390.1095      7091.6273      3533.9102      336.13289     -1635.52        1296.1917      19.881163      20.104278      20.713192      90             90             90           
     12000   267.36056     -157.74253     -124.18568     -157.74253      0              7620.8058      19.824694      19.855744      20.561204      0              0              0              8093.59        11065.072      3646.4918      8150.854       290.62538      1166.3021     -287.78452      19.824694      19.855744      20.561204      90             90             90           
     12500   263.44019     -157.28032     -124.21552     -157.28032      0              4236.6544      20.125876      19.977274      20.347127      0              0              0              8180.7688      3615.8143      5902.5797      3191.5693     -1326.2978      1045.5089     -1189.1891      20.125876      19.977274      20.347127      90             90             90           
     13000   270.97885     -157.59911     -123.58812     -157.59911      0              5017.3876      20.197911      20.169963      20.12912       0              0              0              8200.4246      4832.2503      5344.7296      4875.183      -1257.919      -94.801899     -598.65998      20.197911      20.169963      20.12912       90             90             90           
     13500   263.98262     -158.99141     -125.85853     -158.99141      0              3426.7508      20.075072      20.12874       20.088296      0              0              0              8117.3973      5066.9842      99.156923      5114.1113     -170.5084       755.0088       1205.7919      20.075072      20.12874       20.088296      90             90             90           
     14000   263.17027     -160.08982     -127.0589      -160.08982      0              4934.3233      20.019079      19.992464      20.308155      0              0              0              8127.9474      4368.2078      3899.3031      6535.459       132.98248     -1940.1735     -1594.5581      20.019079      19.992464      20.308155      90             90             90           
     14500   250.32755     -159.72167     -128.30266     -159.72167      0              7661.4166      20.063909      19.974226      20.510726      0              0              0              8219.9         7243.3206      8620.2772      7120.652       1927.2509     -898.52113     -143.88679      20.063909      19.974226      20.510726      90             90             90           
     15000   274.79136     -159.10013     -124.61063     -159.10013      0              5038.3438      20.038017      19.990712      20.489226      0              0              0              8207.4558      10476.337      2785.8837      1852.8106     -437.26236      2410.6927     -941.76948      20.038017      19.990712      20.489226      90             90             90           
     15500   271.0693      -158.99877     -124.97643     -158.99877      0              7418.839       19.966136      19.986959      20.194344      0              0              0              8058.8021      9374.5196      5258.9139      7623.0834      758.38682      3711.8241      10.808924      19.966136      19.986959      20.194344      90             90             90           
     16000   266.30672     -158.38228     -124.9577      -158.38228      0              4102.0321      20.13666       20.121106      20.192064      0              0              0              8181.2565      489.97258      4210.966       7605.1578     -787.91563      242.43721     -900.81195      20.13666       20.121106      20.192064      90             90             90           
     16500   271.91481     -158.63732     -124.50886     -158.63732      0              6217.1155      20.085113      20.042199      20.263251      0              0              0              8156.9681      1683.3624      9038.5757      7929.4084     -905.0546      -889.81032      130.74814      20.085113      20.042199      20.263251      90             90             90           
     17000   277.60673     -159.72041     -124.87754     -159.72041      0              4540.4587      19.98798       19.970076      20.397177      0              0              0              8141.7675      7523.8499      1524.0562      4573.4699      540.55467      2529.2205     -2891.0196      19.98798       19.970076      20.397177      90             90             90           
     17500   267.03843     -158.67912     -125.1627      -158.67912      0              8006.0666      20.036368      20.005312      20.461774      0              0              0              8201.7704      9046.0541      7379.5723      7592.5734     -490.57587     -738.30099      1481.497       20.036368      20.005312      20.461774      90             90             90           
     18000   263.24614     -159.83241     -126.79196     -159.83241      0              3912.5318      20.126627      20.023707      20.374868      0              0              0              8211.269       3233.3875      5121.1436      3383.0644      85.376556     -2438.3267     -613.72794      20.126627      20.023707      20.374868      90             90             90           
     18500   261.36231     -159.25292     -126.44892     -159.25292      0              7905.801       20.090001      19.913046      20.262041      0              0              0              8105.8925      8965.4259      6693.1425      8058.8346      2097.4614      4522.4149      678.05554      20.090001      19.913046      20.262041      90             90             90           
     19000   262.99777     -158.84953     -125.84026     -158.84953      0              9132.901       20.003177      20.017649      20.269235      0              0              0              8116.138       7687.6899      12144.067      7566.9465      1409.5893      599.1585      -1000.117       20.003177      20.017649      20.269235      90             90             90           
     19500   274.81081     -160.12951     -125.63757     -160.12951      0              4508.6588      20.045014      20.271757      20.398772      0              0              0              8288.9932      4227.1671      5579.8253      3718.9839      62.167737      1808.2237      2232.9797      20.045014      20.271757      20.398772      90             90             90           
     20000   257.18323     -158.98489     -126.70541     -158.98489      0              6964.4084      19.95112       20.024377      20.245568      0              0              0              8088.2815      11276.217      3221.8571      6395.1513      646.077        757.99304      65.662587      19.95112       20.024377      20.245568      90             90             90           
     20500   259.90831     -159.44546     -126.82395     -159.44546      0              6043.6257      20.108643      19.794883      20.316562      0              0              0              8086.9715      5147.4832      7106.0852      5877.3086     -576.45948      1365.9805      3558.9924      20.108643      19.794883      20.316562      90             90             90           
     21000   267.63547     -160.22093     -126.62957     -160.22093      0              3707.1765      20.230298      19.950297      20.461271      0              0              0              8258.1782      6769.5458      2645.5809      1706.4028     -1603.2181      1167.2322     -1094.4653      20.230298      19.950297      20.461271      90             90             90           
     21500   264.45669     -161.42528     -128.2329      -161.42528      0              6779.3237      19.938776      20.030097      20.26473       0              0              0              8093.2387      5728.0117      5448.1744      9161.7849      523.90421     -1198.5318      2446.6496      19.938776      20.030097      20.26473       90             90             90           
     22000   277.96689     -160.61387     -125.7258      -160.61387      0              6357.631       19.929503      20.137441      20.240341      0              0              0              8123.0397      10599.81       1245.5843      7227.4993      537.72292     -660.45008      1778.3646      19.929503      20.137441      20.240341      90             90             90           
     22500   267.99523     -159.37422     -125.73771     -159.37422      0              5888.0313      20.128231      20.134186      20.254516      0              0              0              8208.4577      4540.2327      6038.7762      7085.0851      1955.9638     -592.6191      -548.10441      20.128231      20.134186      20.254516      90             90             90           
     23000   255.4877      -159.29894     -127.23227     -159.29894      0              5854.389       20.101922      20.039363      20.208273      0              0              0              8140.493       4428.6677      8397.5004      4736.9988     -714.52143     -334.08322      2321.4258      20.101922      20.039363      20.208273      90             90             90           
     23500   257.52748     -157.63785     -125.31516     -157.63785      0              6734.5151      19.959205      19.984011      20.324341      0              0              0              8106.6678      8283.9769      4342.6068      7576.9616      455.39876      536.81917      2548.7828      19.959205      19.984011      20.324341      90             90             90           
     24000   271.16081     -158.14725     -124.11342     -158.14725      0              8085.4001      19.925758      20.080153      20.563384      0              0              0              8227.6622      9908.7731      7509.5431      6837.8841     -950.19942      1857.0864     -2701.6315      19.925758      20.080153      20.563384      90             90             90           
     24500   272.16097     -159.04708     -124.88773     -159.04708      0              501.63407      20.033448      20.005939      20.602175      0              0              0              8257.1032     -500.00752      3089.1334     -1084.2237      1418.9834     -3084.0677      3881.1039      20.033448      20.005939      20.602175      90             90             90           
     25000   266.77397     -157.52966     -124.04643     -157.52966      0              5013.2863      20.142677      19.831647      20.290419      0              0              0              8105.2605      3640.7516      4694.2243      6704.8829     -2027.7749     -1701.7602      3103.4631      20.142677      19.831647      20.290419      90             90             90           
     25500   273.84281     -158.4939      -124.12345     -158.4939       0              7588.6485      20.202971      19.998109      20.066279      0              0              0              8107.2022      6331.5898      7369.1988      9065.1571      2177.8323      450.82716     -1681.8954      20.202971      19.998109      20.066279      90             90             90           
     26000   280.1025      -159.15146     -123.99534     -159.15146      0              2584.0589      20.125607      20.276109      20.225388      0              0              0              8253.3543      5809.9906      1141.9433      800.24265     -310.45121      2731.8757      1120.2733      20.125607      20.276109      20.225388      90             90             90           
     26500   256.15366     -158.20814     -126.05789     -158.20814      0              4985.3042      19.893527      20.120571      20.31098       0              0              0              8129.8581      4473.2929      6087.46        4395.1597      276.27982     -977.80893      1075.4316      19.893527      20.120571      20.31098       90             90             90           
     27000   269.05388     -157.03297     -123.26359     -157.03297      0              4991.4147      19.94003       19.939245      20.427567      0              0              0              8121.7786      4188.1858      4215.1629      6570.8954      2325.8916      1079.6987     -1938.429       19.94003       19.939245      20.427567      90             90             90           
     27500   266.3543      -158.3238      -124.89324     -158.3238       0              7757.2013      20.067436      19.889584      20.37017       0              0              0              8130.4059      10667.292      6792.7645      5811.5473      443.80197      2940.9039     -1028.6871      20.067436      19.889584      20.37017       90             90             90           
     28000   256.25979     -158.4596      -126.29603     -158.4596       0             -88.15937       20.233698      20.048595      20.292046      0              0              0              8231.6153     -2143.8241      2002.5975     -123.25147     -119.03172      1259.8176      1311.7412      20.233698      20.048595      20.292046      90             90             90           
     28500   267.80303     -157.6665      -124.05411     -157.6665       0              2671.3885      20.166369      19.98234       20.204227      0              0              0              8141.7221      2931.97        5041.0135      41.181942     -386.17363     -777.87592     -854.64424      20.166369      19.98234       20.204227      90             90             90           
     29000   275.37999     -159.58934     -125.02595     -159.58934      0              5304.3612      20.030864      19.939054      20.274029      0              0              0              8097.3759      7821.2681      3781.65        4310.1656     -55.593384     -213.82192     -391.67224      20.030864      19.939054      20.274029      90             90             90           
     29500   267.23383     -157.74742     -124.20647     -157.74742      0              4905.4246      20.088156      20.152094      20.458264      0              0              0              8281.8819      6014.0158      5078.3148      3623.9432      2060.1532      1100.879       2389.3719      20.088156      20.152094      20.458264      90             90             90           
     30000   274.10117     -156.04996     -121.64708     -156.04996      0              7631.1244      19.987536      20.103436      20.456996      0              0              0              8219.9922      10209.5        4243.815       8440.0586     -2419.0402      401.4919       1996.4572      19.987536      20.103436      20.456996      90             90             90           
     30500   265.66052     -157.01654     -123.67307     -157.01654      0              2280.5284      19.903819      20.007217      20.391905      0              0              0              8120.4648      2341.6617      3209.4773      1290.4463     -1223.8184      3069.8876     -613.15606      19.903819      20.007217      20.391905      90             90             90           
     31000   269.82918     -156.83951     -122.97282     -156.83951      0              5450.1434      20.090839      20.067316      20.464476      0              0              0              8250.6466      4743.3213      8990.6295      2616.4793      728.54906      1733.7967      599.95737      20.090839      20.067316      20.464476      90             90             90           
     31500   269.80736     -157.82336     -123.9594      -157.82336      0              6380.9914      20.137385      19.911608      20.32027       0              0              0              8147.7723      6352.4962      7455.9121      5334.566       447.76759      2547.8128      757.88537      20.137385      19.911608      20.32027       90             90             90           
     32000   273.36029     -160.20809     -125.8982      -160.20809      0              5466.7168      20.095505      19.905997      20.180798      0              0              0              8072.7444      3937.1585      6252.2925      6210.6993     -227.90759     -2540.4952      174.78635      20.095505      19.905997      20.180798      90             90             90           
     32500   267.09365     -157.96534     -124.44199     -157.96534      0              2367.7626      20.228199      20.149476      20.377917      0              0              0              8305.7863      1450.425       3988.4773      1664.3855     -153.33357      1161.3514     -587.07636      20.228199      20.149476      20.377917      90             90             90           
     33000   276.23246     -159.09959     -124.42921     -159.09959      0              6335.1155      19.988377      20.003664      20.302363      0              0              0              8117.7127      5289.6983      7921.8248      5793.8233     -273.11682     -2855.0138     -1431.5879      19.988377      20.003664      20.302363      90             90             90           
     33500   262.01435     -158.52606     -125.64021     -158.52606      0              4399.0111      19.933186      20.007114      20.42022       0              0              0              8143.6964      4652.1915      5934.0142      2610.8276     -528.6622       2750.8641     -594.11279      19.933186      20.007114      20.42022       90             90             90           
     34000   261.43348     -160.43139     -127.61845     -160.43139      0              4834.0296      20.066254      20.138492      20.466677      0              0              0              8270.6683      5455.1061      6188.8382      2858.1444      494.97493      1335.3525     -1525.1715      20.066254      20.138492      20.466677      90             90             90           
     34500   250.11871     -159.42511     -128.03231     -159.42511      0              3471.0557      20.026063      20.03181       20.121926      0              0              0              8072.0776      2125.1332      5804.1307      2483.9031      565.39691      974.35964     -1687.9484      20.026063      20.03181       20.121926      90             90             90           
     35000   256.73361     -161.00191     -128.77886     -161.00191      0              6247.54        20.178724      20.05946       20.03497       0              0              0              8109.6414      5179.5022      7000.3326      6562.7852     -597.19252      1797.1177      2608.0082      20.178724      20.05946       20.03497       90             90             90           
     35500   260.91947     -159.76723     -127.01881     -159.76723      0              5231.2259      20.214228      20.051168      20.149253      0              0              0              8166.8726      4059.0756      7372.6992      4261.9027      1639.1675      1148.5829      1475.494       20.214228      20.051168      20.149253      90             90             90           
     36000   265.25817     -159.53426     -126.24128     -159.53426      0              7414.8796      20.039514      19.949426      20.406158      0              0              0              8157.9088      6868.0898      8896.8184      6479.7305     -678.59805      1679.1048     -795.10279      20.039514      19.949426      20.406158      90             90             90           
     36500   268.04273     -159.21125     -125.56878     -159.21125      0              7764.4104      19.916752      20.013009      20.583276      0              0              0              8204.373       14353.944      4804.6554      4134.632       654.1589       802.88352      3275.3583      19.916752      20.013009      20.583276      90             90             90           
     37000   266.13545     -158.80729     -125.4042      -158.80729      0              9247.1889      19.860112      20.070497      20.397093      0              0              0              8130.3286      10481.107      10185.738      7074.7217      1360.7871      3126.1831     -2421.1378      19.860112      20.070497      20.397093      90             90             90           
     37500   266.55671     -159.88082     -126.42486     -159.88082      0              6678.4925      20.134807      20.155937      20.265183      0              0              0              8224.3388      5298.3204      7000.2371      7736.9201      771.27602      360.89621     -1701.2518      20.134807      20.155937      20.265183      90             90             90           
     38000   273.71974     -158.38879     -124.03378     -158.38879      0              5636.7082      20.180511      20.036578      20.083445      0              0              0              8120.7081      3060           7006.4041      6843.7205      1147.8868      1233.3519      304.93167      20.180511      20.036578      20.083445      90             90             90           
     38500   271.24981     -158.69989     -124.6549      -158.69989      0              7651.5442      20.091333      19.995237      20.230666      0              0              0              8127.2853      6153.254       9354.8648      7446.5139      292.71351      1180.8977      1658.0732      20.091333      19.995237      20.230666      90             90             90           
     39000   253.45206     -158.17674     -126.36557     -158.17674      0              653.02916      20.076044      20.060303      20.5196        0              0              0              8263.8896     -4084.5511      4146.1373      1897.5012      987.71431      878.07069      1439.6213      20.076044      20.060303      20.5196        90             90             90           
     39500   262.00725     -157.97571     -125.09076     -157.97571      0              7180.6574      19.902122      19.865147      20.445044      0              0              0              8083.1234      7727.3566      7022.0303      6792.5855      1072.3479     -2272.3804      649.57587      19.902122      19.865147      20.445044      90             90             90           
     40000   266.79693     -159.69535     -126.20924     -159.69535      0              6586.924       20.070726      20.025644      20.405313      0              0              0              8201.4912      4597.022       10640.292      4523.4583     -88.617965      212.48437     -1617.883       20.070726      20.025644      20.405313      90             90             90           
     40500   258.14318     -158.59691     -126.19694     -158.59691      0              2184.146       20.26244       20.170041      20.272419      0              0              0              8285.2209      2441.1912      1211.3121      2899.9347     -1542.4231     -1871.6648     -1171.8797      20.26244       20.170041      20.272419      90             90             90           
     41000   259.14145     -158.32784     -125.80258     -158.32784      0              6406.367       20.14732       19.969494      20.068456      0              0              0              8074.1778      4451.7847      10129.282      4638.034       2205.0658     -497.0951      -1476.0659      20.14732       19.969494      20.068456      90             90             90           
     41500   255.78706     -157.32433     -125.22009     -157.32433      0              3757.1309      20.125356      20.051877      20.211764      0              0              0              8156.4811      4328.3403      2047.7822      4895.2702     -616.55909      2531.9867     -2684.8284      20.125356      20.051877      20.211764      90             90             90           
     42000   259.66292     -158.25307     -125.66236     -158.25307      0              5982.2348      19.995157      20.072399      20.351466      0              0              0              8168.0767      3816.8909      9174.0311      4955.7825      562.33465     -34.828628      2198.2803      19.995157      20.072399      20.351466      90             90             90           
     42500   275.47791     -159.00466     -124.42898     -159.00466      0              5015.4918      20.016878      20.076062      20.444046      0              0              0              8215.6462      5888.3126      3079.5978      6078.5651     -456.89832      129.92183     -118.69316      20.016878      20.076062      20.444046      90             90             90           
     43000   271.44106     -157.84098     -123.77198     -157.84098      0              2198.5588      20.079515      19.943119      20.363204      0              0              0              8154.4078      1256.1342      2041.3324      3298.2099     -235.79772      1094.3003      1317.3242      20.079515      19.943119      20.363204      90             90             90           
     43500   265.3113      -158.83292     -125.53327     -158.83292      0              6546.1068      20.127128      19.924987      20.2365        0              0              0              8115.4995      3624.6046      11335.563      4678.1526      1207.5373     -2793.9778      424.24962      20.127128      19.924987      20.2365        90             90             90           
     44000   269.00328     -159.48174     -125.7187      -159.48174      0              5580.5253      20.219943      20.196168      20.379974      0              0              0              8322.4753      6538.9893      4321.4855      5881.1012      112.94714     -3206.1377      517.52252      20.219943      20.196168      20.379974      90             90             90           
     44500   265.68648     -158.45374     -125.107       -158.45374      0              4231.9783      19.91307       20.104155      20.283919      0              0              0              8120.3717      5052.5642      449.94164      7193.4291     -1322.1        -849.16001      1250.9253      19.91307       20.104155      20.283919      90             90             90           
     45000   246.2506      -158.142       -127.2347      -158.142        0              3690.0583      19.999118      20.087068      20.309136      0              0              0              8158.6596      3358.04        2362.9932      5349.1416     -18.805738     -3055.8983      1173.5158      19.999118      20.087068      20.309136      90             90             90           
     45500   256.39435     -158.8476      -126.66714     -158.8476       0              3956.6043      20.169607      20.046221      20.330302      0              0              0              8220.0371      3984.0971      3969.6877      3916.0281     -1547.4229      798.13466      2871.6055      20.169607      20.046221      20.330302      90             90             90           
     46000   262.78569     -158.97913     -125.99647     -158.97913      0              4529.2897      20.142992      19.963429      20.319208      0              0              0              8170.825       4929.3552      4677.1409      3981.3732     -962.87906     -4035.1077     -1411.5089      20.142992      19.963429      20.319208      90             90             90           
     46500   266.68441     -158.92467     -125.45268     -158.92467      0              5822.1841      20.050912      20.053295      20.32514       0              0              0              8172.4719      5075.7866      7892.8441      4497.9216     -378.31997     -3679.227       1990.9437      20.050912      20.053295      20.32514       90             90             90           
     47000   255.3886      -157.21853     -125.1643      -157.21853      0              1639.3087      20.058219      20.21378       20.318202      0              0              0              8238.0643      1322.8284      2582.3664      1012.7312      647.43912      1186.4893      1504.8634      20.058219      20.21378       20.318202      90             90             90           
     47500   267.89588     -157.226       -123.60196     -157.226        0              3987.6984      20.069966      20.099256      20.164976      0              0              0              8134.3779      2968.4828      4046.4519      4948.1605      2902.3889     -365.64754      1809.8383      20.069966      20.099256      20.164976      90             90             90           
     48000   268.13192     -157.96188     -124.30821     -157.96188      0              5144.2359      20.199829      20.014508      20.235816      0              0              0              8181.1303      3183.5402      5642.963       6606.2043      353.10604      936.12258     -2414.6139      20.199829      20.014508      20.235816      90             90             90           
     48500   260.04148     -157.55916     -124.92094     -157.55916      0              3767.368       20.157058      19.902245      20.405859      0              0              0              8186.2327      2209.4553      5362.9414      3729.7074      1543.7623     -558.10016      991.30675      20.157058      19.902245      20.405859      90             90             90           
     49000   273.22129     -157.66578     -123.37334     -157.66578      0              5167.6981      19.99977       19.931592      20.665335      0              0              0              8237.7658      3592.7772      9435.2466      2475.0705     -926.14501      892.39109      538.02229      19.99977       19.931592      20.665335      90             90             90           
     49500   280.75683     -155.8649      -120.62666     -155.8649       0              4277.5203      19.943838      20.080944      20.652669      0              0              0              8271.2104      7501.1277      2424.3565      2907.0768      203.67976     -623.32091      439.47276      19.943838      20.080944      20.652669      90             90             90           
     50000   279.21839     -158.06487     -123.01972     -158.06487      0              2219.2193      20.046938      20.098234      20.214626      0              0              0              8144.6354      5077.806       326.10805      1253.7438     -590.58292     -1345.0207      1051.267       20.046938      20.098234      20.214626      90             90             90           
     50500   262.75325     -158.19398     -125.21539     -158.19398      0              4806.5784      20.222278      20.165383      20.027937      0              0              0              8167.1923      3402.9248      3693.877       7322.9333      1317.1981      586.7175       1909.6467      20.222278      20.165383      20.027937      90             90             90           
     51000   269.4014      -158.01198     -124.19898     -158.01198      0              4667.7826      20.114175      20.132489      20.188486      0              0              0              8175.2953      8200.0879      2755.306       3047.9538      2474.1978     -945.18748      913.77474      20.114175      20.132489      20.188486      90             90             90           
     51500   257.71103     -158.00085     -125.65513     -158.00085      0              2659.1983      19.984529      20.02578       20.551094      0              0              0              8224.6668      7041.1985     -401.34222      1337.7386     -923.66438     -1625.6394     -1343.2315      19.984529      20.02578       20.551094      90             90             90           
     52000   262.66473     -160.06485     -127.09738     -160.06485      0              10227.474      19.934146      19.823358      20.545419      0              0              0              8118.7628      9700.3188      14598.874      6383.2282     -113.52104      733.39095      1345.5127      19.934146      19.823358      20.545419      90             90             90           
     52500   271.3936      -158.68059     -124.61754     -158.68059      0              4062.0573      20.149764      19.961914      20.413524      0              0              0              8210.8879      2492.8423      5186.0113      4507.3184     -1392.9693      939.24383      134.18095      20.149764      19.961914      20.413524      90             90             90           
     53000   255.67347     -158.12939     -126.03941     -158.12939      0              3862.9402      20.179562      20.243256      20.208153      0              0              0              8255.0311      809.16886      4796.6862      5982.9657      1246.2833     -2022.3703     -2698.8536      20.179562      20.243256      20.208153      90             90             90           
     53500   268.36645     -158.84149     -125.15839     -158.84149      0              5734.3729      19.994513      20.122337      20.021932      0              0              0              8055.5507      3749.0526      6526.0949      6927.9712      244.2473      -1293.5262      924.73927      19.994513      20.122337      20.021932      90             90             90           
     54000   265.20657     -157.55597     -124.26947     -157.55597      0              4790.5876      20.116361      20.057791      20.299623      0              0              0              8190.6903      5542.1326      4051.3132      4778.3169     -1599.4382      2108.3207      241.62764      20.116361      20.057791      20.299623      90             90             90           
     54500   254.1005      -159.43592     -127.54336     -159.43592      0              4512.7793      20.164165      19.904531      20.511588      0              0              0              8232.4955      4735.428       6235.9148      2566.9952      1385.5073      1100.2511     -892.65328      20.164165      19.904531      20.511588      90             90             90           
     55000   262.83309     -158.13483     -125.14623     -158.13483      0              6200.1299      20.021457      19.852423      20.427534      0              0              0              8119.4223      6950.1215      5813.1995      5837.0687     -998.50814     -3571.0942     -1299.2252      20.021457      19.852423      20.427534      90             90             90           
     55500   258.76922     -159.58948     -127.11094     -159.58948      0              4387.5744      19.988725      20.125573      20.399662      0              0              0              8206.469       4608.1566      4235.2987      4319.2679      559.35086      71.355223      600.6378       19.988725      20.125573      20.399662      90             90             90           
     56000   270.91651     -157.94116     -123.93799     -157.94116      0              5720.017       20.02433       20.249674      20.28793       0              0              0              8226.4745      6497.426       4796.5006      5866.1245      784.87332     -901.42623      1640.4856      20.02433       20.249674      20.28793       90             90             90           
     56500   266.29896     -158.17642     -124.75281     -158.17642      0              7562.6675      20.087065      20.065038      20.177627      0              0              0              8132.5467      9079.7247      7417.6669      6190.611       368.04487      3827.2558      491.93796      20.087065      20.065038      20.177627      90             90             90           
     57000   267.97747     -158.54165     -124.90737     -158.54165      0              6214.913       20.220966      20.010215      20.267904      0              0              0              8200.9186      5564.7247      6749.273       6330.7414     -487.48257     -1682.6493     -1884.9914      20.220966      20.010215      20.267904      90             90             90           
     57500   267.08299     -158.76465     -125.24263     -158.76465      0              5098.9954      20.149697      19.929167      20.327933      0              0              0              8163.0205      4850.6514      3762.294       6684.0408      380.83163      3587.3621      695.07596      20.149697      19.929167      20.327933      90             90             90           
     58000   265.05247     -159.06355     -125.7964      -159.06355      0              7955.2436      20.048441      19.955561      20.478572      0              0              0              8193.0236      7324.1944      11245.712      5295.824      -194.98478      1511.3962     -152.34364      20.048441      19.955561      20.478572      90             90             90           
     58500   266.92001     -158.69426     -125.19271     -158.69426      0              3974.8625      19.913352      20.026184      20.472815      0              0              0              8164.3221      6564.2224      1847.6579      3512.7073      608.95297      545.99167      1864.3728      19.913352      20.026184      20.472815      90             90             90           
     59000   277.83997     -158.68554     -123.81341     -158.68554      0              6381.691       20.019763      20.168782      20.21549       0              0              0              8162.4941      12389.287      2351.3889      4404.3968     -322.73899      2043.302      -854.60952      20.019763      20.168782      20.21549       90             90             90           
     59500   265.29322     -157.53604     -124.23866     -157.53604      0              2740.3234      20.232957      20.279215      20.071174      0              0              0              8235.3732      2835.719       1914.2184      3471.0329      552.69813      411.33494     -75.290841      20.232957      20.279215      20.071174      90             90             90           
     60000   257.17118     -158.49373     -126.21576     -158.49373      0              6565.2604      20.148887      20.006514      20.090624      0              0              0              8098.7114      4548.0143      8451.6845      6696.0824      1225.1113     -1550.1925     -1313.5491      20.148887      20.006514      20.090624      90             90             90           
     60500   257.88932     -158.72701     -126.35891     -158.72701      0              8173.5058      20.143753      19.896586      20.507532      0              0              0              8219.2531      8115.7521      8911.0972      7493.6683      1552.995       153.46794      275.78648      20.143753      19.896586      20.507532      90             90             90           
     61000   269.55497     -158.84751     -125.01524     -158.84751      0              5975.0631      19.97502       19.944516      20.632316      0              0              0              8219.7516      5027.4775      4861.5414      8036.1704     -621.21382     -744.39021     -1172.9946      19.97502       19.944516      20.632316      90             90             90           
     61500   265.41137     -158.04736     -124.73516     -158.04736      0              2768.6269      19.939717      20.050305      20.472816      0              0              0              8184.9791      3897.068       2822.6011      1586.2115     -249.40346      1132.8813      899.48267      19.939717      20.050305      20.472816      90             90             90           
     62000   265.39363     -157.50705     -124.19707     -157.50705      0              7891.1219      20.177782      20.071004      20.187922      0              0              0              8175.873       7022.7283      9965.3517      6685.2856      1542.4964      1566.3064      1565.7973      20.177782      20.071004      20.187922      90             90             90           
     62500   256.99545     -157.16128     -124.90537     -157.16128      0              4806.0663      20.332433      20.042748      20.037604      0              0              0              8165.6808      92.791213      7387.6249      6937.7826     -1502.7754      61.756335     -126.00572      20.332433      20.042748      20.037604      90             90             90           
     63000   275.76664     -157.21992     -122.60801     -157.21992      0              3975.568       20.222921      20.123171      20.208069      0              0              0              8223.6598      3506.7012      2277.7305      6142.2724      723.5081       521.88223     -1335.4387      20.222921      20.123171      20.208069      90             90             90           
     63500   262.46242     -158.3684      -125.42633     -158.3684       0              6162.0533      19.907783      20.037035      20.422706      0              0              0              8146.4733      7876.0585      6472.0024      4138.0991     -1757.0465     -158.53976     -3745.522       19.907783      20.037035      20.422706      90             90             90           
     64000   269.95607     -158.01656     -124.13394     -158.01656      0              3055.9756      19.909015      19.991059      20.572823      0              0              0              8188.0311      2628.7472      4511.6974      2027.4822     -70.676235     -786.08966      4113.3155      19.909015      19.991059      20.572823      90             90             90           
     64500   269.04154     -158.31907     -124.55124     -158.31907      0              8378.0812      20.045714      20.01107       20.44671       0              0              0              8201.9157      7492.8669      9462.7917      8178.5849     -285.99187      1937.7919      297.83715      20.045714      20.01107       20.44671       90             90             90           
     65000   261.8901      -160.06243     -127.19219     -160.06243      0              5151.7992      20.124577      20.017483      20.230795      0              0              0              8149.8421      5161.1784      3950.6885      6343.5306     -31.542205      669.29864      1261.1261      20.124577      20.017483      20.230795      90             90             90           
     65500   267.08103     -159.73737     -126.21561     -159.73737      0              7623.926       20.082857      20.08333       20.189284      0              0              0              8142.957       8900.2082      5596.8198      8374.7502      445.54897     -796.32869      519.31587      20.082857      20.08333       20.189284      90             90             90           
     66000   280.00512     -158.269       -123.12511     -158.269        0              3492.7567      20.113902      20.05841       20.422279      0              0              0              8239.4274      4896.3183      1847.3807      3734.5712     -778.70737     -1702.4663      253.72293      20.113902      20.05841       20.422279      90             90             90           
     66500   270.12071     -157.94178     -124.03849     -157.94178      0              3322.9306      20.090943      19.854269      20.540741      0              0              0              8193.5166      3987.1688      4942.1931      1039.4299      1228.6467     -2276.6132     -1124.636       20.090943      19.854269      20.540741      90             90             90           
     67000   269.6589      -159.77478     -125.92945     -159.77478      0              7832.0966      19.982701      19.852422      20.435281      0              0              0              8106.7786      11453.215      4944.3462      7098.7286     -987.3395       97.884748     -2120.8729      19.982701      19.852422      20.435281      90             90             90           
     67500   262.76896     -158.90623     -125.92567     -158.90623      0              6519.7925      20.039295      20.146594      20.343456      0              0              0              8213.132       3426.3804      8794.5035      7338.4937     -236.36687     -607.21038      327.98172      20.039295      20.146594      20.343456      90             90             90           
     68000   260.15988     -158.774       -126.12091     -158.774        0              5872.8287      20.130547      20.197206      20.209263      0              0              0              8216.6984      9260.5106      2638.5888      5719.3867     -226.94323     -1864.1596     -659.60296      20.130547      20.197206      20.209263      90             90             90           
     68500   277.47231     -159.42589     -124.59989     -159.42589      0              9037.7686      20.104801      19.978952      20.130095      0              0              0              8085.7129      6221.9201      9660.8439      11230.542      104.60685      3482.6187      285.93158      20.104801      19.978952      20.130095      90             90             90           
     69000   259.99287     -159.46371     -126.83159     -159.46371      0              5705.4541      20.142175      19.984107      20.519784      0              0              0              8259.6926      4811.7401      5665.7571      6638.8653     -2078.0095     -244.73587      1250.1687      20.142175      19.984107      20.519784      90             90             90           
     69500   260.23196     -158.82037     -126.15824     -158.82037      0              3899.8308      20.043806      19.904611      20.559783      0              0              0              8202.6163      1323.1968      5300.5453      5075.7502      923.55365      4411.9768     -1220.9789      20.043806      19.904611      20.559783      90             90             90           
     70000   260.66422     -158.21704     -125.50066     -158.21704      0              6192.2476      19.936314      19.931604      20.456898      0              0              0              8128.8084      9389.9146      7461.363       1725.465      -1716.6653      3813.0176     -730.04897      19.936314      19.931604      20.456898      90             90             90           
     70500   266.09845     -159.66501     -126.26657     -159.66501      0              3401.1549      20.038961      20.151518      20.294693      0              0              0              8195.3116      5046.5695      4198.5838      958.31138      581.42141      2004.224       2268.4559      20.038961      20.151518      20.294693      90             90             90           
     71000   258.94994     -158.54868     -126.04745     -158.54868      0              5974.069       20.14494       20.151692      20.126035      0              0              0              8170.2573      6142.7227      4254.8021      7524.6822      200.13532      1184.2591      3719.7627      20.14494       20.151692      20.126035      90             90             90           
     71500   258.27725     -158.40228     -125.98549     -158.40228      0              6045.4775      20.160576      19.998759      20.201912      0              0              0              8145.1382      5631.7851      5125.2774      7379.3701      452.69066     -2254.6181      1537.1914      20.160576      19.998759      20.201912      90             90             90           
     72000   274.24079     -157.10075     -122.68035     -157.10075      0              8095.3405      20.148551      19.948333      20.457686      0              0              0              8222.5579      8263.6624      8520.2991      7502.0601      1773.7809     -3713.6685      884.9852       20.148551      19.948333      20.457686      90             90             90           
     72500   257.6675      -157.33979     -124.99953     -157.33979      0              4465.9302      20.049414      19.948392      20.678943      0              0              0              8270.617       4541.1596      6178.7148      2677.9161     -2415.5844      927.00853      880.56222      20.049414      19.948392      20.678943      90             90             90           
     73000   253.74492     -157.99482     -126.14689     -157.99482      0              3492.7286      19.953157      19.88223       20.533568      0              0              0              8145.9387      4393.9131      1435.8411      4648.4316      726.15126      205.70817      1330.3521      19.953157      19.88223       20.533568      90             90             90           
     73500   261.40126     -158.43757     -125.62868     -158.43757      0              7120.8464      20.096008      20.084991      20.224077      0              0              0              8163.0066      5156.7355      9741.9734      6463.8305     -1894.1428     -1281.4679      684.56775      20.096008      20.084991      20.224077      90             90             90           
     74000   268.14287     -159.82292     -126.16788     -159.82292      0              7853.5657      20.220949      20.293787      20.081045      0              0              0              8240.4499      9008.7929      2837.7472      11714.157      1219.6163     -1560.5592     -3485.0189      20.220949      20.293787      20.081045      90             90             90           
     74500   278.62404     -160.34469     -125.37414     -160.34469      0              3336.1411      20.028251      20.120327      20.052868      0              0              0              8080.8038      2810.5016      5136.5093      2061.4124     -324.25884     -1071.1808      280.15512      20.028251      20.120327      20.052868      90             90             90           
     75000   270.8402      -158.48366     -124.49007     -158.48366      0              4349.3815      20.101136      20.015685      20.398962      0              0              0              8207.2777      4036.0804      2601.7309      6410.3331      65.500234      2118.5962      7.648582       20.101136      20.015685      20.398962      90             90             90           
     75500   269.80149     -160.51509     -126.65187     -160.51509      0              6121.7616      20.118247      19.946435      20.527127      0              0              0              8237.2754      3584.8478      11210.615      3569.8219      833.80382      555.78028     -807.08995      20.118247      19.946435      20.527127      90             90             90           
     76000   259.05008     -157.55341     -125.03962     -157.55341      0              2522.8485      20.058631      19.997882      20.416583      0              0              0              8189.707       558.32347      2970.4979      4039.7242      801.47694      16.287772      241.0113       20.058631      19.997882      20.416583      90             90             90           
     76500   250.64744     -160.76431     -129.30515     -160.76431      0              3012.4092      20.067503      20.098184      20.300305      0              0              0              8187.5265      2566.4467      2640.6827      3830.0984     -492.25864      2413.2541      232.6459       20.067503      20.098184      20.300305      90             90             90           
     77000   255.91303     -160.68293     -128.56288     -160.68293      0              6394.6208      20.018563      20.12778       20.261324      0              0              0              8163.8794      4042.9562      7441.8457      7699.0605     -511.19146      1180.3118      1071.8677      20.018563      20.12778       20.261324      90             90             90           
     77500   263.97185     -158.45342     -125.32189     -158.45342      0              5583.349       20.097721      20.086883      20.27445       0              0              0              8184.8071      6881.1021      4725.3849      5143.5599     -1688.1231      1157.1098      967.27745      20.097721      20.086883      20.27445       90             90             90           
     78000   271.66137     -156.56273     -122.46608     -156.56273      0              6481.2623      20.163645      19.984727      20.342753      0              0              0              8197.4159      7421.3751      5864.4452      6157.9667     -1719.9762      1986.5213      3763.23        20.163645      19.984727      20.342753      90             90             90           
     78500   261.28553     -159.91888     -127.12452     -159.91888      0              5318.7677      20.009115      19.980971      20.548977      0              0              0              8215.5124      5719.6103      4085.7255      6150.9672     -2243.4161      1942.6217     -2605.7962      20.009115      19.980971      20.548977      90             90             90           
     79000   260.96935     -159.02367     -126.26899     -159.02367      0              4113.5315      19.737326      19.999668      20.597636      0              0              0              8130.7099      4081.6321      8950.2214     -691.25903      425.83431      4.264445       410.43269      19.737326      19.999668      20.597636      90             90             90           
     79500   265.46882     -158.34757     -125.02815     -158.34757      0              2224.3151      19.993248      20.079915      20.469701      0              0              0              8217.822       5186.6232     -446.46996      1932.7922     -652.86035      1277.5635      130.37983      19.993248      20.079915      20.469701      90             90             90           
     80000   271.1393      -158.31222     -124.28109     -158.31222      0              7310.3228      20.347058      20.035266      20.112375      0              0              0              8198.9852      8132.5257      7293.17        6505.2728     -176.71247      1893.2331      736.26557      20.347058      20.035266      20.112375      90             90             90           
     80500   263.09572     -158.01779     -124.99622     -158.01779      0              7411.8057      20.223996      20.068347      20.044563      0              0              0              8135.3296      6950.3113      7368.424       7916.6819      1594.1785      1865.3748     -2169.8888      20.223996      20.068347      20.044563      90             90             90           
     81000   266.57781     -159.11253     -125.65392     -159.11253      0              5109.3562      19.923109      20.113724      20.332476      0              0              0              8147.7909      6927.4221      3866.0538      4534.5928      1374.6981      246.91334      2501.835       19.923109      20.113724      20.332476      90             90             90           
     81500   255.95034     -158.28488     -126.16014     -158.28488      0              7596.8163      19.94153       20.003882      20.57916       0              0              0              8209.1915      5688.2339      10074.656      7027.5593     -243.86325      441.14478      1238.5743      19.94153       20.003882      20.57916       90             90             90           
     82000   259.64757     -159.45559     -126.86681     -159.45559      0              4718.0912      20.121058      19.825243      20.562644      0              0              0              8202.5383      5174.0907      3849.095       5131.0878      659.70082      102.49152     -861.70404      20.121058      19.825243      20.562644      90             90             90           
     82500   283.19677     -158.49315     -122.94867     -158.49315      0              10914.667      20.174595      19.836507      20.403996      0              0              0              8165.5465      12202.466      9163.3622      11378.172     -185.3799      -996.72667     -745.59494      20.174595      19.836507      20.403996      90             90             90           
     83000   267.78414     -158.38914     -124.77912     -158.38914      0              2382.1493      20.118096      20.13937       20.343367      0              0              0              8242.4361      4950.4526     -1872.2608      4068.256      -908.27255      3481.9143      428.85402      20.118096      20.13937       20.343367      90             90             90           
     83500   270.79358     -158.79379     -124.80606     -158.79379      0              5127.0255      19.961816      20.208261      20.235251      0              0              0              8162.7704      2818.1673      6078.3196      6484.5896      901.56843     -2048.0443      4577.1793      19.961816      20.208261      20.235251      90             90             90           
     84000   273.8055      -157.67586     -123.31009     -157.67586      0              7638.2549      19.9835        20.084622      20.285421      0              0              0              8141.7776      6489.8745      9143.6316      7281.2586      538.96128      347.14358      184.63871      19.9835        20.084622      20.285421      90             90             90           
     84500   268.10257     -158.51225     -124.86226     -158.51225      0              1725.1737      20.146045      19.979419      20.443276      0              0              0              8228.5468      5118.5455      710.75385     -653.77814     -61.743903     -1539.0303      1200.9538      20.146045      19.979419      20.443276      90             90             90           
     85000   263.85362     -158.71064     -125.59395     -158.71064      0              6159.3587      20.047169      20.035713      20.437462      0              0              0              8208.8976      1851.3965      8890.4897      7736.1898     -987.24852      356.43421      2027.2966      20.047169      20.035713      20.437462      90             90             90           
     85500   287.53253     -159.53474     -123.44607     -159.53474      0              6717.8825      19.931         20.105137      20.285007      0              0              0              8128.5164      6558.5814      7559.2205      6035.8455     -1958.9777     -402.79927      249.44387      19.931         20.105137      20.285007      90             90             90           
     86000   262.71178     -158.09266     -125.11928     -158.09266      0              1306.302       20.172346      20.137277      20.228228      0              0              0              8217.0323      1723.2627     -1942.5037      4138.147      -83.3955       -2472.1661     -1585.0697      20.172346      20.137277      20.228228      90             90             90           
     86500   255.54807     -158.41096     -126.33672     -158.41096      0              3733.1289      20.25767       19.939113      20.253666      0              0              0              8180.8605      5014.3355      4228.6668      1956.3844     -1145.8687     -1206.4641     -66.052983      20.25767       19.939113      20.253666      90             90             90           
     87000   257.35289     -159.69773     -127.39696     -159.69773      0              6573.4314      20.055431      19.791671      20.424252      0              0              0              8107.0084      9892.343       2284.1232      7543.8281      597.87185      566.37361     -607.23157      20.055431      19.791671      20.424252      90             90             90           
     87500   260.23743     -158.69251     -126.02969     -158.69251      0              4811.2319      19.942491      20.035103      20.699844      0              0              0              8270.6199      6848.9489      5914.7995      1669.9472     -839.58744     -1215.0056      1579.7957      19.942491      20.035103      20.699844      90             90             90           
     88000   273.07684     -159.01073     -124.73642     -159.01073      0              3966.363       19.886449      20.164163      20.525814      0              0              0              8230.7202      5121.2919      3708.4576      3069.3394      1888.9881      2325.7207     -671.56451      19.886449      20.164163      20.525814      90             90             90           
     88500   264.07061     -159.41635     -126.27242     -159.41635      0              9253.3456      20.088864      20.053061      20.076904      0              0              0              8087.8446      8940.0645      8763.3735      10056.599     -108.40058     -2845.7777      251.34924      20.088864      20.053061      20.076904      90             90             90           
     89000   256.01593     -160.27203     -128.13906     -160.27203      0              2102.4971      20.339047      20.072604      19.955968      0              0              0              8147.1768      352.63717      2250.3547      3704.4994      945.05558     -1870.1918     -5558.4917      20.339047      20.072604      19.955968      90             90             90           
     89500   254.87743     -160.42247     -128.4324      -160.42247      0              1614.3191      20.207092      20.103934      20.179943      0              0              0              8197.9413      1505.4775      430.17505      2907.3047     -924.76109     -1373.4874      5797.2475      20.207092      20.103934      20.179943      90             90             90           
     90000   259.65468     -160.38898     -127.7993      -160.38898      0              7553.4444      19.931799      19.984332      20.398097      0              0              0              8125.0449      7537.2879      6870.5755      8252.4698     -202.0413      -398.52489     -2687.9847      19.931799      19.984332      20.398097      90             90             90           
     90500   273.46788     -159.91688     -125.59349     -159.91688      0              3341.9648      19.972299      19.892402      20.519181      0              0              0              8152.2094      2491.8788      4613.4239      2920.5917     -134.58228     -1738.5171      831.40392      19.972299      19.892402      20.519181      90             90             90           
     91000   266.79358     -159.39244     -125.90675     -159.39244      0              5194.7743      20.096233      19.987236      20.400536      0              0              0              8194.2457      5926.6459      5112.1636      4545.5134      427.48176     -2411.2325      673.8324       20.096233      19.987236      20.400536      90             90             90           
     91500   255.10709     -160.75983     -128.74093     -160.75983      0              4188.4625      20.063643      20.189667      20.260253      0              0              0              8206.9884      2875.1504      5261.6982      4428.5388      820.25346      2770.1325     -650.25646      20.063643      20.189667      20.260253      90             90             90           
     92000   258.11734     -158.93177     -126.53505     -158.93177      0              2631.4726      19.976316      20.081855      20.154774      0              0              0              8085.319       2350.9615      4847.1307      696.32561      565.86278      1359.7731      960.60746      19.976316      20.081855      20.154774      90             90             90           
     92500   256.51974     -158.89175     -126.69555     -158.89175      0              4230.7637      20.184175      20.030983      20.300366      0              0              0              8207.6183      5711.7303      3820.6766      3159.8841      261.81502     -2569.2531     -820.21905      20.184175      20.030983      20.300366      90             90             90           
     93000   261.8463      -158.63673     -125.77198     -158.63673      0              7898.6811      20.221089      19.901803      20.495797      0              0              0              8248.2493      3630.1899      11718.607      8347.2467      1553.7286      123.0666      -1235.5737      20.221089      19.901803      20.495797      90             90             90           
     93500   261.16703     -159.20405     -126.42456     -159.20405      0              6572.4957      20.00802       19.803448      20.500924      0              0              0              8123.0357      5455.2954      8651.2425      5610.9491      2195.5558     -1596.7624      2707.3455      20.00802       19.803448      20.500924      90             90             90           
     94000   255.14925     -159.00374     -126.97955     -159.00374      0              4476.142       19.949541      20.039359      20.466703      0              0              0              8182.0969      2768.2184      6591.4889      4068.7186      1111.5017      1460.0824      129.20339      19.949541      20.039359      20.466703      90             90             90           
     94500   264.32403     -159.38521     -126.20948     -159.38521      0              7735.486       20.015508      20.225149      20.27154       0              0              0              8206.2567      11227.728      3279.2977      8699.4327     -1984.4424     -3793.9065     -472.43805      20.015508      20.225149      20.27154       90             90             90           
     95000   250.62533     -159.75953     -128.30314     -159.75953      0              3011.2175      20.069284      20.130314      20.121568      0              0              0              8129.1334      2646.8959      4824.781       1561.9755     -168.1985       4279.2098     -2283.3361      20.069284      20.130314      20.121568      90             90             90           
[...]
    377000   267.78096     -160.88818     -127.27856     -160.88818      0              5538.9473      19.955183      20.117429      20.420623      0              0              0              8197.7977      10694.521      2041.3365      3880.9844     -404.89344      2753.9225     -37.260358      19.955183      20.117429      20.420623      90             90             90           
    377500   261.3258      -159.40309     -126.60367     -159.40309      0              5495.4635      19.788949      20.219723      20.450831      0              0              0              8182.9312      10455.331      2387.9396      3643.1196      456.37201     -2560.1619      2779.2842      19.788949      20.219723      20.450831      90             90             90           
    378000   264.54696     -158.52046     -125.31675     -158.52046      0              8858.4795      20.026381      20.039057      20.341276      0              0              0              8163.1534      3802.338       12715.233      10057.867     -213.75853     -2129.3202      29.842126      20.026381      20.039057      20.341276      90             90             90           
    378500   264.93195     -160.18441     -126.93238     -160.18441      0              8586.4427      20.295323      19.917547      20.322512      0              0              0              8215.0312      7962.6475      9719.4475      8077.2332      1394.706       192.68083      591.73995      20.295323      19.917547      20.322512      90             90             90           
    379000   262.3892      -158.1149      -125.18201     -158.1149       0              3944.3823      20.123092      20.023205      20.189008      0              0              0              8134.7328      2086.6429      4744.3768      5002.1271     -267.60679     -2208.9446     -354.3198       20.123092      20.023205      20.189008      90             90             90           
    379500   257.92178     -158.3994      -126.02722     -158.3994       0              5139.4338      19.910989      20.208979      20.233865      0              0              0              8141.7182      3836.4107      7598.8864      3983.0043      245.59084      848.88559     -575.18549      19.910989      20.208979      20.233865      90             90             90           
    380000   261.77018     -159.52358     -126.66839     -159.52358      0              3551.2884      19.953196      20.16199       20.441374      0              0              0              8223.4857      2557.3004      5238.1881      2858.3768     -581.83558      1322.061      -2481.2464      19.953196      20.16199       20.441374      90             90             90           
    380500   264.01331     -160.38176     -127.24502     -160.38176      0              2237.7488      20.097749      19.882863      20.452666      0              0              0              8172.9018     -2133.9037      5166.9803      3680.1699     -399.07972      497.44888      1298.037       20.097749      19.882863      20.452666      90             90             90           
    381000   258.02178     -158.65719     -126.27247     -158.65719      0              6359.8796      20.092746      19.924543      20.350501      0              0              0              8147.095       8428.8792      5689.1008      4961.6589      243.85724      1084.0876      1642.846       20.092746      19.924543      20.350501      90             90             90           
    381500   268.66012     -156.90895     -123.18899     -156.90895      0              2533.157       20.039323      20.286344      20.250416      0              0              0              8232.2928      4932.7603      243.44537      2423.2651      739.03419     -1763.5717      2258.619       20.039323      20.286344      20.250416      90             90             90           
    382000   274.36291     -159.11042     -124.67469     -159.11042      0              5195.1791      19.977934      20.249375      20.215102      0              0              0              8177.8311      6485.8032      1075.6271      8024.1069      195.02274      369.64877     -1895.182       19.977934      20.249375      20.215102      90             90             90           
    382500   277.36721     -157.88361     -123.07081     -157.88361      0              5390.0596      20.148224      19.912627      20.331701      0              0              0              8157.1611      5553.4237      5527.9612      5088.7939     -737.21428      1358.0211     -2766.4674      20.148224      19.912627      20.331701      90             90             90           
    383000   274.49212     -158.67155     -124.21961     -158.67155      0              5291.265       20.288134      19.860531      20.399912      0              0              0              8219.8001      6556.7421      4155.4145      5161.6384     -478.81686      1255.5328     -1637.1494      20.288134      19.860531      20.399912      90             90             90           
    383500   275.87683     -156.64456     -122.01882     -156.64456      0              6148.6222      20.146347      20.004725      20.291899      0              0              0              8178.0842      3463.4321      8589.1445      6393.2901      898.692       -1021.2807     -433.21832      20.146347      20.004725      20.291899      90             90             90           
    384000   275.4656      -160.23552     -125.66139     -160.23552      0              7200.2445      19.965064      20.211053      20.176425      0              0              0              8141.4896      4401.1067      7850.613       9349.0137     -1314.293       446.8492      -2465.8108      19.965064      20.211053      20.176425      90             90             90           
    384500   261.47713     -158.71834     -125.89993     -158.71834      0              8117.2508      20.046562      20.230696      20.216758      0              0              0              8199.0253      8112.6214      8521.1914      7717.9395     -524.32774     -3357.4026      2997.0416      20.046562      20.230696      20.216758      90             90             90           
    385000   261.29089     -160.1062      -127.31116     -160.1062       0              4608.2366      20.082191      20.052878      20.218907      0              0              0              8142.2698      3575.7537      4502.2582      5746.6979     -744.92038     -1724.5015      1831.1048      20.082191      20.052878      20.218907      90             90             90           
    385500   258.07485     -159.6661      -127.27472     -159.6661       0              5395.4558      20.091874      19.968215      20.379593      0              0              0              8176.2693      5170.5372      5833.7958      5182.0345     -1563.1206      1294.2436     -429.19306      20.091874      19.968215      20.379593      90             90             90           
    386000   258.15786     -158.38121     -125.9794      -158.38121      0              4989.001       20.070985      19.938986      20.509259      0              0              0              8207.7047      2076.5254      9465.6047      3424.8729     -939.12517     -3355.1326     -501.86148      20.070985      19.938986      20.509259      90             90             90           
    386500   259.61555     -156.79498     -124.21022     -156.79498      0              1870.4795      20.058765      19.950384      20.512277      0              0              0              8208.6044     -64.823388      2064.0998      3612.1621     -1083.7099      724.23948      2594.3003      20.058765      19.950384      20.512277      90             90             90           
    387000   269.30421     -159.24493     -125.44413     -159.24493      0              6169.2014      20.095202      20.075269      20.174073      0              0              0              8138.5556      4677.2555      6734.3997      7095.9491      1524.4951     -4394.5229      213.73452      20.095202      20.075269      20.174073      90             90             90           
    387500   267.86723     -158.35764     -124.7372      -158.35764      0              5841.5089      20.197153      20.33543       19.88269       0              0              0              8166.1747      5868.5797      5883.6752      5772.2717     -2959.3093      1452.8259      2352.3373      20.197153      20.33543       19.88269       90             90             90           
    388000   256.65875     -159.9206      -127.70695     -159.9206       0              4604.2082      20.242029      20.216069      20.03294       0              0              0              8197.7647      4333.9449      268.85948      9209.8201      1052.7265     -712.62492      484.45701      20.242029      20.216069      20.03294       90             90             90           
    388500   258.64637     -160.03115     -127.56803     -160.03115      0              9187.4439      20.051258      19.867664      20.41851       0              0              0              8134.1556      8942.5408      9769.8769      8849.9139     -369.09159      2717.1604     -1302.9282      20.051258      19.867664      20.41851       90             90             90           
    389000   251.28194     -159.25601     -127.71721     -159.25601      0              3907.1151      19.957194      19.855074      20.66773       0              0              0              8189.6205      4392.5907      3785.7441      3543.0106     -334.90245      892.68232      918.95235      19.957194      19.855074      20.66773       90             90             90           
    389500   262.29576     -160.06963     -127.14847     -160.06963      0              5935.9724      19.939984      20.011734      20.474502      0              0              0              8170.0151      7321.3853      6531.4282      3955.1038     -1019.1433      1987.235      -94.25221       19.939984      20.011734      20.474502      90             90             90           
    390000   252.95502     -159.57338     -127.82459     -159.57338      0              3452.4793      20.071307      20.124218      20.218333      0              0              0              8166.576       6982.4856      1570.2043      1804.748      -115.05399     -2073.8894      207.51318      20.071307      20.124218      20.218333      90             90             90           
    390500   264.51978     -158.56527     -125.36497     -158.56527      0              4652.7653      20.216505      20.080259      20.188842      0              0              0              8195.7142      6395.9922      4119.2171      3443.0867     -344.67739     -927.88353      831.16807      20.216505      20.080259      20.188842      90             90             90           
    391000   278.59975     -158.72015     -123.75265     -158.72015      0              7840.2613      20.113525      19.991954      20.290541      0              0              0              8159.0023      9749.0983      5957.0395      7814.6462      2404.399      -1041.3456      456.67046      20.113525      19.991954      20.290541      90             90             90           
    391500   278.30953     -156.81806     -121.88698     -156.81806      0              3682.8213      20.052431      20.0706        20.493551      0              0              0              8247.923       7475.6229     -709.74122      4282.5823      792.90762      629.04578      1304.0304      20.052431      20.0706        20.493551      90             90             90           
    392000   246.49647     -158.65652     -127.71835     -158.65652      0              6554.8966      20.007159      20.024363      20.509616      0              0              0              8216.7802      3417.3406      8359.3072      7888.042      -1253.5673     -876.6071       586.08431      20.007159      20.024363      20.509616      90             90             90           
    392500   259.78314     -159.73956     -127.13376     -159.73956      0              5676.3773      20.001286      19.932466      20.334967      0              0              0              8107.0419      7416.943       5303.7359      4308.453       138.84214      1111.6742     -300.57548      20.001286      19.932466      20.334967      90             90             90           
    393000   272.00742     -159.19167     -125.05159     -159.19167      0              3501.2705      20.223994      20.050987      20.274565      0              0              0              8221.5598      2242.9764      6237.3311      2023.504       480.33683     -578.9149      -2903.1793      20.223994      20.050987      20.274565      90             90             90           
    393500   274.41775     -156.63903     -122.19641     -156.63903      0              3973.3273      20.27251       20.203849      20.155727      0              0              0              8255.4376      4122.5584      3732.0961      4065.3275     -2350.8073      102.265        2537.2294      20.27251       20.203849      20.155727      90             90             90           
    394000   263.80237     -159.00575     -125.89549     -159.00575      0              8722.0159      19.968702      20.072177      20.07827       0              0              0              8047.6782      7145.2849      8561.4922      10459.271      771.77975     -287.81134      106.12034      19.968702      20.072177      20.07827       90             90             90           
    394500   257.06923     -159.28958     -127.02441     -159.28958      0              2523.4046      20.047152      20.072885      20.427456      0              0              0              8220.0938      9087.3435     -1536.5843      19.454614     -823.48728      1015.3212     -1892.4321      20.047152      20.072885      20.427456      90             90             90           
    395000   261.93399     -157.93587     -125.06011     -157.93587      0              2830.2514      20.156148      19.948512      20.578062      0              0              0              8274.1331     -183.94377      6773.5483      1901.1497     -1056.3664     -4679.4136      1204.3968      20.156148      19.948512      20.578062      90             90             90           
    395500   261.97989     -159.88075     -126.99923     -159.88075      0              5140.3314      20.07734       19.882657      20.390591      0              0              0              8139.7378      3906.1951      6703.7496      4811.0496      113.405       -778.80274     -3509.3549      20.07734       19.882657      20.390591      90             90             90           
    396000   257.22088     -159.13375     -126.84954     -159.13375      0              5627.0021      19.953434      20.176197      20.194462      0              0              0              8129.9758      4096.8201      6665.599       6118.5872      1531.3277     -3221.6282      582.39043      19.953434      20.176197      20.194462      90             90             90           
    396500   261.29395     -160.17307     -127.37764     -160.17307      0              2102.6203      20.014939      20.32691       20.194084      0              0              0              8215.7988      2122.1744      1847.5881      2338.0983     -2579.718       1495.9084      1651.0356      20.014939      20.32691       20.194084      90             90             90           
    397000   261.43288     -158.30927     -125.49641     -158.30927      0              5650.2922      20.086589      20.068695      20.260579      0              0              0              8167.2753      7084.0275      5567.4763      4299.3727     -2262.6102     -115.65819     -780.47295      20.086589      20.068695      20.260579      90             90             90           
    397500   261.32905     -158.35196     -125.55213     -158.35196      0              8510.0558      20.092065      19.895289      20.354329      0              0              0              8136.3873      5754.0461      11643.581      8132.5408     -1572.0309      1481.808      -602.56616      20.092065      19.895289      20.354329      90             90             90           
    398000   267.67018     -158.89414     -125.29843     -158.89414      0              2088.4838      20.130395      19.974691      20.447706      0              0              0              8221.9903      808.30431      3663.3877      1793.7593      2053.6434     -1950.6189      2874.8396      20.130395      19.974691      20.447706      90             90             90           
    398500   273.22861     -158.52783     -124.23447     -158.52783      0              2426.971       20.015995      20.064295      20.360502      0              0              0              8176.9169      1259.5576      3423.1946      2598.1607      246.06236      1390.9198     -573.81978      20.015995      20.064295      20.360502      90             90             90           
    399000   245.81503     -159.73485     -128.88222     -159.73485      0              4851.7584      20.010051      20.090343      20.348916      0              0              0              8180.443       6096.2974      6234.6018      2224.3759      312.54339     -2158.4568      3284.7055      20.010051      20.090343      20.348916      90             90             90           
    399500   262.03235     -159.43507     -126.54697     -159.43507      0              6693.7738      20.036731      20.063316      20.265197      0              0              0              8146.6754      5154.4792      9151.0653      5775.777      -1025.8656      2838.6157     -1305.1654      20.036731      20.063316      20.265197      90             90             90           
    400000   268.05451     -161.018       -127.37405     -161.018        0              5393.1233      20.063798      20.112202      20.17192       0              0              0              8139.9176      3070.4896      6979.1974      6129.6829      2175.5695     -2941.3862      1190.4224      20.063798      20.112202      20.17192       90             90             90           
Loop time of 1568.76 on 1 procs for 400000 steps with 972 atoms

Performance: 11.015 ns/day, 2.179 hours/ns, 254.979 timesteps/s
93.8% CPU use with 1 MPI tasks x no OpenMP threads

MPI task timing breakdown:
Section |  min time  |  avg time  |  max time  |%varavg| %total
---------------------------------------------------------------
Pair    | 1062.6     | 1062.6     | 1062.6     |   0.0 | 67.74
Bond    | 0.03201    | 0.03201    | 0.03201    |   0.0 |  0.00
Neigh   | 233.28     | 233.28     | 233.28     |   0.0 | 14.87
Comm    | 11.704     | 11.704     | 11.704     |   0.0 |  0.75
Output  | 236.93     | 236.93     | 236.93     |   0.0 | 15.10
Modify  | 22.854     | 22.854     | 22.854     |   0.0 |  1.46
Other   |            | 1.354      |            |       |  0.09

Nlocal:            972 ave         972 max         972 min
Histogram: 1 0 0 0 0 0 0 0 0 0
Nghost:           4619 ave        4619 max        4619 min
Histogram: 1 0 0 0 0 0 0 0 0 0
Neighs:              0 ave           0 max           0 min
Histogram: 1 0 0 0 0 0 0 0 0 0
FullNghs:       248920 ave      248920 max      248920 min
Histogram: 1 0 0 0 0 0 0 0 0 0

Total # of neighbors = 248920
Ave neighs/atom = 256.09053
Ave special neighs/atom = 0
Neighbor list builds = 40000
Dangerous builds not checked

unfix		3
unfix		2

write_data	data.final.${pid}
write_data	data.final.0
System init for write_data ...
Generated 0 of 1 mixed pair_coeff terms from geometric mixing rule

write_restart   restart.lmp.${pid}
write_restart   restart.lmp.0
System init for write_restart ...
Generated 0 of 1 mixed pair_coeff terms from geometric mixing rule
Total wall time: 0:26:30
