LAMMPS data file via write_data, version 29 Sep 2021, timestep = 400000

972 atoms
2 atom types

-0.1096145700235791 20.100667570023546 xlo xhi
-0.020207210591356883 20.011260210589604 ylo yhi
-0.01185856035767685 20.812630560358105 zlo zhi

Masses

1 1.008
2 15.999

Atoms # full

2 0 2 0 1.874924699600378 1.9943172696283793 0.8088885858021329 0 0 0
31 0 1 0 0.29350090389267963 1.5725041062376455 1.8726028870756073 0 0 0
32 0 2 0 0.5279926900619057 0.6301960284704292 1.8646737097422548 0 0 0
33 0 2 0 0.6873513200109356 2.0409137945080573 2.6039211365467856 0 0 0
5 0 2 0 3.090576476947356 1.1163703517726145 3.8438276021531106 0 0 0
1 0 1 0 2.543136771858657 2.2517555556837245 0.14732247299855034 0 0 0
18 0 2 0 3.7678425293257383 3.200915285019988 3.3735815568918803 0 0 0
4 0 1 0 3.889438195949518 1.2909557350813858 3.351133598773486 0 0 0
10 0 1 0 1.1500726956827179 3.6959966756555898 3.3519854283969437 0 0 0
11 0 2 0 0.5330649452735589 3.8679640913729076 4.069179748936902 0 0 0
35 0 2 0 4.377613166187844 2.1874985075188897 0.52698915468376 0 0 0
36 0 2 0 5.897993968082437 2.4689281164757904 1.1093903477480398 0 0 0
6 0 2 0 4.6076158749565295 0.960160063499595 3.8934221701034013 0 0 0
67 0 1 0 7.4060279165771945 2.506984026742734 2.0652165431749325 0 0 0
68 0 2 0 7.469445469273674 2.990603431343875 2.921554274643335 0 0 0
34 0 1 0 5.311842599918129 2.3370563385075176 0.3096263833041405 0 0 0
230 0 2 0 4.190086049794993 0.11713148753705 2.0053289913230103 0 1 0
272 0 2 0 7.135952582206988 0.41448506790100187 2.245484802862445 0 1 0
69 0 2 0 8.196257125742687 2.6724305043335 1.4331375614613218 0 0 0
40 0 1 0 10.726190140556987 1.243166259785365 3.3395297148932235 0 0 0
54 0 2 0 10.738015272581807 3.0705105463331597 3.544303334367387 0 0 0
41 0 2 0 9.842307467850649 0.9063690065243218 3.5929819998090595 0 0 0
266 0 2 0 11.038257633142694 0.07388808323655659 1.894069258887899 0 1 0
42 0 2 0 11.34913918406097 0.8603809729069065 3.9676021392118797 0 0 0
70 0 1 0 11.981636999793624 2.6596449087146548 0.1973670398538634 0 0 0
39 0 2 0 10.389549543161904 2.730041650091022 0.12227293169866349 0 0 0
37 0 1 0 9.35913256250507 2.702189371374593 0.1574487059595265 0 0 0
72 0 2 0 12.662660283642223 2.619179830640234 0.910342990417155 0 0 0
103 0 1 0 14.119872294461357 2.0595520953029474 2.0010281483407866 0 0 0
105 0 2 0 14.270051997335454 1.087322847932596 2.096972707618811 0 0 0
84 0 2 0 14.112262924520847 3.446489547417012 3.137842905357903 0 0 0
104 0 2 0 14.87783831827578 2.2799609069594 1.4127749958087052 0 0 0
108 0 2 0 19.26889543484215 1.9312195083807284 0.706426113526284 0 0 0
76 0 1 0 17.10242627824457 0.9372093411132951 3.369702524309137 0 0 0
77 0 2 0 17.394112113063095 0.4505342489318123 2.5599388297972383 0 0 0
89 0 2 0 17.032705816333277 2.8013411913410473 3.5360419611004357 0 0 0
107 0 2 0 17.872892230676158 2.4287352405040576 0.05821372379526027 0 0 0
78 0 2 0 17.85411126307821 0.7815207944929585 3.9525086429329934 0 0 0
88 0 1 0 17.068849281181258 3.7759148355316534 3.5949614293124594 0 0 0
16 0 1 0 3.7903145585739617 4.164484941685697 3.4012483095508212 0 0 0
20 0 2 0 0.4224269187015268 5.01044664012698 1.9941136862932969 0 0 0
19 0 1 0 0.34116743295096214 5.8646370125025715 1.4779515970010741 0 0 0
21 0 2 0 0.40849301816995487 6.659944845381128 2.0310570586347882 0 0 0
675 0 2 0 1.9646736463782992 5.225029030166323 0.5099597632947024 0 0 1
12 0 2 0 1.9108502754512524 4.294653267861283 3.451886550271489 0 0 0
46 0 1 0 7.768207404687791 4.181408149733464 3.986842849962454 0 0 0
17 0 2 0 4.180985401353562 4.57749343118992 2.6363326141258643 0 0 0
14 0 2 0 4.370759097078564 5.553205035416348 0.613371598459726 0 0 0
114 0 2 0 4.181740008464109 7.461716866648609 2.5521070076358336 0 0 0
13 0 1 0 4.8001538634293865 5.807916910250603 1.447220411066433 0 0 0
113 0 2 0 4.731572195888483 7.589302944735321 3.9216182914681794 0 0 0
15 0 2 0 5.793495260820794 5.7951176045816135 1.3381822424138563 0 0 0
55 0 1 0 7.3694562611409316 5.978303684304708 2.0573176746897865 0 0 0
56 0 2 0 7.571981369822476 5.556331084625028 2.921128691791904 0 0 0
177 0 2 0 7.534359314861605 7.910791535811227 2.4555994460953197 0 0 0
112 0 1 0 4.016030666011523 7.98050295537276 3.3669646585366895 0 0 0
52 0 1 0 10.703705488884776 4.050255819430197 3.656758041734258 0 0 0
57 0 2 0 8.135299570477294 5.823635577322946 1.4761144053508348 0 0 0
51 0 2 0 10.946952396353128 5.383501563141332 2.3540095584583924 0 0 0
49 0 1 0 11.130939562088443 6.138525748596744 1.7778689989799397 0 0 0
50 0 2 0 10.583377063009758 6.014679941897064 1.0142957718428043 0 0 0
150 0 2 0 10.859855451241827 7.475113676867635 2.7687673786370164 0 0 0
149 0 2 0 9.873115238025465 7.86539635180382 3.8755917876112864 0 0 0
148 0 1 0 10.749754395013223 7.98078438310135 3.5683790870556598 0 0 0
709 0 1 0 9.189934315201269 5.384680717226164 0.03857023286623682 0 0 1
711 0 2 0 9.183072458527032 4.401859692171666 0.05625139033370412 0 0 1
82 0 1 0 14.337102167079642 4.306809559057473 3.552488406865673 0 0 0
83 0 2 0 14.131598740807446 4.961460333472154 2.8540125054621086 0 0 0
91 0 1 0 13.829487454190208 6.233578046507075 1.6689574158749845 0 0 0
92 0 2 0 14.05705311384563 7.170106564631597 1.9092166323536293 0 0 0
93 0 2 0 12.844705616675599 6.220197006062962 1.6582169405925042 0 0 0
747 0 2 0 14.88470789286824 5.609550300755753 0.41141543919849105 0 0 1
204 0 2 0 15.794011751290995 7.603741550506875 4.131842132580355 0 0 0
90 0 2 0 16.08913199822038 4.074531843083751 3.72459487160478 0 0 0
86 0 2 0 17.571139467298046 4.832940816657514 2.0569280304929336 0 0 0
85 0 1 0 17.783348461053194 5.367153356286559 1.2942907805752393 0 0 0
87 0 2 0 18.681083225261858 5.272619545391919 1.0337791862481476 0 0 0
185 0 2 0 17.474610878368658 7.00608534475371 2.2547899251263575 0 0 0
746 0 2 0 16.406161206532076 5.381571391651856 0.2004153261313813 0 0 1
184 0 1 0 17.33497232676868 7.528872993179628 3.0273953844998727 0 0 0
139 0 1 0 0.6398440858723893 8.623382166268996 2.1263528636893145 0 0 0
141 0 2 0 1.1827980938586984 8.533556829212493 1.3403052176376564 0 0 0
119 0 2 0 1.552955601629858 9.875168186874442 3.0845024988204353 0 0 0
118 0 1 0 1.609716211303334 10.802407505216541 3.3914954980585503 0 0 0
120 0 2 0 2.52954521970731 10.979624248449406 3.6283870605793926 0 0 0
110 0 2 0 3.4913678040674587 9.02828983513309 0.14827096655916344 0 0 0
109 0 1 0 2.532809130535279 8.981604825177058 0.14402575114696864 0 0 0
124 0 1 0 4.421665578086875 10.925865004596716 3.50828476314666 0 0 0
126 0 2 0 4.454436088110492 9.945097920801041 3.322450307611638 0 0 0
122 0 2 0 4.8309327864195515 11.90824721626066 1.9200438311503345 0 0 0
175 0 1 0 7.597936976045298 8.81401308351444 2.2352682045863306 0 0 0
176 0 2 0 6.935312694366695 8.991293623682642 1.5707247690487793 0 0 0
142 0 1 0 5.779808254092333 9.34843345074348 0.1678122641236163 0 0 0
155 0 2 0 7.937767429154077 10.20140523602902 3.4548754470957608 0 0 0
156 0 2 0 8.072451074358469 11.653430514065143 3.1949982114771465 0 0 0
154 0 1 0 8.115335735675664 11.028622123866333 3.9252556588198666 0 0 0
147 0 2 0 8.804700341630944 8.92409601796005 1.0743879649821453 0 0 0
161 0 2 0 10.013051777101204 11.02192195928342 4.0536278892971245 0 0 0
146 0 2 0 9.559975398574876 10.038864161057072 0.24771986497986997 0 0 0
162 0 2 0 10.89680925855087 9.77228614348418 3.7571031379017117 0 0 0
179 0 2 0 11.295273253937243 9.380722141518204 0.8373284064724836 0 0 0
160 0 1 0 10.947147812864417 10.75743003959669 3.8962649981555426 0 0 0
158 0 2 0 11.510119840918 11.818834719099511 2.4622752148844413 0 0 0
145 0 1 0 9.49256691353205 9.049184273316893 0.39164019927768556 0 0 0
178 0 1 0 12.22912053267831 9.43994992747805 0.6012618074681727 0 0 0
211 0 1 0 14.297016252186346 8.991295013774142 2.1056995282701574 0 0 0
212 0 2 0 14.6565519481797 9.605680792744712 2.7690922579218595 0 0 0
213 0 2 0 13.451716017240175 9.296909835788684 1.7694129566712766 0 0 0
190 0 1 0 15.519105834102051 10.587646692187471 3.858559630115112 0 0 0
191 0 2 0 15.250482299865944 11.383480127182924 3.4804081991741316 0 0 0
183 0 2 0 15.460737486009869 8.85021280002118 0.40118961622159927 0 0 0
180 0 2 0 12.3086947429134 8.664254579247366 0.0439500335804829 0 0 0
192 0 2 0 16.49157621963068 10.485274904355485 3.632622502896953 0 0 0
140 0 2 0 19.93890818685967 8.866873350571872 1.9104842232051127 -1 0 0
186 0 2 0 17.701188421390768 8.386778458115215 2.813374985135806 0 0 0
196 0 1 0 18.052844265371377 10.239914122031779 3.034854582731041 0 0 0
197 0 2 0 17.983554724540312 10.68841127979683 2.211048708955628 0 0 0
216 0 2 0 17.684578862056206 9.144514498489102 0.2834723707168039 0 0 0
214 0 1 0 18.635465130686505 9.027918278698326 0.478090225515696 0 0 0
198 0 2 0 18.764276597855336 10.636528884268921 3.5800525318269205 0 0 0
129 0 2 0 0.9452261392168921 12.191765742181424 2.3551085541531687 0 0 0
782 0 2 0 1.8026649702997082 12.281048934194057 0.41240801328977955 0 0 1
249 0 2 0 0.9306861283079202 14.65982896915616 1.8577925104482944 0 0 0
221 0 2 0 2.953748928954392 14.00981612709917 3.494418240468363 0 0 0
127 0 1 0 0.7921245749626094 12.793162883661354 1.6076804345050033 0 0 0
247 0 1 0 0.8268902434619 15.610276445317643 1.7885733306608262 0 0 0
218 0 2 0 1.9337683022783216 15.962986903076953 0.5444832919865367 0 0 0
220 0 1 0 3.818148891902291 14.328344409486443 3.0714610364821273 0 0 0
123 0 2 0 4.158509734164897 12.356805383253588 0.6576960934189108 0 0 0
222 0 2 0 4.112794164544621 13.682978194156146 2.408771195031295 0 0 0
121 0 1 0 5.019118667774081 12.406257791151099 1.131116986646343 0 0 0
163 0 1 0 7.8981279277545635 12.819048728325713 1.9458062284475546 0 0 0
165 0 2 0 6.95742608661881 12.668016630578956 1.5958926174275174 0 0 0
283 0 1 0 7.5963630567625655 15.629025168514541 1.6492673099011623 0 0 0
284 0 2 0 6.804474697832423 15.64333426756602 1.0634255684275677 0 0 0
251 0 2 0 4.385956019672521 15.859320955642026 0.07417772683187225 0 0 0
164 0 2 0 8.014911706874535 13.75730515920617 2.046473122863163 0 0 0
819 0 2 0 8.912175524061926 12.180835902658243 0.611646002333867 0 0 1
818 0 2 0 10.44520661929225 12.205925795190366 0.37842970917251556 0 0 1
258 0 2 0 9.663155950638242 14.649033982968424 3.6439888342282725 0 0 0
285 0 2 0 8.391795345243679 15.641170816039791 1.034608640136211 0 0 0
157 0 1 0 11.68335923387169 12.555859997770595 1.8417034317953573 0 0 0
159 0 2 0 11.285019509988283 13.285085938127342 2.367969961437535 0 0 0
256 0 1 0 10.487367964759331 14.729021658637707 3.107455582770221 0 0 0
257 0 2 0 10.485464661414651 15.667647931947922 2.9042561365841704 0 0 0
855 0 2 0 15.299217160401057 12.08021292360797 0.7049802455304385 0 0 1
199 0 1 0 14.340738444046652 12.53074283765226 2.2086519541017657 0 0 0
200 0 2 0 13.380260791422076 12.379620153054612 1.9869387028791146 0 0 0
201 0 2 0 14.317554022382897 13.486875931241208 2.3425335713829973 0 0 0
319 0 1 0 14.160641433330811 15.318070015731143 1.9803286463898229 0 0 0
320 0 2 0 13.377275155695767 15.512206984445195 1.3866757360543567 0 0 0
291 0 2 0 15.476282002877074 15.79290060342006 0.8418379895258519 0 0 0
286 0 1 0 12.124868589639528 15.860205979413461 0.2897378399325715 0 0 0
321 0 2 0 14.135434832699001 16.004436186832898 2.653813796997337 0 0 0
248 0 2 0 20.098097469120127 15.678893941985088 1.4258672943279933 -1 0 0
128 0 2 0 20.030988627390116 12.713207502458744 1.4060017212898213 -1 0 0
195 0 2 0 17.631167341741786 12.575797219870013 0.7140450997962206 0 0 0
193 0 1 0 18.258595486710725 12.561670158674453 1.4428595133135345 0 0 0
194 0 2 0 17.893779275092882 13.18422089330515 2.033913898744551 0 0 0
292 0 1 0 17.097259926507263 14.45912579141114 3.0697759900519928 0 0 0
293 0 2 0 17.176498472526873 15.410642960065914 3.2087952791640237 0 0 0
294 0 2 0 16.408556507503093 14.27272163550276 3.786261120156994 0 0 0
322 0 1 0 18.853413581853843 15.824426362900324 0.2705798889151139 0 0 0
227 0 2 0 0.9063012602404106 16.586950907179066 3.2216476342796603 0 0 0
235 0 1 0 0.6001854683976193 19.008658359933847 1.6071023101554514 0 0 0
236 0 2 0 0.9491712362086151 18.488701630586014 2.3472437986153336 0 0 0
237 0 2 0 1.1843491815734968 18.848965871576446 0.8254032334434882 0 0 0
226 0 1 0 1.1375644968880423 17.42274219896607 3.7484887615328533 0 0 0
891 0 2 0 3.069164442632227 18.87709492009489 0.13730688629572235 0 0 1
228 0 2 0 2.1083424921193124 17.42381560858899 3.792188789451302 0 0 0
232 0 1 0 3.891830023488496 17.09729892930183 3.308789321243131 0 0 0
250 0 1 0 5.354926686577581 16.096257688125746 0.04280028761460594 0 0 0
233 0 2 0 4.018714339113415 16.18775076767983 2.860396071267955 0 0 0
234 0 2 0 4.133292307445987 17.73826576043801 2.6397367229946784 0 0 0
229 0 1 0 4.321079075173999 19.23538185722898 1.6375223482909624 0 0 0
231 0 2 0 5.3287035526711355 19.205341490122464 1.6971971348670758 0 0 0
271 0 1 0 7.049773745732898 19.530461511504676 1.859695395096313 0 0 0
273 0 2 0 7.23082293095768 18.923662458168167 2.5993960888396908 0 0 0
263 0 2 0 8.017648533755 16.863794552519202 2.997659376055541 0 0 0
262 0 1 0 8.190500410952543 17.53009689058164 3.6956535686579337 0 0 0
927 0 2 0 8.168922969532774 18.658245425837386 0.24618440628118987 0 0 1
264 0 2 0 9.172925855136137 17.67342955401034 3.7244823707892034 0 0 0
265 0 1 0 11.318183337232355 19.38539767596413 1.343411357542439 0 0 0
267 0 2 0 10.519336965761042 19.133612600803836 0.9132598940083483 0 0 0
269 0 2 0 11.125555868608947 18.113606034666617 2.7516654350721463 0 0 0
268 0 1 0 10.856073096764208 17.48511916834017 3.4805050515722438 0 0 0
307 0 1 0 14.043482412664012 19.365487846558203 1.5501442098397689 0 0 0
308 0 2 0 13.150090375493765 19.25215601565408 1.2881045957031998 0 0 0
309 0 2 0 14.268045331967862 18.664062225797707 2.247605236670776 0 0 0
298 0 1 0 14.55814647188647 17.423076444507565 3.595167664564951 0 0 0
963 0 2 0 15.16562237728712 19.088431845817503 0.3214062512584357 0 0 1
300 0 2 0 15.507692297014579 17.560938336384048 3.68429579591035 0 0 0
289 0 1 0 15.9305420698182 16.14340550713635 0.10012293240245199 0 0 0
290 0 2 0 16.87550265509043 16.06921133148328 0.3440270252127114 0 0 0
301 0 1 0 18.17354295643326 19.03083293691833 1.5522210094166582 0 0 0
302 0 2 0 17.6231482584486 18.952172148667906 0.7905939327840277 0 0 0
303 0 2 0 19.144277036146164 19.049922069060806 1.2957918700891966 0 0 0
306 0 2 0 17.757005910551364 17.73839047923166 2.725436123941088 0 0 0
304 0 1 0 17.249348757428947 17.254620910183263 3.41415011986804 0 0 0
22 0 1 0 1.6076163097657654 0.7630590275459448 4.990690653816097 0 0 0
23 0 2 0 1.9430933457457695 1.344005801706437 5.7114895058087125 0 0 0
325 0 1 0 2.6531942972110287 2.6471010377225728 7.083443098814875 0 0 0
101 0 2 0 -0.09961668266974044 0.6633237420781188 4.948448454068001 1 0 0
327 0 2 0 2.5950991171991724 3.4771385074073624 6.60196559399988 0 0 0
326 0 2 0 3.557753314628493 2.499062670333586 7.358425806828125 0 0 0
358 0 1 0 5.300125487511027 2.3519468410732136 7.624054128371912 0 0 0
28 0 1 0 5.658594369647481 0.7494485384687839 5.5383686677564805 0 0 0
29 0 2 0 6.559193806291053 0.9581797533196368 5.1505610919448905 0 0 0
359 0 2 0 5.58214454122709 1.6268719704512946 6.984242944039911 0 0 0
360 0 2 0 5.951548615854561 2.3824623147779302 8.3167050568588 0 0 0
8 0 2 0 5.4518285438604455 3.9233299999148654 6.3613862409697015 0 0 0
58 0 1 0 8.510690596502794 0.5404388723710963 4.837935871589793 0 0 0
59 0 2 0 8.798233240181359 1.118767740745851 5.550376367524419 0 0 0
361 0 1 0 9.166953707260948 2.451223800983689 6.961550229999843 0 0 0
363 0 2 0 9.123620590653655 3.435996786799004 7.033495779564603 0 0 0
362 0 2 0 10.088136961141345 2.247402770317759 7.062330401450597 0 0 0
394 0 1 0 12.008178754765085 2.5082281287895944 7.5227226404747105 0 0 0
396 0 2 0 12.08032452197423 3.3406131213932215 7.0857842449820385 0 0 0
66 0 2 0 12.188406222802517 1.0912658532926114 6.216619539895991 0 0 0
64 0 1 0 12.30148888132216 0.5343281099323892 5.434987294353487 0 0 0
65 0 2 0 13.204959782875553 0.7139533360507321 5.1430031793996625 0 0 0
94 0 1 0 15.00003955548546 0.8802614918272023 5.342166422277433 0 0 0
95 0 2 0 15.639116087672027 1.457662369126172 5.789800981637265 0 0 0
399 0 2 0 15.860928332045088 3.739766119432829 6.964983164190748 0 0 0
397 0 1 0 15.957242937895787 2.754788599824941 6.987489752978756 0 0 0
395 0 2 0 12.752200117547508 2.4981543045830907 8.126565881888748 0 0 0
96 0 2 0 15.387217271234444 0.5923421391653277 4.512531374032943 0 0 0
100 0 1 0 19.221802324009566 0.3968303358327653 5.300256713683928 0 0 0
398 0 2 0 16.864981189284265 2.544612625271765 7.251206679384816 0 0 0
430 0 1 0 18.813757254776405 2.4368585322240963 7.183449464319374 0 0 0
431 0 2 0 18.94288947711567 1.7037252390558697 6.567053195157329 0 0 0
432 0 2 0 19.220080927453182 3.1785129518673267 6.691195422188432 0 0 0
131 0 2 0 2.473145031269861 7.580091830870647 4.272715469924341 0 0 0
132 0 2 0 0.91781112400476 7.542663044674744 4.592849782038741 0 0 0
25 0 1 0 2.7262139633236258 5.649436682951645 6.728592081828261 0 0 0
26 0 2 0 2.7436522373284085 6.090777428271637 5.853443026723283 0 0 0
27 0 2 0 3.6020829479851404 5.856401604182105 7.064264562935363 0 0 0
130 0 1 0 1.8178632766497596 7.326756742714983 4.9369991081377345 0 0 0
344 0 2 0 1.4655463845425543 6.068476333380328 7.99622511294095 0 0 0
9 0 2 0 4.8352771645836174 4.397849893269687 4.981699616710751 0 0 0
7 0 1 0 5.583456921854563 4.443199077881748 5.566463767378071 0 0 0
48 0 2 0 7.1969304836872094 4.025107094657351 4.795720340287033 0 0 0
136 0 1 0 5.899773831877367 7.223472936441606 5.087408207502673 0 0 0
137 0 2 0 5.759431267091191 6.335123805694741 5.421539651168795 0 0 0
138 0 2 0 6.8439378559986315 7.333171486930146 4.919982853593257 0 0 0
47 0 2 0 8.71734166734578 4.252191977632634 4.254974020852865 0 0 0
53 0 2 0 11.15538791836515 4.217908200978807 4.462650895372508 0 0 0
61 0 1 0 8.88608309917543 5.1814042855585205 6.732477751628397 0 0 0
63 0 2 0 8.174388861464408 5.480504202930167 7.3288798343870125 0 0 0
167 0 2 0 8.933672588063862 6.648088278348147 5.697447399966428 0 0 0
166 0 1 0 8.614375197053887 7.408437136362146 5.205165022408638 0 0 0
62 0 2 0 9.709136665083763 5.410824026516287 7.142652337465516 0 0 0
173 0 2 0 12.05620062728154 7.392312150331254 4.818844503229941 0 0 0
44 0 2 0 13.036250882599957 4.1486246502772435 5.359857747308081 0 0 0
43 0 1 0 12.327942078168238 4.538111176921379 5.843441836910156 0 0 0
45 0 2 0 12.41499166567544 5.549088913622192 5.8323364539572005 0 0 0
416 0 2 0 14.455871023394238 5.521792675323455 7.61919881512876 0 0 0
172 0 1 0 12.713956734451717 7.240784437431859 5.467810946995967 0 0 0
174 0 2 0 13.618552858751663 7.206641719753003 5.033396325916521 0 0 0
202 0 1 0 15.192465836902278 7.682337038129511 4.9175983432969925 0 0 0
99 0 2 0 15.756736670409174 6.186897812686957 5.979025617854938 0 0 0
97 0 1 0 15.926246546833335 5.508579684341005 6.655769691953624 0 0 0
417 0 2 0 13.038082384263612 5.63856491606603 8.165248126569917 0 0 0
81 0 2 0 18.436495533283768 4.134517528377241 4.776833072443837 0 0 0
79 0 1 0 19.28116133233 4.448762020938476 5.20883079731807 0 0 0
209 0 2 0 18.51343810658345 7.429207597644781 4.431469445313423 0 0 0
80 0 2 0 19.2020197593952 5.435883686121044 5.308591954886822 0 0 0
98 0 2 0 16.793702032370177 5.6884552919707705 7.057256588559928 0 0 0
208 0 1 0 19.172019023740333 7.15830680709501 5.082922482441228 0 0 0
210 0 2 0 18.833954736434265 7.5154282540992545 5.919588661820251 0 0 0
410 0 2 0 19.202430709433038 5.666605866188133 8.15681181861407 0 0 0
409 0 1 0 18.211239097065167 5.725898628999527 8.22875921852806 0 0 0
433 0 1 0 2.3539418227904267 9.504272839241144 6.73325565530226 0 0 0
435 0 2 0 2.114899086530504 8.818064804915611 6.088290661345374 0 0 0
434 0 2 0 3.272879004024105 9.32909062102092 6.942252367074955 0 0 0
135 0 2 0 2.3032230873394446 11.384453075502416 6.675128998016342 0 0 0
189 0 2 0 0.397830188554981 11.179157282011301 4.739899316906913 1 0 0
465 0 2 0 1.490942266504209 9.047259499609982 8.252846580843041 0 0 0
125 0 2 0 5.030839849179258 11.081677213865705 4.248703876397884 0 0 0
468 0 2 0 5.329151280125338 8.59904314135938 6.165498386096232 0 0 0
466 0 1 0 5.189105319068649 9.173341234882686 6.974930204526662 0 0 0
467 0 2 0 5.365674744697307 10.10393930224622 6.734615982119672 0 0 0
116 0 2 0 6.84051701183683 11.485289555170333 5.05229495767951 0 0 0
115 0 1 0 5.955799674288602 11.643724363261326 5.5311262221299735 0 0 0
168 0 2 0 8.934068293526149 8.165385596972834 5.72603067568234 0 0 0
469 0 1 0 9.401932735740637 9.557801490308073 6.993412866340182 0 0 0
470 0 2 0 9.301211395452068 10.48982638370229 6.810575044907936 0 0 0
471 0 2 0 10.336768088802957 9.379053578991638 7.267828521155378 0 0 0
500 0 2 0 8.129986042654721 9.105383808246168 8.198039259726826 0 0 0
152 0 2 0 12.153863271120166 11.030662938979212 5.127109988307502 0 0 0
502 0 1 0 12.242676288707964 9.079709509576656 7.253842275041698 0 0 0
503 0 2 0 12.516858731080726 8.498030599081362 6.5097918749741055 0 0 0
504 0 2 0 12.748506751452258 9.922022743657234 7.0144240837302325 0 0 0
151 0 1 0 12.771346769909112 11.362262684545879 5.797742631336331 0 0 0
153 0 2 0 13.65339350826191 11.215994832556522 5.346644369509631 0 0 0
203 0 2 0 15.447778800743766 8.505068869900583 5.285272760239613 0 0 0
507 0 2 0 15.432075360071932 8.91056202703222 7.606067263907151 0 0 0
207 0 2 0 16.01830567991366 11.334129383206141 6.632923171693388 0 0 0
505 0 1 0 15.895474062348006 9.483256914695467 6.98544549258777 0 0 0
506 0 2 0 16.83171755511139 9.386519596984954 7.2223736494521065 0 0 0
538 0 1 0 18.771936780766858 9.488724456846988 7.165775935651336 0 0 0
539 0 2 0 19.498547783486018 9.48904006322113 7.839715725508334 0 0 0
540 0 2 0 19.1087909518484 10.054553515474293 6.451977733589445 0 0 0
187 0 1 0 19.793025526690073 11.227796408397447 5.220355570255876 0 0 0
133 0 1 0 2.3445927982737467 12.340192085729708 6.7552991173197725 0 0 0
134 0 2 0 3.130503151007876 12.477444214113422 7.338881483660602 0 0 0
238 0 1 0 1.6351178784540656 13.866256085842112 4.616399731938959 0 0 0
239 0 2 0 0.7132127942899037 13.925151786124994 4.65409727548996 0 0 0
240 0 2 0 1.8917207960758766 13.30863918088699 5.376868113241567 0 0 0
542 0 2 0 2.636274471093405 15.372516124711963 5.85923202833371 0 0 0
541 0 1 0 2.773497630254194 15.998258941722073 6.555188551089554 0 0 0
453 0 2 0 0.9431294762745543 12.572052372254296 7.89017462924136 0 0 0
573 0 2 0 1.4283203392873187 15.533732006051482 8.109069025650918 0 0 0
246 0 2 0 5.157085769329465 14.43451389860471 4.154518729449105 0 0 0
117 0 2 0 5.711177503735898 12.572915803166175 5.275166672680657 0 0 0
244 0 1 0 5.848540210216128 14.383511882224578 4.82046161525587 0 0 0
245 0 2 0 5.481695382316754 14.869235460958711 5.55035961235575 0 0 0
276 0 2 0 7.560892075715175 14.4980062274466 4.554552903983543 0 0 0
575 0 2 0 5.779313243957941 15.808341609057427 7.886899960621516 0 0 0
574 0 1 0 5.329113808320661 15.881585013993234 7.02681872353537 0 0 0
447 0 2 0 5.452096417122081 12.951590939401301 7.872617652017844 0 0 0
445 0 1 0 4.58679079813966 12.844445809986738 8.249596044709987 0 0 0
489 0 2 0 7.940467729765354 12.970688664030424 7.98444483472958 0 0 0
281 0 2 0 11.777629963051718 14.200063147242439 4.41710339914005 0 0 0
169 0 1 0 9.001876041518296 12.282798821293104 6.821021720636238 0 0 0
170 0 2 0 8.928895983024221 12.923327746423116 6.137427917218085 0 0 0
274 0 1 0 8.431683370912692 14.279998407404653 4.859279770582325 0 0 0
275 0 2 0 8.639385147132469 15.033639850091657 5.453205713403075 0 0 0
171 0 2 0 9.796137333554839 12.552683301446987 7.336542304299498 0 0 0
578 0 2 0 8.641581144144158 15.843319851191005 7.561204244035102 0 0 0
611 0 2 0 11.251846491560507 15.98500723302123 7.608575176461891 0 0 0
206 0 2 0 15.045404806459587 12.15146643691774 7.534054472185666 0 0 0
205 0 1 0 15.812968073027603 12.24654852550771 6.949539368853729 0 0 0
612 0 2 0 12.227968938167491 15.14345526857088 6.735651680515281 0 0 0
282 0 2 0 12.510395846419799 13.213358312532453 5.362597978083864 0 0 0
280 0 1 0 12.447783223333593 14.139045258691255 5.077137842406241 0 0 0
311 0 2 0 14.307223077964473 14.448570924610882 4.965783562857676 0 0 0
310 0 1 0 15.222424758675292 14.495641847598183 5.2617316389913364 0 0 0
312 0 2 0 15.34695107569672 13.655942755240646 5.753746216173761 0 0 0
614 0 2 0 15.681187491867641 15.517067477407206 6.5932337206302405 0 0 0
610 0 1 0 12.184604485045535 15.767122655915468 7.467913778592805 0 0 0
613 0 1 0 15.861671621398889 15.9808853533519 7.445215583516207 0 0 0
188 0 2 0 19.35220691478247 12.06413165776503 5.178325693700603 0 0 0
318 0 2 0 18.30626741411556 14.038512009855822 4.35534256247376 0 0 0
518 0 2 0 17.212049227619097 12.505689097092395 8.066617152418223 0 0 0
316 0 1 0 18.977790880308426 13.675751332021532 4.965157945999075 0 0 0
317 0 2 0 18.834574890705134 14.220345549704305 5.78401496166737 0 0 0
648 0 2 0 19.354024108336638 15.687652910726317 7.719607814428916 0 0 0
646 0 1 0 18.598599564635933 15.676864472716032 7.117516272289131 0 0 0
24 0 2 0 1.7345064231964709 19.916257436570334 5.3620412658979735 0 -1 0
543 0 2 0 3.7426279668714484 16.039960003861253 6.811086528772015 0 0 0
241 0 1 0 2.186260164973539 18.722026158036982 6.510996731310603 0 0 0
242 0 2 0 2.3317339883920623 17.750862955303432 6.577735296709696 0 0 0
243 0 2 0 3.004344281573117 19.063221598205978 6.98424054334263 0 0 0
560 0 2 0 1.0878163237763492 19.226415002136157 7.926902286851881 0 0 0
30 0 2 0 5.638095565683448 19.77306187280677 5.430407437596733 0 -1 0
224 0 2 0 5.364635671016147 17.73686105597698 4.951873546391085 0 0 0
223 0 1 0 6.101677596008849 17.9094132729442 5.525067723575276 0 0 0
225 0 2 0 6.953152258030291 17.830807022904857 5.026931487391484 0 0 0
576 0 2 0 5.697834760205499 16.662082841734865 6.567556606542191 0 0 0
60 0 2 0 8.55492678336345 19.730065258855078 5.360411596277852 0 -1 0
577 0 1 0 9.21171144533269 16.13820713427117 6.803591992507808 0 0 0
270 0 2 0 11.50366307012563 17.526907738134845 4.199728660694897 0 0 0
278 0 2 0 8.364505630596494 19.006692074405315 7.540047138424515 0 0 0
277 0 1 0 9.096895659930665 18.6966629947309 6.924255064825536 0 0 0
579 0 2 0 9.135722234726778 17.1090411012906 6.750938632055955 0 0 0
279 0 2 0 9.864360409473784 18.95399099057039 7.493598363360792 0 0 0
261 0 2 0 12.572629232566804 17.320707030997042 6.44947050391613 0 0 0
260 0 2 0 12.43001779077838 18.658265734626816 5.725568887226099 0 0 0
259 0 1 0 12.83724889498557 17.80615128443678 5.606015870208373 0 0 0
299 0 2 0 14.017696373732331 17.476031782688892 4.38546638621044 0 0 0
315 0 2 0 14.788414644391136 18.880054770417196 7.993352385661025 0 0 0
314 0 2 0 15.17244657904381 19.249164385941953 6.448249779680607 0 0 0
313 0 1 0 15.433635837673105 18.81067369874964 7.2669571870381136 0 0 0
615 0 2 0 15.708781196542567 16.943177948645832 7.172788068184789 0 0 0
647 0 2 0 17.941800976257106 16.29985584474582 7.437351363154295 0 0 0
297 0 2 0 20.08383734942116 17.527432042608943 5.014765380538509 0 0 0
102 0 2 0 19.327725254046328 19.483861166380414 5.540085161975549 0 -1 0
305 0 2 0 17.62988233250207 17.4808248150009 4.284355507129836 0 0 0
295 0 1 0 19.202408955822193 17.579472095200586 5.33960884751306 0 0 0
296 0 2 0 19.16906248725381 16.833716981582867 5.944525510620058 0 0 0
627 0 2 0 17.12856492972969 19.28975588094793 8.008865599453367 0 0 0
626 0 2 0 18.75024805783606 19.187237920192864 8.30406058959751 0 0 0
356 0 2 0 1.4919822192894963 2.2363272708079074 8.383982565143251 0 0 0
357 0 2 0 -0.05560548884243839 2.2166392613794814 8.519408713672311 0 0 0
335 0 2 0 1.1356731904342916 3.2508334579069618 10.37782886939924 0 0 0
347 0 2 0 2.3363215963589754 0.9850926333174248 11.553854545329985 0 0 0
348 0 2 0 0.9130325345280081 0.8419139298300741 12.367967416123278 0 0 0
355 0 1 0 0.7729787695765551 2.007939514985097 9.016221588697267 0 0 0
346 0 1 0 1.883631760202473 0.6330209077934753 12.321595952464738 0 0 0
328 0 1 0 3.9112925772897205 1.0723493646798585 10.406715963162116 0 0 0
561 0 2 0 0.6418069428123168 0.17190568156062563 8.927772173985723 0 1 0
329 0 2 0 4.2046338508662435 1.9061974294685764 10.015477309242112 0 0 0
330 0 2 0 4.533490374116411 0.9918892510411124 11.177124969505208 0 0 0
393 0 2 0 7.5407677913069575 1.1130313848201032 9.504800917041456 0 0 0
352 0 1 0 5.700673650012708 0.7313170969283813 12.309685604023876 0 0 0
391 0 1 0 7.662952158930898 2.0708996319268316 9.326268085824271 0 0 0
353 0 2 0 6.589106199276402 0.7280121393954438 11.934975401126772 0 0 0
372 0 2 0 7.933224311881554 3.6887794207463833 10.245862059455119 0 0 0
340 0 1 0 4.080168267901167 3.900518821926233 10.182409541584848 0 0 0
392 0 2 0 8.074964264244727 2.1142663636468844 8.415420949717078 0 0 0
382 0 1 0 8.561173116225588 0.9176723266233008 11.936787660223535 0 0 0
366 0 2 0 10.05158252583341 1.4839847135072286 10.882103023264087 0 0 0
364 0 1 0 10.936492849338018 1.5223360927141183 10.482278454556218 0 0 0
378 0 2 0 11.007398382888503 3.3400253687212857 10.366697787917897 0 0 0
365 0 2 0 11.602785057306045 1.252796169419544 11.164994981296848 0 0 0
383 0 2 0 8.707702968847414 0.041552101419424683 12.426356974620854 0 0 0
429 0 2 0 14.8258204878967 2.433386144220699 8.48994817851301 0 0 0
427 0 1 0 14.30988233534866 2.111020574897112 9.22999467697403 0 0 0
428 0 2 0 14.425353092112477 2.6945134718249286 10.020081984756517 0 0 0
389 0 2 0 13.641460644234574 0.8878892347365869 12.022669709087728 0 0 0
418 0 1 0 15.496780741111506 0.98952277540421 11.865425291655566 0 0 0
632 0 2 0 14.087834292802873 0.29709760263529955 9.474699111786931 0 1 0
388 0 1 0 12.726624956948186 0.9143692920053049 12.307593545729626 0 0 0
420 0 2 0 15.584634897305905 1.825773140802199 12.356525336585207 0 0 0
400 0 1 0 17.84751564427396 1.2501208491739584 10.66646038378114 0 0 0
401 0 2 0 17.959381450610955 0.6852286111961274 9.883731952117255 0 0 0