LAMMPS (29 Sep 2021 - Update 2)
  using 1 OpenMP thread(s) per MPI task
echo both

include		in.partitions
variable        pid world 0
include		in.temp
variable        temperature equal 240
variable	tempDamp equal 0.1
include		in.pressure
variable        pressure equal 2026.5
variable        pressureDamp equal 1.0 # This is 1 ps
include		in.seed
variable        seed world 745823

units           metal
atom_style	full
include		in.box
read_data       iceIII.data
Reading data file ...
  orthogonal box = (0.0000000 0.0000000 0.0000000) to (19.991053 19.991053 20.800772)
  1 by 1 by 1 MPI processor grid
  reading atoms ...
  972 atoms
Finding 1-2 1-3 1-4 neighbors ...
  special bond factors lj:    0        0        0       
  special bond factors coul:  0        0        0       
     0 = max # of 1-2 neighbors
     0 = max # of 1-3 neighbors
     0 = max # of 1-4 neighbors
     1 = max # of special neighbors
  special bonds CPU = 0.003 seconds
  read_data CPU = 0.053 seconds
include 	in.setup
variable	out_freq equal 500
variable	out_freq2 equal 500

timestep        0.0005

neigh_modify    delay 7 every 1

include         in.deepmd
# This is deepMD model

# create groups ###
#group ox type 2
#group hy type 1

mass 2 15.999
mass 1 1.008

pair_style      deepmd ../graph.pb
pair_coeff      * *

bond_style      none
angle_style     none
dihedral_style  none
improper_style  none
neigh_modify exclude none


neighbor        2.0 bin
neigh_modify    every 10 delay 0 check no

thermo          ${out_freq}
thermo          500
thermo_style 	custom step temp pe etotal epair emol press lx ly lz xy xz yz vol pxx pyy pzz pxy pxz pyz cella cellb cellc cellalpha cellbeta cellgamma

restart 	${out_freq} restart.lmp.${pid} restart2.lmp.${pid}
restart 	500 restart.lmp.${pid} restart2.lmp.${pid}
restart 	500 restart.lmp.0 restart2.lmp.${pid}
restart 	500 restart.lmp.0 restart2.lmp.0


include         in.dump
dump            myDump all atom ${out_freq2} dump.water.${pid}
dump            myDump all atom 500 dump.water.${pid}
dump            myDump all atom 500 dump.water.0
dump            myDump2 all dcd ${out_freq2} dump.dcd
dump            myDump2 all dcd 500 dump.dcd
dump_modify     myDump append yes
dump_modify     myDump2 append yes


timer           timeout 04:55:00 every 1000
New timer settings: style=normal  mode=nosync  timeout=04:55:00

fix             2 all nph aniso ${pressure} ${pressure} ${pressureDamp}
fix             2 all nph aniso 2026.5 ${pressure} ${pressureDamp}
fix             2 all nph aniso 2026.5 2026.5 ${pressureDamp}
fix             2 all nph aniso 2026.5 2026.5 1
fix             3 all temp/csvr ${temperature} ${temperature} ${tempDamp} ${seed}
fix             3 all temp/csvr 240 ${temperature} ${tempDamp} ${seed}
fix             3 all temp/csvr 240 240 ${tempDamp} ${seed}
fix             3 all temp/csvr 240 240 0.1 ${seed}
fix             3 all temp/csvr 240 240 0.1 745823
velocity 	all create ${temperature} ${seed} dist gaussian
velocity 	all create 240 ${seed} dist gaussian
velocity 	all create 240 745823 dist gaussian

run             400000

CITE-CITE-CITE-CITE-CITE-CITE-CITE-CITE-CITE-CITE-CITE-CITE-CITE

Your simulation uses code contributions which should be cited:

- USER-DEEPMD package:

@article{Wang_ComputPhysCommun_2018_v228_p178,
  author = {Wang, Han and Zhang, Linfeng and Han, Jiequn and E, Weinan},
  doi = {10.1016/j.cpc.2018.03.016},
  url = {https://doi.org/10.1016/j.cpc.2018.03.016},
  year = 2018,
  month = {jul},
  publisher = {Elsevier {BV}},
  volume = 228,
  journal = {Comput. Phys. Commun.},
  title = {{DeePMD-kit: A deep learning package for many-body potential energy representation and molecular dynamics}},
  pages = {178--184}
}

CITE-CITE-CITE-CITE-CITE-CITE-CITE-CITE-CITE-CITE-CITE-CITE-CITE

Neighbor list info ...
  update every 10 steps, delay 0 steps, check no
  max neighbors/atom: 2000, page size: 100000
  master list distance cutoff = 8
  ghost atom cutoff = 8
  binsize = 4, bins = 5 5 6
  1 neighbor lists, perpetual/occasional/extra = 1 0 0
  (1) pair deepmd, perpetual
      attributes: full, newton on
      pair build: full/bin
      stencil: full/bin/3d
      bin: standard
Per MPI rank memory allocation (min/avg/max) = 7.648 | 7.648 | 7.648 Mbytes
Step Temp PotEng TotEng E_pair E_mol Press Lx Ly Lz Xy Xz Yz Volume Pxx Pyy Pzz Pxy Pxz Pyz Cella Cellb Cellc CellAlpha CellBeta CellGamma 
       0          240   -175.65013   -145.52735   -175.65013            0     37388.95    19.991053    19.991053    20.800772            0            0            0    8312.8663    41176.014    41603.317     29387.52   -62.649418   -1048.8374   -442.56691    19.991053    19.991053    20.800772           90           90           90 
     500    236.80864   -164.34047   -134.61824   -164.34047            0    -2128.542    20.164474    20.071442    20.628052            0            0            0    8348.7932   -2148.2056   -1264.3132   -2973.1072   -473.76495   -798.96518   -805.48122    20.164474    20.071442    20.628052           90           90           90 
    1000    248.22599   -163.49484   -132.33959   -163.49484            0   -473.91193    20.274838    20.155956    20.398151            0            0            0    8335.8829   -814.40266    52.621913   -659.95504   -1383.6432   -440.60736   -450.78241    20.274838    20.155956    20.398151           90           90           90 
    1500    237.43873   -163.67814   -133.87682   -163.67814            0    7721.0017    20.286411    20.186533    20.366965            0            0            0    8340.5225    5193.9431    9255.5138    8713.5482     1880.253   -1670.5781    597.21262    20.286411    20.186533    20.366965           90           90           90 
    2000    230.67232   -160.87606   -131.92401   -160.87606            0   -3568.9913    20.213602    20.157995    20.423691            0            0            0    8321.9536   -5262.6262     257.3206   -5701.6684     768.4341    1252.8935    938.76758    20.213602    20.157995    20.423691           90           90           90 
    2500    240.64811   -161.07155   -130.86742   -161.07155            0    4333.0042    20.071597    20.245528    20.555143            0            0            0    8352.7894    4569.4758    3900.2445    4529.2921    2936.3889     2574.762   -1354.0322    20.071597    20.245528    20.555143           90           90           90 
    3000    242.23367   -161.32728   -130.92415   -161.32728            0    3562.1221    20.091879    20.254725    20.779122            0            0            0    8456.1774    5092.4667    2214.5301    3379.3696   -741.01955    1324.6009    3768.9908    20.091879    20.254725    20.779122           90           90           90 
    3500    239.17445   -161.93547    -131.9163   -161.93547            0    3897.9262    20.160712    19.964265     20.63623            0            0            0    8305.9546    4468.9749    4621.5033    2603.3003   -531.33476   -707.03775    1883.2562    20.160712    19.964265     20.63623           90           90           90 
    4000    241.83668    -162.8176   -132.46429    -162.8176            0    1445.5853     20.40702    19.984152    20.593944            0            0            0    8398.5602    -1160.088    2944.3887    2552.4553    777.26772    2302.6754    538.91172     20.40702    19.984152    20.593944           90           90           90 
    4500    236.02807   -162.13666    -132.5124   -162.13666            0   -622.23785    20.264492    20.112249    20.486989            0            0            0    8349.7698   -2173.5022   -1044.6257    1351.4144    1282.9926    -724.8677    -1776.066    20.264492    20.112249    20.486989           90           90           90 
    5000    232.74274   -161.40197   -132.19006   -161.40197            0    1132.8014    20.113313    20.314456    20.560254            0            0            0    8400.7349    2335.4048    131.94221    931.05719   -936.64024    631.13498   -742.48381    20.113313    20.314456    20.560254           90           90           90 
    5500    228.21413   -162.18379   -133.54027   -162.18379            0    3419.0424    20.015407    20.234518    20.529832            0            0            0    8314.6252    2748.7398    1949.5219    5558.8655    635.76425    1394.7644   -1072.6613    20.015407    20.234518    20.529832           90           90           90 
    6000    242.34788   -162.43109   -132.01362   -162.43109            0   -3288.9381    20.200298    20.229672    20.712796            0            0            0    8464.1891   -331.17491   -3022.8463   -6512.7931   -1338.4509   -788.26889     1380.299    20.200298    20.229672    20.712796           90           90           90 
    6500    243.29619   -163.34601   -132.80951   -163.34601            0    3193.3574    20.152447    20.001849      20.5207            0            0            0    8271.6113    3905.5004    275.10591     5399.466    691.09243    -1095.676    358.05804    20.152447    20.001849      20.5207           90           90           90 
    7000    239.87914   -160.96886   -130.86125   -160.96886            0    1611.8056    20.312871    20.089908    20.481012            0            0            0    8357.9671    4247.5356    1809.1799   -1221.2986    12.452301   -984.95786    1323.7373    20.312871    20.089908    20.481012           90           90           90 
    7500    242.36988   -161.36177   -130.94154   -161.36177            0   -1349.3733    20.306581    20.227205    20.524448            0            0            0    8430.3219   -155.86782   -2891.5854   -1000.6666    748.28288    1559.7386   -850.04169    20.306581    20.227205    20.524448           90           90           90 
    8000    237.36646    -162.1129   -132.32066    -162.1129            0   -1152.4548    20.090956    20.233115    20.637052            0            0            0    8389.0157    2007.5152    -2659.209   -2805.6706    1332.3712   -1747.0492    2486.7261    20.090956    20.233115    20.637052           90           90           90 
    8500    240.52697   -163.30006   -133.11114   -163.30006            0    5103.6999    19.970317    20.148186    20.647243            0            0            0    8307.7416    4929.8566    6700.4152     3680.828     248.5566    2.2561223    2645.9672    19.970317    20.148186    20.647243           90           90           90 
    9000    244.82445    -161.4104   -130.68209    -161.4104            0    2948.6804    20.227888     20.17683    20.676107            0            0            0    8438.6362   -64.437196    2620.9516    6289.5269   -828.95472    1.2298599    848.07287    20.227888     20.17683    20.676107           90           90           90 
    9500    238.88216   -160.78091   -130.79843   -160.78091            0    263.68717    20.489795    20.191429    20.611016            0            0            0    8527.1534   -82.617285    693.94097    179.73783   -2133.3814   -645.20589    2129.2724    20.489795    20.191429    20.611016           90           90           90 
   10000    243.12468   -160.59572   -130.08075   -160.59572            0    5670.9911    20.145931    20.098553    20.458927            0            0            0    8283.9024    7185.3359    4623.3927    5204.2446   -620.21672   -1265.7801    2084.9387    20.145931    20.098553    20.458927           90           90           90 
   10500    244.23814   -159.36235   -128.70763   -159.36235            0    2026.0844    19.975474    20.299635    20.632124            0            0            0    8366.2196    4689.0147    1342.9034    46.335214   -457.24631    684.95459   -3135.4291    19.975474    20.299635    20.632124           90           90           90 
   11000     240.3407   -161.37245    -131.2069   -161.37245            0   -314.79195    20.233827    20.287303    20.729978            0            0            0    8509.4441   -19.026535   -548.73628   -376.61302     12.18337    2782.3016     1071.288    20.233827    20.287303    20.729978           90           90           90 
   11500    234.90559   -161.61949   -132.13612   -161.61949            0   -112.82862    20.393539    19.930157    20.505495            0            0            0    8334.3852   -1225.5276    1487.0145   -599.97276    50.769741     1626.095    823.38955    20.393539    19.930157    20.505495           90           90           90 
   12000    241.48557     -161.046   -130.73675     -161.046            0    111.19356    20.333504    20.073546    20.531392            0            0            0    8380.2067    17.064419    -325.0033    641.51958    1738.1128   -1395.4515    849.70097    20.333504    20.073546    20.531392           90           90           90 
   12500    242.32671   -161.32361   -130.90879   -161.32361            0    3438.7454    20.081146    20.387425    20.615211            0            0            0    8439.9262    2065.5875    5294.8294    2955.8192    1049.6861   -480.80489    933.81325    20.081146    20.387425    20.615211           90           90           90 
   13000    247.09576   -161.19851   -130.18513   -161.19851            0    1564.6202    20.069148    20.281972    20.614947            0            0            0    8391.1471    2888.0647   -1934.5758    3740.3716   -629.70173   -543.82346   -1945.6844    20.069148    20.281972    20.614947           90           90           90 
   13500    238.68197   -162.15532   -132.19796   -162.15532            0    1382.5093    20.243841    20.094769    20.573213            0            0            0    8369.0866    6184.8976   -3268.4222    1231.0525     1970.638    -679.4453    117.63426    20.243841    20.094769    20.573213           90           90           90 
   14000    233.12634   -162.35792   -133.09785   -162.35792            0    26.856508    20.325142    20.133465    20.608954            0            0            0    8433.5042    4298.6911   -4069.3335   -148.78808   -204.99147    1561.5647   -1693.7648    20.325142    20.133465    20.608954           90           90           90 
   14500    221.75761   -161.28893   -133.45577   -161.28893            0    3478.5961    20.127361    20.132775    20.427915            0            0            0    8277.7923    4861.5013    1975.4404    3598.8465    1975.1871     1894.068    1839.4043    20.127361    20.132775    20.427915           90           90           90 
   15000    238.27892   -161.04908   -131.14231   -161.04908            0    1193.9305    20.171663    20.278155    20.489757            0            0            0    8381.2139    1044.6709    732.47423    1804.6462     420.5803    3100.1744    1457.8148    20.171663    20.278155    20.489757           90           90           90 
   15500    238.17194   -161.45813   -131.56478   -161.45813            0    4006.4057    20.198285    20.205644     20.55831            0            0            0     8390.244    876.79514    4110.9313    7031.4908   -560.05573    452.46112    972.73139    20.198285    20.205644     20.55831           90           90           90 
   16000    251.80714   -162.50191   -130.89719   -162.50191            0    1003.4992    20.208485    20.112234    20.579922            0            0            0    8364.4576   -588.74673    1476.3617    2122.8826   -388.95547    4422.6255    1961.5114    20.208485    20.112234    20.579922           90           90           90 
   16500    246.96682   -162.16834   -131.17114   -162.16834            0    621.34582    20.249363    20.190224    20.605132            0            0            0    8424.1852    1415.5823   -1529.5161    1977.9713   -1429.8032   -1130.9249   -369.09647    20.249363    20.190224    20.605132           90           90           90 
   17000    248.11998   -162.58153    -131.4396   -162.58153            0     5629.041    20.078884     20.21837    20.533336            0            0            0      8335.76    3915.4449    6962.7662    6008.9121    -852.6243    655.53681    2794.3434    20.078884     20.21837    20.533336           90           90           90 
   17500    240.81666   -161.66592   -131.44064   -161.66592            0    904.68477    20.192013    20.318314    20.648513            0            0            0    8471.4171    1723.7831   -186.60374    1176.8749   -28.989991   -2481.8211   -1903.1338    20.192013    20.318314    20.648513           90           90           90 
   18000     232.8045   -162.31981   -133.10014   -162.31981            0    1759.5826    20.276331     20.08444    20.552076            0            0            0    8369.6017    2221.4157    2703.9981    353.33384    551.02084   -793.66644   -3524.3526    20.276331     20.08444    20.552076           90           90           90 
   18500    233.36065   -162.00865   -132.71918   -162.00865            0    3497.9734    20.269139    20.031855    20.511421            0            0            0    8328.2211    1807.0298    6083.0633     2603.827    636.79449    320.22476   -62.749277    20.269139    20.031855    20.511421           90           90           90 
   19000    240.85294   -162.79571   -132.56588   -162.79571            0    394.83568    20.133479    20.292694    20.635885            0            0            0    8431.0496    4603.6626   -3581.8754     162.7199   -102.55298   -216.18765    105.54484    20.133479    20.292694    20.635885           90           90           90 
   19500    233.38327   -160.80265   -131.51034   -160.80265            0    4145.0589    20.066459    20.230034    20.651414            0            0            0    8383.3414    4526.9596    3686.1929    4222.0241    627.97984    1652.2218     72.44451    20.066459    20.230034    20.651414           90           90           90 
   20000    239.69282   -163.30508   -133.22085   -163.30508            0    669.51584    20.227749    19.969379    20.584397            0            0            0    8314.7706    2653.8535   -388.11397     -257.192    -2460.395    1134.1092   -2681.5838    20.227749    19.969379    20.584397           90           90           90 
   20500    236.80757   -162.78785   -133.06575   -162.78785            0    1359.9888    20.411011    20.019627    20.402545            0            0            0    8336.9051   -1857.8952    2992.6491    2945.2124    190.76958     1215.594   -2963.4704    20.411011    20.019627    20.402545           90           90           90 
   21000    238.25229   -162.67926   -132.77583   -162.67926            0    1190.3701    20.273994     20.35844    20.450695            0            0            0    8440.9607    1401.1077    2080.4166    89.586002   -666.63225   -3221.2708    1119.7958    20.273994     20.35844    20.450695           90           90           90 
   21500    233.92027   -163.50435   -134.14465   -163.50435            0    1488.6283    20.003298     20.28597    20.481726            0            0            0    8311.2041    2360.9999   -2516.6021    4621.4872   -37.091784   -627.66903    319.09575    20.003298     20.28597    20.481726           90           90           90 
   22000    236.68514   -161.80245   -132.09572   -161.80245            0    784.01115    20.141656    20.103301    20.594219            0            0            0    8338.8828    -2334.311    4970.0541   -283.70962   -1345.1653    -754.8987    112.35405    20.141656    20.103301    20.594219           90           90           90 
   22500    242.11754   -162.20358   -131.81502   -162.20358            0   -37.302458    20.320303    20.050695    20.613998            0            0            0    8398.8889   -24.931176   -2221.7075    2134.7313    1100.1539     2953.797   -2629.0901    20.320303    20.050695    20.613998           90           90           90 
   23000    230.94087   -162.37264   -133.38689   -162.37264            0     1992.037    20.152683    20.215597    20.615908            0            0            0    8398.8909    2606.6405    1765.8573    1603.6131    268.96276   -265.27024   -1515.4013    20.152683    20.215597    20.615908           90           90           90 
   23500    245.19586   -162.76672    -131.9918   -162.76672            0    2982.5714    20.035807    20.310599    20.528229            0            0            0     8353.742    2115.4953    3038.6135    3793.6055    768.57348    1169.6736   -2187.0803    20.035807    20.310599    20.528229           90           90           90 
   24000    241.99607   -160.34386   -129.97054   -160.34386            0    4827.7855    20.159871     20.12328    20.455663            0            0            0    8298.5093    9079.4721    2093.3803     3310.504    167.74876     427.2068    1285.7178    20.159871     20.12328    20.455663           90           90           90 
   24500    243.43908    -161.7426   -131.18818    -161.7426            0    2196.5148    20.440674    20.168224    20.629588            0            0            0    8504.5909    1754.0725    139.98466    4695.4871    1886.5751   -2547.3879   -188.21601    20.440674    20.168224    20.629588           90           90           90 
   25000    248.85203   -162.05847   -130.82465   -162.05847            0    2866.5908     20.13935    20.124569    20.570167            0            0            0    8337.0008    4421.2277    5374.0791   -1195.5345    636.21983   -896.93229    2527.2882     20.13935    20.124569    20.570167           90           90           90 
   25500    241.38981   -160.80329   -130.50607   -160.80329            0    1349.9757    20.072006     20.19513    20.618647            0            0            0     8357.908    3988.4247   -2342.1562    2403.6587   -780.17527   -3003.3035    201.54697    20.072006     20.19513    20.618647           90           90           90 
   26000    246.78599   -161.37846   -130.40396   -161.37846            0    18.858099    20.286466    20.280602     20.67339            0            0            0    8505.4821    426.73369    300.33233   -670.49172    130.70729    1856.3661   -1413.8808    20.286466    20.280602     20.67339           90           90           90 
   26500    239.00133   -162.52998   -132.53254   -162.52998            0    2720.7233    20.248636     20.05685    20.475959            0            0            0    8315.7756    5006.8187   -1332.1226    4487.4738   -1268.7811    576.88125    1485.2169    20.248636     20.05685    20.475959           90           90           90 
   27000    247.01104   -160.91534   -129.91259   -160.91534            0    1718.4132     20.21361    20.092994    20.486765            0            0            0    8320.7396   -483.55729    5909.0782   -270.28121    1177.8091      921.726   -376.05861     20.21361    20.092994    20.486765           90           90           90 
   27500    237.52601   -161.61461   -131.80234   -161.61461            0     1163.103    20.250426    20.266271    20.599776            0            0            0    8454.1609    3796.6556   -2000.3974    1693.0508   -1131.7725   -30.262367    1987.8264    20.250426    20.266271    20.599776           90           90           90 
   28000    238.36981   -162.41935   -132.50117   -162.41935            0    3530.4063     20.18092    20.157553    20.663792            0            0            0    8405.9889    5531.6213      4730.56     329.0375    2052.4135   -1931.6931   -1559.1686     20.18092    20.157553    20.663792           90           90           90 
   28500    243.56781   -161.87727   -131.30669   -161.87727            0    618.93295    20.103551    20.073801    20.612266            0            0            0    8318.1766   -24.666911     2918.901   -1037.4352    1358.7992    781.51208    2869.5213    20.103551    20.073801    20.612266           90           90           90 
   29000    240.65503   -161.76563   -131.56063   -161.76563            0    4132.0245    20.176776     20.25775    20.514889            0            0            0    8385.1756    5610.9737    3084.1794    3700.9206    1689.9239   -270.37768    2051.3968    20.176776     20.25775    20.514889           90           90           90 
   29500    247.58816   -161.57206   -130.49687   -161.57206            0     2099.069    20.300674    20.328529    20.427276            0            0            0    8429.9864    2909.1883    2609.2717    778.74687   -1927.2336   -329.11328    1290.2115    20.300674    20.328529    20.427276           90           90           90 
   30000    262.28422   -161.83345   -128.91374   -161.83345            0   -1001.7662    20.256091    20.162929    20.436529            0            0            0    8346.7306   -1762.0211   -1165.0115   -78.266045    -483.8563   -1532.9224      300.993    20.256091    20.162929    20.436529           90           90           90 
   30500    246.29089    -161.0039   -130.09154    -161.0039            0    3011.8861    20.237369    20.044144    20.679213            0            0            0    8388.3313   -1244.4539    8473.5629    1806.5492   -670.71858   -1720.2469    1976.8551    20.237369    20.044144    20.679213           90           90           90 
   31000    248.52781   -161.22054   -130.02742   -161.22054            0    103.49906    20.234658    20.097227    20.933745            0            0            0    8512.9279    1939.0053   -491.33897   -1137.1691    1486.4754    1430.6905    3589.4927    20.234658    20.097227    20.933745           90           90           90 
   31500    242.57663   -160.87946   -130.43327   -160.87946            0    5197.9215     20.13303     20.10809    20.640638            0            0            0    8356.0892    4057.6369    6232.4218    5303.7059    -355.0614   -751.42418   -722.26138     20.13303     20.10809    20.640638           90           90           90 
   32000    231.22002   -161.00755   -131.98676   -161.00755            0    2982.1388    20.139143      20.2641    20.288079            0            0            0    8279.5974     6878.674     305.1584     1762.584   -140.62491   -2996.9932    1193.5465    20.139143      20.2641    20.288079           90           90           90 
   32500    242.15693   -161.50306   -131.10956   -161.50306            0    1055.7772    20.344879    20.319486    20.293403            0            0            0    8389.2418    1794.3028   -954.75326    2327.7822    -536.7137   -2318.7895    890.11543    20.344879    20.319486    20.293403           90           90           90 
   33000    247.74178   -162.14556   -131.05109   -162.14556            0    912.35469    20.345749    20.171324     20.49754            0            0            0    8412.2043    424.08173    38.421307     2274.561     974.1571   -1935.6342   -3362.3137    20.345749    20.171324     20.49754           90           90           90 
   33500    236.00099   -161.47479   -131.85393   -161.47479            0    2294.0797    20.107066    20.050648    20.675384            0            0            0    8335.4816    4788.1864    467.37311    1626.6797   -745.18927    778.04503    379.89758    20.107066    20.050648    20.675384           90           90           90 
   34000    235.67436   -163.17508   -133.59522   -163.17508            0    3876.3958    20.050142    20.135423    20.783343            0            0            0    8390.6117    6020.3379    3625.1697    1983.6798    294.65218   -54.540452    470.09396    20.050142    20.135423    20.783343           90           90           90 
   34500      230.842   -162.96639   -133.99305   -162.96639            0    2264.7544    20.139639    20.139515    20.573595            0            0            0    8344.7028    6750.4344   -1140.2243    1184.0532    405.56842    145.75085   -2069.0601    20.139639    20.139515    20.573595           90           90           90 
   35000     238.6317   -164.62111   -134.67006   -164.62111            0    1246.9136    20.337541    20.136292    20.367318            0            0            0    8340.8786    565.71714    2948.0124    227.01122   -1298.0779    -3558.443    827.08244    20.337541    20.136292    20.367318           90           90           90 
   35500    224.99589   -161.49575   -133.25616   -161.49575            0    4404.1411    20.392705    20.200157    20.308782            0            0            0    8365.9151    2258.8562     4646.915    6306.6521    1039.8084   -777.62847   -506.36066    20.392705    20.200157    20.308782           90           90           90 
   36000    245.28512   -163.28721   -132.50109   -163.28721            0    5708.7724    20.173083    20.211272    20.470191            0            0            0    8346.1811    4099.3235    6504.5981    6522.3956     671.8408    215.23476   -392.09771    20.173083    20.211272    20.470191           90           90           90 
   36500    252.03347   -163.53665   -131.90353   -163.53665            0    753.10901    19.978482    20.225129    20.769147            0            0            0     8392.135    712.16033    3572.3878   -2025.2211   -535.98664   -1883.8049    548.08916    19.978482    20.225129    20.769147           90           90           90 
   37000    241.56963   -162.30677   -131.98698   -162.30677            0    1383.2176    20.086494    20.101569    20.867808            0            0            0    8425.7958   -1028.9663    5438.2749   -259.65572    167.82491    2021.2335    1721.1116    20.086494    20.101569    20.867808           90           90           90 
   37500    234.74192   -161.83172   -132.36889   -161.83172            0    3670.7799    20.311942    20.067679    20.657082            0            0            0    8420.1064     5925.971    2927.1258    2159.2429    406.93047   -79.766259    339.39768    20.311942    20.067679    20.657082           90           90           90 
   38000     247.3684   -161.54794   -130.50034   -161.54794            0    1143.4125    20.258546    20.177075    20.335343            0            0            0    8312.2381   -1923.2696    6131.9046   -778.39763    2072.5539   -2063.7044    841.64066    20.258546    20.177075    20.335343           90           90           90 
   38500    242.75089   -161.93451   -131.46646   -161.93451            0    7204.6182    20.182519    20.330806    20.309846            0            0            0    8333.6757    4684.3708    8562.5519    8366.9318    1628.7851     487.6695   -1124.9131    20.182519    20.330806    20.309846           90           90           90 
   39000    238.14331   -162.79264   -132.90289   -162.79264            0    1185.4716    20.233926    20.238724    20.566358            0            0            0    8422.1054    3077.0618    631.25651   -151.90358    1663.6548   -1376.1407    878.83771    20.233926    20.238724    20.566358           90           90           90 
   39500    239.23127   -161.38312   -131.35682   -161.38312            0     6058.236    20.149383    20.045906    20.677681            0            0            0    8351.9771    6620.2506    4927.7357    6626.7215   -1190.0678   -911.51659    1405.5728    20.149383    20.045906    20.677681           90           90           90 
   40000    238.44687    -162.0087   -132.08085    -162.0087            0    2764.5526    20.204481    20.141768    20.711167            0            0            0    8428.4915    1748.3106    5299.6233    1245.7241     997.1939   -1712.5126    1242.4828    20.204481    20.141768    20.711167           90           90           90 
   40500     235.7991   -162.24487   -132.64935   -162.24487            0    -35.56091    20.200772    20.265835    20.576132            0            0            0    8423.5701    3272.6473   -3950.1025     570.7724    -1207.617    560.07858    1596.4586    20.200772    20.265835    20.576132           90           90           90 
   41000    233.95873   -161.89568   -132.53114   -161.89568            0    2650.5847    20.222212    20.150388    20.461169            0            0            0    8337.6277    712.70518     2664.183    4574.8661    948.05005     -383.053    1183.5254    20.222212    20.150388    20.461169           90           90           90 
   41500    243.63138   -161.86825   -131.28969   -161.86825            0    1957.4033    20.350916    20.083764     20.52768            0            0            0    8390.1349    2725.5342    1522.7089    1623.9669   -38.146336    3385.7791   -1220.9519    20.350916    20.083764     20.52768           90           90           90 
   42000    234.26244   -160.78631   -131.38365   -160.78631            0     5251.626    20.316338    20.183689    20.521744            0            0            0    8415.1186    5300.6201    6911.4757    3542.7823   -1900.9851    226.93493   -252.45016    20.316338    20.183689    20.521744           90           90           90 
   42500    250.45646   -162.13571   -130.70051   -162.13571            0    2036.4278    20.074884    20.294364    20.600571            0            0            0    8392.8166    1928.7812    896.00053    3284.5018     -138.228   -762.35965    1464.0165    20.074884    20.294364    20.600571           90           90           90 
   43000    244.26701   -161.03054    -130.3722   -161.03054            0      4418.23     20.07556     20.19625    20.624001            0            0            0    8362.0223    5654.7727    3794.9763    3804.9411    720.18292   -1447.7736    1929.9385     20.07556     20.19625    20.624001           90           90           90 
   43500    240.80525   -161.84713   -131.62328   -161.84713            0     3544.568    20.279092    20.052118    20.586369            0            0            0    8371.2155    2240.9132    6849.7797    1543.0112   -440.31529   -594.07766   -2277.4393    20.279092    20.052118    20.586369           90           90           90 
   44000    249.14899   -162.97096   -131.69987   -162.97096            0    2096.4505    20.377008     20.19016    20.538177            0            0            0    8449.7153    2953.1719    1330.2017     2005.978    1093.6174   -2380.9958    183.61324    20.377008     20.19016    20.538177           90           90           90 
   44500     249.5166   -162.98783    -131.6706   -162.98783            0    2285.1658    20.110697    20.267293    20.410103            0            0            0    8318.9412    2310.8111    1773.8743    2770.8122   -1003.6576    518.94182   -1488.4526    20.110697    20.267293    20.410103           90           90           90 
   45000    228.80339   -162.84363   -134.12615   -162.84363            0   -275.35744    20.080732    20.264785    20.537704            0            0            0    8357.4432    1148.2635   -1796.4332   -177.90258   -490.77483    1279.3388   -1031.9952    20.080732    20.264785    20.537704           90           90           90 
   45500    238.11493   -162.80793   -132.92175   -162.80793            0    2115.7013    20.271063    20.200779     20.70017            0            0            0    8476.5391    3566.1054    632.79398    2148.2045   -446.77082    -3735.433    396.72886    20.271063    20.200779     20.70017           90           90           90 
   46000    234.01725   -161.45316   -132.08128   -161.45316            0    3177.9644    20.249278    19.989224    20.538269            0            0            0    8313.2207    2488.0076    4724.3505    2321.5353    63.963227   -2050.0653    1535.7436    20.249278    19.989224    20.538269           90           90           90 
   46500    252.61815   -163.69611    -131.9896   -163.69611            0    1331.7572    20.231733    20.175506    20.536669            0            0            0    8382.7694    3133.1649    899.33812   -37.231518    286.98614   -68.097736   -1632.2779    20.231733    20.175506    20.536669           90           90           90 
   47000     243.4269   -162.20194   -131.64904   -162.20194            0    1984.4553    20.131077    20.267483    20.519079            0            0            0    8371.9127    2440.4615    1043.2445    2469.6599   -1899.8777    1046.3113   -1759.3673    20.131077    20.267483    20.519079           90           90           90 
   47500    244.51218   -160.73291   -130.04379   -160.73291            0   -647.28172    20.234244    20.244944    20.766484            0            0            0    8506.8058   -657.64358   -108.08631   -1176.1153     1390.851    95.012258    8.4533987    20.234244    20.244944    20.766484           90           90           90 
   48000    243.13108   -161.51917    -131.0034   -161.51917            0    3277.1726    20.270653    20.020008    20.715674            0            0            0    8406.8068    944.95857    6902.5383     1984.021   -3109.6807    1775.7821    480.08294    20.270653    20.020008    20.715674           90           90           90 
   48500    239.36368   -161.43444   -131.39152   -161.43444            0   -1751.8782    20.219691    20.120332    20.495859            0            0            0     8338.267    2588.6942   -6542.9613   -1301.3674   -369.01126   -2266.7509   -1911.1566    20.219691    20.120332    20.495859           90           90           90 
   49000    247.10526     -160.817   -129.80242     -160.817            0    783.41869    20.223995     20.33116    20.449863            0            0            0    8408.5189   -1047.4214    1641.6804    1755.9971    284.24217    1262.5825    1636.4306    20.223995     20.33116    20.449863           90           90           90 
   49500    255.82441   -159.43559   -127.32666   -159.43559            0    1905.6662     20.23938    20.263263    20.499619            0            0            0    8407.2192    2957.2563    1167.8546    1591.8877    -656.8158    2615.4666    2397.5607     20.23938    20.263263    20.499619           90           90           90 
   50000    255.79002   -161.77092    -129.6663   -161.77092            0    -1069.215    20.251236     20.09338    20.517974            0            0            0    8349.0876   -545.13851   -2308.5759   -353.93044    727.44442    1231.9667   -1275.8545    20.251236     20.09338    20.517974           90           90           90 
   50500    238.09767   -161.70163   -131.81761   -161.70163            0    3370.2731    20.251812     20.14301    20.537739            0            0            0    8378.0104    5690.2647    2761.1871    1659.3675    635.13695   -849.10836    885.87539    20.251812     20.14301    20.537739           90           90           90 
   51000    239.96378   -160.93106   -130.81282   -160.93106            0    2700.5262    20.171371    20.228481    20.568307            0            0            0    8392.6137    3982.0774    2153.2987    1966.2024   -533.55477   -8.1117305    931.76672    20.171371    20.228481    20.568307           90           90           90 
   51500    242.16791   -162.15724   -131.76236   -162.15724            0    1563.2237    20.138899    20.246446    20.618552            0            0            0    8407.0321   -563.39058    3266.2635    1986.7981    965.76266   -27.754296    1033.6513    20.138899    20.246446    20.618552           90           90           90 
   52000    230.05447   -162.60062   -133.72611   -162.60062            0    2176.5027      20.3099    20.063254    20.544734            0            0            0    8371.6233    2386.1505    2807.6943    1335.6633   -172.68571   -2235.6319    406.96594      20.3099    20.063254    20.544734           90           90           90 
   52500    234.90435   -160.35459   -130.87137   -160.35459            0    -748.3807    20.420691    20.014227     20.49318            0            0            0    8375.6517   -3702.3515    943.98145    513.22798    552.86719   -786.82979    -21.51753    20.420691    20.014227     20.49318           90           90           90 
   53000    242.93928   -162.95407   -132.46237   -162.95407            0   -1106.6617    20.228789    20.234436    20.519891            0            0            0    8399.1634   -1038.0957    367.33253   -2649.2221    183.83758    3446.6841    294.18348    20.228789    20.234436    20.519891           90           90           90 
   53500    241.51497   -162.17276   -131.85983   -162.17276            0    1901.4817    19.870334    20.381891    20.603735            0            0            0    8344.4095    3357.4546    1370.8643    976.12627   -591.51906    810.72129   -1001.3906    19.870334    20.381891    20.603735           90           90           90 
   54000    239.84148   -160.86091   -130.75802   -160.86091            0    2282.8997    20.059071    20.284921    20.712341            0            0            0     8427.783    5314.6095    731.18877    802.90081    624.63227   -765.42652    136.88045    20.059071    20.284921    20.712341           90           90           90 
   54500    231.18013    -162.4749   -133.45911    -162.4749            0   -34.622888    20.315905    20.058793    20.580047            0            0            0    8386.6273    -1181.737   -1615.1438    2693.0122   -9.9816465   -1361.9276    -457.9381    20.315905    20.058793    20.580047           90           90           90 
   55000    238.03146   -161.84512   -131.96941   -161.84512            0     5522.709    20.315649    20.024368    20.471695            0            0            0    8328.0495    3897.5594    5471.3077    7199.2599    145.95425    70.417269   -102.01973    20.315649    20.024368    20.471695           90           90           90 
   55500     223.4121   -161.49262   -133.45181   -161.49262            0   -163.57098    20.202304    20.285184    20.575061            0            0            0    8431.8136     1830.813   -1767.6573   -553.86862   -970.78287    -2024.225    756.40597    20.202304    20.285184    20.575061           90           90           90 
   56000    242.51304   -160.55321   -130.11501   -160.55321            0    2858.4065    20.096073    20.235942     20.49507            0            0            0     8334.586    2477.5904    1756.1357    4341.4933     748.3431     852.3994    1379.4804    20.096073    20.235942     20.49507           90           90           90 
   56500    233.81923    -160.5562   -131.20917    -160.5562            0    3722.7765    20.267014    20.195847    20.531982            0            0            0    8403.9355     5898.258    1922.6487    3347.4228   -1634.2399     -150.129    252.26753    20.267014    20.195847    20.531982           90           90           90 
   57000    240.48403    -161.9239   -131.74036    -161.9239            0    510.61342    20.372813    20.095648     20.48943            0            0            0    8388.4725   -1098.0864    2664.5026    -34.57598   -768.64141   -524.49058    620.11975    20.372813    20.095648     20.48943           90           90           90 
   57500    238.55085   -162.21855   -132.27766   -162.21855            0     1848.361    20.163518    20.149577     20.51716            0            0            0    8335.8421   -740.45896    4554.5356    1731.0064    165.37302   -1190.7924    1296.9419    20.163518    20.149577     20.51716           90           90           90 
   58000    241.48478   -162.39299   -132.08385   -162.39299            0    539.98293     20.07471    20.336201      20.6285            0            0            0    8421.4476    2481.9441    1110.4803   -1972.4756    449.69373    126.89083   -1908.4719     20.07471    20.336201      20.6285           90           90           90 
   58500    237.62623   -161.52847   -131.70362   -161.52847            0   -364.99202    20.169302    20.152704    20.593663            0            0            0    8370.6234   -411.07978    -2299.367    1615.4707    55.299145   -1658.6877   -2925.6574    20.169302    20.152704    20.593663           90           90           90 
   59000    244.05858   -161.11535   -130.48317   -161.11535            0    5081.0028    20.343637    19.892839    20.644809            0            0            0    8354.8035     3913.087    6394.3509    4935.5705    1212.2889    987.32251    360.08573    20.343637    19.892839    20.644809           90           90           90 
   59500    239.09357   -160.82471   -130.81569   -160.82471            0    444.37308    20.338954    20.050676    20.585291            0            0            0    8394.8828   -2858.8037    3001.0808    1190.8421    2889.0478    1917.4058   -1503.2888    20.338954    20.050676    20.585291           90           90           90 
   60000    227.36076   -161.02951    -132.4931   -161.02951            0    1057.4304    20.071732    20.438413    20.385981            0            0            0    8363.0301    4860.0366   -809.78785   -877.95773    282.73008    1203.8245   -1704.3339    20.071732    20.438413    20.385981           90           90           90 
   60500    238.10094   -162.53463    -132.6502   -162.53463            0   -182.77696     20.03695    20.460587    20.424857            0            0            0    8373.5328   -1825.4743    1770.0795   -492.93608   -659.02648    2780.8899    1256.5075     20.03695    20.460587    20.424857           90           90           90 
   61000     240.5765   -161.81134    -131.6162   -161.81134            0    1642.2451    20.234893    20.180087    20.500859            0            0            0    8371.3601    1631.9707     3222.663    72.101591    1410.3405    728.84677    105.65648    20.234893    20.180087    20.500859           90           90           90 
   61500    248.71083   -162.49831   -131.28221   -162.49831            0   -331.86514    20.304173    20.050435    20.560027            0            0            0    8370.1414   -2720.3954    1521.7289    203.07107     864.0481    4295.1276   -1849.2054    20.304173    20.050435    20.560027           90           90           90 
   62000    242.34617   -160.93068   -130.51342   -160.93068            0    1406.6452    20.231673    20.094848    20.537323            0            0            0    8349.4979    -384.0771    4446.2644    157.74845    1048.8312   -332.13705   -2869.4439    20.231673    20.094848    20.537323           90           90           90 
   62500    241.63877    -161.8878   -131.55933    -161.8878            0   -1058.8788    20.260367    20.234821    20.623365            0            0            0     8454.856   -2550.0774   -214.04083   -412.51807   -1233.6546   -346.76398    500.84108    20.260367    20.234821    20.623365           90           90           90 
   63000    252.99396   -161.02162   -129.26794   -161.02162            0    2302.1567    20.254827    20.206247    20.616883            0            0            0    8437.9548    1683.4665    2670.5283    2552.4753    1307.4889    26.121313    901.74151    20.254827    20.206247    20.616883           90           90           90 
   63500    241.24648   -162.47789   -132.19866   -162.47789            0    5746.1808     20.20633    20.116515    20.462351            0            0            0    8317.5558    6804.0699    5874.3057    4560.1668   -702.21531   -800.89394   -1067.1647     20.20633    20.116515    20.462351           90           90           90 
   64000    243.49567   -161.27572   -130.71419   -161.27572            0    4926.9383    20.243089     20.22951    20.548545            0            0            0    8414.7887    4146.5738    5720.9478    4913.2932    1897.0117     690.5522    682.40462    20.243089     20.22951    20.548545           90           90           90 
   64500    232.91362   -161.00762   -131.77426   -161.00762            0    4552.9835    20.206561    20.237857    20.573017            0            0            0    8413.0781    9971.6954   -393.63536    4080.8904   -1038.7749   -630.60864    820.66983    20.206561    20.237857    20.573017           90           90           90 
   65000    232.59405   -162.85782   -133.66457   -162.85782            0    282.95178    20.231582     20.10137    20.636238            0            0            0    8392.3973    1604.5977   -2769.9127    2014.1704   -90.805191   -1376.1192    1417.5079    20.231582     20.10137    20.636238           90           90           90 
   65500    233.57094   -161.85313   -132.53727   -161.85313            0    3207.0668    20.218651    19.967061    20.548163            0            0            0    8295.4379    4874.8655    2667.1448    2079.1902   -619.18103    2409.2409    2973.3006    20.218651    19.967061    20.548163           90           90           90 
   66000    240.12504   -160.39912   -130.26064   -160.39912            0   -3.0423393    20.252663    20.352569    20.561855            0            0            0    8475.4675    2619.4309   -3342.4469    713.88901   -950.74462   -4009.8872    576.18557    20.252663    20.352569    20.561855           90           90           90 
   66500    238.19534   -160.22744   -130.33117   -160.22744            0    4698.0562    20.031263    20.428709    20.532384            0            0            0    8402.1152    6208.5866    3099.1029     4786.479   -285.96738   -2107.6955   -493.88897    20.031263    20.428709    20.532384           90           90           90 
   67000    236.99693   -162.28576   -132.53989   -162.28576            0     3058.797    20.044512    20.103817    20.528013            0            0            0    8272.1985    2649.7611    4088.2631    2438.3669   -869.58454    317.01501    2369.9224    20.044512    20.103817    20.528013           90           90           90 
   67500     235.2928   -161.71804   -132.18606   -161.71804            0     2745.058    20.343244     20.07109    20.629975            0            0            0    8423.4474    1508.4216    6291.4334      435.319    -628.5781    1782.4389   -1317.5235    20.343244     20.07109    20.629975           90           90           90 
   68000    236.24022    -161.9775   -132.32661    -161.9775            0    4713.9845    20.249744    20.165074    20.552834            0            0            0    8392.4943    3341.8155    3557.6221    7242.5158   -1182.2701    1500.5407   -2713.7129    20.249744    20.165074    20.552834           90           90           90 
   68500     248.7505   -162.10443   -130.88336   -162.10443            0    751.97865    20.109796    20.284296    20.485912            0            0            0    8356.4707    1305.8044    988.10209   -37.970525    842.57165    2201.0279    1557.1044    20.109796    20.284296    20.485912           90           90           90 
   69000     241.8109   -163.46994   -133.11987   -163.46994            0    3173.4151    20.201328    20.198746    20.528385            0            0            0    8376.4329    2171.5453    2291.4207    5057.2793   -329.16864   -1577.5206   -503.84675    20.201328    20.198746    20.528385           90           90           90 
   69500    244.80115   -163.88622   -133.16084   -163.88622            0   -524.77124     20.29641    20.089399    20.645511            0            0            0    8418.0563    1060.7368    274.18077   -2909.2313    369.80022   -1138.5026    1208.8567     20.29641    20.089399    20.645511           90           90           90 
   70000    240.45094   -162.40362   -132.22424   -162.40362            0    -1518.356    20.135184    20.066169    20.633304            0            0            0    8336.5981    -3358.982   -454.86898   -741.21696   -530.66309     1039.471     -1373.36    20.135184    20.066169    20.633304           90           90           90 
   70500    236.67487   -162.33946   -132.63402   -162.33946            0    1208.3642    20.042733    20.227289    20.568009            0            0            0    8338.4793      698.772    1842.6935     1083.627   -630.13712    879.48156    -40.96777    20.042733    20.227289    20.568009           90           90           90 
   71000    232.45509   -161.72738   -132.55157   -161.72738            0     1764.833    20.206418    20.315866    20.439717            0            0            0    8390.7261    3745.5049     511.1418    1037.8522    1403.9893   -1755.2437     3226.286    20.206418    20.315866    20.439717           90           90           90 
   71500    228.90471   -160.78568   -132.05549   -160.78568            0    1405.6236    20.394788    20.195441    20.343757            0            0            0    8379.2222    874.75924   -747.52042    4089.6319   -1072.3433    2014.4302   -1546.6649    20.394788    20.195441    20.343757           90           90           90 
   72000    246.77498   -160.23133    -129.2582   -160.23133            0    4861.2944    20.239294    20.022955    20.483875            0            0            0    8301.0998    5128.4618    5418.2082    4037.2133    823.01742   -220.70878   -465.81772    20.239294    20.022955    20.483875           90           90           90 
   72500    232.95268   -160.82603   -131.58776   -160.82603            0   -821.51882    20.114503    20.216304    20.790172            0            0            0    8454.1342   -1203.3455   -2818.0302    1556.8193   -678.57662   -43.437924    657.39883    20.114503    20.216304    20.790172           90           90           90 
   73000    233.92237   -161.94963   -132.58966   -161.94963            0    390.66204    20.101851    20.264759    20.853146            0            0            0    8494.7204     467.1261    1908.5117   -1203.6517    729.65806    23.872177   -830.69238    20.101851    20.264759    20.853146           90           90           90 
   73500    252.05209   -163.14252   -131.50706   -163.14252            0    2580.6755    20.116232    20.077547    20.623869            0            0            0    8329.6626    3100.5665    3430.6479     1210.812    1477.1444   -360.62907    624.02982    20.116232    20.077547    20.623869           90           90           90 
   74000    243.30838   -163.26591   -132.72788   -163.26591            0    3269.0466    20.267537    20.112046    20.382399            0            0            0    8308.3071   -1118.0938    5533.3235    5391.9101   -1016.7844    835.26951   -393.45362    20.267537    20.112046    20.382399           90           90           90 
   74500    242.23985   -162.98553   -132.58162   -162.98553            0    1225.5485    20.395675    20.368124    20.433009            0            0            0    8488.3142    2638.5267    163.24324    874.87565   -40.156367    440.44785    195.81216    20.395675    20.368124    20.433009           90           90           90 
   75000    257.34444   -162.78889   -130.48918   -162.78889            0    5196.2841    20.135306    20.134538    20.521078            0            0            0    8319.5547    8852.2595    3589.0551    3147.5378    1144.1191   -129.42987   -931.04055    20.135306    20.134538    20.521078           90           90           90 
   75500    233.10326    -161.9679   -132.71073    -161.9679            0   -1329.8837    20.120418    20.029211    20.651343            0            0            0    8322.4106   -3707.4008    2277.5095   -2559.7597    784.74964   -859.24834   -2495.1002    20.120418    20.029211    20.651343           90           90           90 
   76000    240.27971   -161.82997   -131.67208   -161.82997            0   -1817.4666    20.265782    20.224123    20.641628            0            0            0    8460.1297   -5124.0041   -489.21208    160.81646   -625.01144   -2130.2463    39.075765    20.265782    20.224123    20.641628           90           90           90 
   76500    235.24715   -164.80822   -135.28198   -164.80822            0    -715.3361    20.182483    20.206052    20.512622            0            0            0    8365.2179   -272.72323   -1529.1949    -344.0902    2464.1423    1602.5343    793.32057    20.182483    20.206052    20.512622           90           90           90 
   77000    222.53651   -162.62521    -134.6943   -162.62521            0    866.80763    20.132391    20.142208    20.617389            0            0            0    8360.5739   -409.09052    2547.2512    462.26225   -869.81389   -3449.8037   -199.22669    20.132391    20.142208    20.617389           90           90           90 
   77500    244.06636   -162.71493   -132.08177   -162.71493            0    789.28993    20.172598    20.102898    20.682463            0            0            0    8387.3112    2786.5118    830.41582   -1249.0579    1242.9378   -381.53111    657.53984    20.172598    20.102898    20.682463           90           90           90 
   78000    249.38724   -160.47695   -129.17596   -160.47695            0    -1871.305    20.291698    20.139364    20.614764            0            0            0    8424.4687   -3096.1896   -515.95776   -2001.7677   -262.88363    2430.2669    2036.8468    20.291698    20.139364    20.614764           90           90           90 
   78500    231.88003   -162.29679   -133.19316   -162.29679            0     1255.713    20.266555    20.125763    20.445314            0            0            0     8339.232    2798.0284    1898.8929   -929.78243    3445.4978    1562.3897    132.25857    20.266555    20.125763    20.445314           90           90           90 
   79000    233.87824   -162.66555   -133.31112   -162.66555            0    2004.4912    20.175608    20.250487    20.442936            0            0            0    8352.2859    2244.9908   -351.96744    4120.4501     1446.425    769.95988     119.9877    20.175608    20.250487    20.442936           90           90           90 
   79500    240.66985    -161.3954   -131.18854    -161.3954            0    2530.3706    20.099198     20.27049    20.485072            0            0            0      8346.04    2340.0281    1968.9981    3282.0856   -671.79908    2245.9849   -235.68534    20.099198     20.27049    20.485072           90           90           90 
   80000    238.04668   -160.67478   -130.79716   -160.67478            0    160.26003    20.226101    20.178732    20.613381            0            0            0     8413.085    118.45574    1139.8738   -777.54945    835.82237    3027.7809   -2009.5215    20.226101    20.178732    20.613381           90           90           90 
   80500    242.26331   -162.19312   -131.78627   -162.19312            0    3237.2273    20.274774    20.058147    20.679773            0            0            0    8409.9341    3872.9918    2204.3591     3634.331    929.31719    1724.7137   -732.59896    20.274774    20.058147    20.679773           90           90           90 
   81000    243.65257    -162.4722   -131.89097    -162.4722            0    2472.4363    20.215747    20.080831     20.68526            0            0            0    8397.1608    696.92525    5476.3346    1244.0491   -114.41753     211.1847    322.57877    20.215747    20.080831     20.68526           90           90           90 
   81500    233.44152   -161.83085   -132.53123   -161.83085            0    5678.6348    20.139024    20.257563    20.636312            0            0            0    8418.9453    3533.3017    6523.0206     6979.582   -880.14876    1311.7907    686.14099    20.139024    20.257563    20.636312           90           90           90 
   82000     233.4322   -162.37164   -133.07319   -162.37164            0     365.6537    20.197525     20.29577    20.604078            0            0            0    8446.1127   -140.36907    999.18196    238.14822    1714.2279     850.9751    28.181892    20.197525     20.29577    20.604078           90           90           90 
   82500    253.03441   -161.58282   -129.82407   -161.58282            0    3949.1661    20.244253    20.131176    20.588445            0            0            0    8390.6276     4605.718     4426.943    2814.8373   -604.39141     1100.005    605.46554    20.244253    20.131176    20.588445           90           90           90 
   83000    243.70033   -161.72497   -131.13775   -161.72497            0    2477.1444    20.256986    20.079523    20.651397            0            0            0    8399.9681    2868.0713    3665.9969    897.36499   -1197.1511    2116.5107   -2134.7391    20.256986    20.079523    20.651397           90           90           90 
   83500    244.23343   -161.85028   -131.19615   -161.85028            0    2319.9805    20.204651    20.162732    20.579094            0            0            0    8383.5314    4274.0085    466.72066    2219.2123     -974.987    954.58952   -230.19709    20.204651    20.162732    20.579094           90           90           90 
   84000    248.68347    -161.0121   -129.79944    -161.0121            0    3637.1644    20.261932    20.223901    20.521274            0            0            0    8409.1114    1890.5237    5657.0455    3363.9242    301.83259    151.38339   -184.34593    20.261932    20.223901    20.521274           90           90           90 
   84500     241.2835   -161.52645   -131.24257   -161.52645            0    6476.1019    20.185866    20.187663    20.477032            0            0            0    8344.5025    7530.4407    3991.3576    7906.5075    283.12188    817.43785    744.28451    20.185866    20.187663    20.477032           90           90           90 
   85000    236.21981   -161.83323    -132.1849   -161.83323            0    1140.6412    20.198799    20.297595    20.741925            0            0            0    8503.9204    1973.8258    1566.8396    -118.7418    453.70791   -1114.5725   -837.02647    20.198799    20.297595    20.741925           90           90           90 
   85500    245.25859   -160.95198   -130.16919   -160.95198            0    4866.3137    20.023657    20.128127    20.735317            0            0            0    8357.1355    6591.8355    5067.3084    2939.7971   -43.265051   -558.32313   -2538.5843    20.023657    20.128127    20.735317           90           90           90 
   86000    241.54899   -161.55275   -131.23555   -161.55275            0    4592.7989    20.145875    20.160263    20.653244            0            0            0    8388.2356    3169.1166    5761.2757    4848.0043   -28.836489    1193.3856    871.32129    20.145875    20.160263    20.653244           90           90           90 
   86500     228.4244   -161.47617   -132.80625   -161.47617            0   -2656.2464    20.347866    20.226866    20.544362            0            0            0     8455.516   -6961.2075   -2223.6127    1216.0811    308.76789    -1395.758    568.40777    20.347866    20.226866    20.544362           90           90           90 
   87000    232.66939   -162.22298   -133.02027   -162.22298            0    3393.4816     20.21703    20.161889    20.347398            0            0            0    8293.8746     4671.218    1526.2757    3982.9509    750.51612     753.1696   -791.47716     20.21703    20.161889    20.347398           90           90           90 
   87500    237.77506    -162.4998   -132.65627    -162.4998            0    326.46409    20.277723    20.262747    20.495564            0            0            0    8421.2657   -1501.9063    1267.4544    1213.8442   -961.41272    52.136716    76.739239    20.277723    20.262747    20.495564           90           90           90 
   88000    240.56879   -161.66563   -131.47146   -161.66563            0   -3197.5134    20.240749    20.151244    20.698879            0            0            0    8442.5818   -3748.5671   -1012.5985   -4831.3747     209.9494   -798.89127   -435.68035    20.240749    20.151244    20.698879           90           90           90 
   88500    239.81783   -162.48275   -132.38283   -162.48275            0   -261.15577     20.04934    20.065134    20.833595            0            0            0     8381.203    1995.7551   -3002.0138    222.79139   -577.67761    2539.9169    2806.8209     20.04934    20.065134    20.833595           90           90           90 
   89000    229.87662   -162.76334   -133.91116   -162.76334            0    2168.1344    19.970215    20.283431    20.729367            0            0            0    8396.7305    4065.1345    1538.3807     900.8881   -283.56559    2712.3035    1216.9651    19.970215    20.283431    20.729367           90           90           90 
   89500    236.01756   -163.65332   -134.03038   -163.65332            0    1584.6804     20.12663    20.359225    20.380667            0            0            0    8351.2346    440.68581    1792.3536    2521.0017   -644.54952   -632.65571    80.964739     20.12663    20.359225    20.380667           90           90           90 
   90000    225.14157    -161.9917   -133.73382    -161.9917            0    2282.0186    20.360459    20.257618    20.226503            0            0            0      8342.51     2288.583    2383.5038     2173.969   -44.755479    2038.5403    462.13814    20.360459    20.257618    20.226503           90           90           90 
   90500    240.33141    -161.6654   -131.50102    -161.6654            0    244.03263    20.346639    20.095156    20.384701            0            0            0    8334.6697   -1151.9773    516.70381    1367.3714    766.89556    1845.4289    1636.5524    20.346639    20.095156    20.384701           90           90           90 
   91000    235.06426   -161.80967   -132.30638   -161.80967            0    454.99757     20.15493    20.012126    20.700145            0            0            0    8349.2588   -1084.1383    1158.7972    1290.3338    957.92661   -289.33192   -2383.3596     20.15493    20.012126    20.700145           90           90           90 
   91500    229.88519   -163.89272   -135.03947   -163.89272            0    856.87336    20.130719    20.109396    20.870313            0            0            0     8448.649    2896.1273    761.85516   -1087.3624    810.61556    946.28608   -1463.9975    20.130719    20.109396    20.870313           90           90           90 
   92000    231.98416   -162.14231   -133.02561   -162.14231            0    558.15708    20.078186    20.183296    20.639759            0            0            0     8364.138   -1671.4481    2373.1004    972.81892    1887.0878   -849.19637   -2565.2517    20.078186    20.183296    20.639759           90           90           90 
   92500    233.72204   -162.14332   -132.80849   -162.14332            0    500.67149    20.226391    20.291291    20.467677            0            0            0    8400.3355    183.77965    967.96406    350.27074   -1356.1516   -83.947164   -1259.5208    20.226391    20.291291    20.467677           90           90           90 
   93000    242.08766   -162.26904   -131.88423   -162.26904            0    3718.7181    20.251928    20.212461    20.382801            0            0            0    8343.5223    619.54246    3623.8515    6912.7603   -504.96906    885.84375    3257.6958    20.251928    20.212461    20.382801           90           90           90 
   93500    232.69605   -161.88559   -132.67954   -161.88559            0    803.30803    20.202167    20.158317    20.545434            0            0            0    8366.9572    225.98197     996.8226    1187.1195    1413.3266    87.925441    86.234639    20.202167    20.158317    20.545434           90           90           90 
   94000    230.83195   -162.50678   -133.53469   -162.50678            0    2638.9805     20.15531    20.139814    20.651302            0            0            0    8382.8634    2288.2426    2802.4736    2826.2254   -1525.6831   -419.40717    946.08079     20.15531    20.139814    20.651302           90           90           90 
   94500    240.13475   -162.68487   -132.54517   -162.68487            0    2644.3667    20.222796    20.122324    20.676341            0            0            0    8413.8164    2492.0781    2279.0072    3162.0149    1008.8109    2132.3046    51.292166    20.222796    20.122324    20.676341           90           90           90 
   95000    225.61392   -162.95309   -134.63593   -162.95309            0    2785.4964    20.204177    20.151695    20.578999            0            0            0    8378.7065    2681.0716    2779.3076      2896.11    533.76603   -1350.2405    279.20264    20.204177    20.151695    20.578999           90           90           90 
   95500    243.71554   -162.57534   -131.98622   -162.57534            0    1788.6957    20.123927    20.339644    20.525521            0            0            0    8401.3728    3274.5701    581.14547    1510.3716   -20.738377   -803.84523   -644.25295    20.123927    20.339644    20.525521           90           90           90 
   96000     247.6557   -162.17393   -131.09027   -162.17393            0    813.95156     20.12334    20.356846    20.448744            0            0            0    8376.7816    1131.4226   -133.45324    1443.8853    187.18625   -1454.0263    978.82216     20.12334    20.356846    20.448744           90           90           90 
   96500    234.04086   -160.58177   -131.20692   -160.58177            0    1078.3134    20.320127    20.103591    20.564582            0            0            0    8400.7863    125.13464   -350.14176    3459.9473    624.95275   -783.17725    419.18687    20.320127    20.103591    20.564582           90           90           90 
   97000    235.19122   -161.84624   -132.32701   -161.84624            0    1455.7504    20.338052    19.925059    20.717522            0            0            0    8395.5039    2866.3942     1515.328   -14.470929   -299.19235   -1211.1951   -557.54027    20.338052    19.925059    20.717522           90           90           90 
   97500    240.26377   -161.89737   -131.74148   -161.89737            0    1391.6542    20.177274    20.019828    20.706657            0            0            0    8364.3621   -2122.8888    4014.5058    2283.3457    1604.1687   -1289.3775    2627.0798    20.177274    20.019828    20.706657           90           90           90 
   98000    233.62432   -162.36232   -133.03976   -162.36232            0    2788.3094    20.090897    20.323892    20.570226            0            0            0    8399.3418    88.400367    4919.0815    3357.4462   -1727.6869   -222.78801    2497.7231    20.090897    20.323892    20.570226           90           90           90 
   98500    238.61714   -162.60868   -132.65946   -162.60868            0    1846.1676    20.182542    20.357496    20.473677            0            0            0    8411.9385    1561.6215     1697.001    2279.8802   -345.79648   -59.032411   -168.76832    20.182542    20.357496    20.473677           90           90           90 
   99000    233.05421   -161.67782   -132.42682   -161.67782            0    1987.1206    20.228388    20.063818    20.459032            0            0            0    8303.4759    731.43158    1839.4804    3390.4498     -1142.63   -1960.4644   -462.21166    20.228388    20.063818    20.459032           90           90           90 
   99500    243.03572   -160.78647   -130.28267   -160.78647            0    402.32152    20.275477    20.056871    20.651961            0            0            0    8398.3805   -2258.5817    1308.9199    2156.6263    1161.0163   -845.27958   -46.500528    20.275477    20.056871    20.651961           90           90           90 
  100000    238.32429    -161.4069   -131.49444    -161.4069            0    1226.9166    20.130247    20.216355    20.687496            0            0            0    8418.9881    3293.2574   -2.4141899    389.90652   -230.40879   -4487.6768   -136.23535    20.130247    20.216355    20.687496           90           90           90 
  100500    246.97509    -162.2829   -131.28466    -162.2829            0   -2387.9395    20.168186    20.233494    20.550253            0            0            0    8386.0007   -613.68611   -2488.4291   -4061.7033    2081.1133   -1801.8578    162.23035    20.168186    20.233494    20.550253           90           90           90 
  101000    237.18257   -162.79424   -133.02508   -162.79424            0    1593.6556    20.400332    20.082396    20.444412            0            0            0    8375.8211   -594.65815    3653.5479    1722.0771    602.59125    1677.3164    1531.9605    20.400332    20.082396    20.444412           90           90           90 
  101500    233.92634   -161.48083   -132.12036   -161.48083            0    3669.5426    20.389902    20.118552    20.448453            0            0            0    8388.2684    1323.1724     3258.007    6427.4485    1706.6101      1310.52     1936.131    20.389902    20.118552    20.448453           90           90           90 
  102000    234.47846    -161.5667   -132.13693    -161.5667            0    2742.4067    19.959465    20.292544    20.628398            0            0            0    8355.0853     2218.752     4886.744    1121.7241    1286.1612   -953.33624    1087.3648    19.959465    20.292544    20.628398           90           90           90 
  102500    231.79934   -161.74961    -132.6561   -161.74961            0     2437.828    19.829449    20.283794    20.722795            0            0            0    8335.0489    796.00587    3948.4161    2569.0622     743.5421    1038.1985   -682.13462    19.829449    20.283794    20.722795           90           90           90 
  103000    240.24372   -161.87123   -131.71786   -161.87123            0    1213.7047    20.343358    20.132921    20.725718            0            0            0    8488.6576   -1675.3965     4527.569    788.94176    173.26129    1078.6541   -3803.3377    20.343358    20.132921    20.725718           90           90           90 
  103500    235.85957   -162.36165   -132.75854   -162.36165            0    2652.2981    20.388812    19.959246    20.511767            0            0            0     8347.167     1723.015    1845.3572     4388.522   -1761.9311   -1068.7261   -1086.4919    20.388812    19.959246    20.511767           90           90           90 
  104000    244.59339   -162.16875   -131.46944   -162.16875            0    5017.4842    20.233458    20.092415    20.442826            0            0            0    8310.8068    3583.5475    2801.4326    8667.4726    770.98814   -2286.9736   -1062.8961    20.233458    20.092415    20.442826           90           90           90 
  104500     233.4614   -162.48444   -133.18233   -162.48444            0    3367.1681    20.235813    20.349751    20.546432            0            0            0    8460.8924    4140.6361    4574.9207    1385.9475   -104.40575    670.93003   -96.663527    20.235813    20.349751    20.546432           90           90           90 
  105000    238.90623   -160.57268   -130.58718   -160.57268            0    4580.7597     20.10675    20.194082     20.50023            0            0            0    8323.8592    6199.9839    1465.8892    6076.4059     583.5818    663.61874    1662.0931     20.10675    20.194082     20.50023           90           90           90 
  105500    245.69796   -161.72134    -130.8834   -161.72134            0    1977.9046    20.234822    20.082232    20.621023            0            0            0    8379.5669     3893.162   -2903.9327    4944.4844    281.06727   -956.98946   -490.22898    20.234822    20.082232    20.621023           90           90           90 
  106000    237.73905   -161.60819   -131.76918   -161.60819            0     1162.157    20.362842     20.15392    20.626366            0            0            0     8464.877   -787.98655    1169.4381    3105.0195    259.84243    2097.4795   -523.97208    20.362842     20.15392    20.626366           90           90           90 
  106500    231.49978   -161.00533   -131.94942   -161.00533            0    985.25227     20.14914    20.185755    20.476387            0            0            0    8328.2704    2745.6859   -836.14543    1046.2164    533.82421    853.12533   -628.62787     20.14914    20.185755    20.476387           90           90           90 
  107000    237.54318   -162.17994   -132.36552   -162.17994            0    537.44105    20.037214    20.235218    20.513147            0            0            0    8317.2071     2476.102   -1583.0045    719.22568     159.2504    1528.8621     1490.973    20.037214    20.235218    20.513147           90           90           90 
  107500    233.61155   -161.12145   -131.80049   -161.12145            0    2119.3957     20.23572    20.144311    20.578481            0            0            0    8388.5016    2569.1073    2675.3875    1113.6924   -1514.9774    2413.5643    -1444.747     20.23572    20.144311    20.578481           90           90           90 
  108000    243.39384   -161.31505    -130.7663   -161.31505            0     2298.339    20.489791    20.075444    20.668213            0            0            0    8501.6971   -208.81547    5074.0963    2029.7363    2086.2049   -794.55911   -519.02571    20.489791    20.075444    20.668213           90           90           90 
  108500    245.77061   -161.05052   -130.20345   -161.05052            0    4852.2996    20.188522    20.052413    20.499264            0            0            0    8298.6878    3317.6236    7030.8256    4208.4498    1612.8739   -478.23712   -1629.4436    20.188522    20.052413    20.499264           90           90           90 
  109000    234.62659   -161.46167   -132.01331   -161.46167            0     5805.135    20.154643    20.378956    20.560319            0            0            0    8444.7517     4736.934    7997.8874    4680.5836   -9.4124164    414.13458    570.92825    20.154643    20.378956    20.560319           90           90           90 
  109500    237.24448   -161.34748   -131.57055   -161.34748            0    2317.3232    20.239726    20.211494    20.552507            0            0            0    8407.5188    2978.1149    1740.0768    2233.7781    179.87332   -358.33487     2301.639    20.239726    20.211494    20.552507           90           90           90 
  110000    240.20243   -161.98954   -131.84135   -161.98954            0    3782.9359     20.33293    19.960368    20.597557            0            0            0    8359.5754    2007.9972    4592.6691    4748.1413    750.92839   -1605.4711   -1273.1329     20.33293    19.960368    20.597557           90           90           90 
  110500    240.22088   -163.63095   -133.48044   -163.63095            0    3521.8862     20.24275    20.074862     20.57917            0            0            0    8362.7653    2974.2878    4939.8687     2651.502    1007.8089    1117.6669   -62.543917     20.24275    20.074862     20.57917           90           90           90 
  111000    250.38037   -163.16162   -131.73598   -163.16162            0    2224.1804    20.131292    20.251808    20.468461            0            0            0    8344.8906    793.76223    2350.5092    3528.2697     1864.458    853.04715    3865.0687    20.131292    20.251808    20.468461           90           90           90 
  111500    225.31488   -160.45699   -132.17735   -160.45699            0   -1059.4115    20.204625    20.298203    20.507547            0            0            0    8410.5055   -2551.5866    127.07794   -753.72595    -611.3454    1933.4436    -4966.014    20.204625    20.298203    20.507547           90           90           90 
  112000    236.35566   -161.67831   -132.01293   -161.67831            0    2552.4452    20.206496    20.156262    20.525127            0            0            0    8359.6265    1778.6745    3880.9329    1997.7281    822.72187   -447.32085    1535.9258    20.206496    20.156262    20.525127           90           90           90 
[...]
  373000    225.76337   -163.81248   -135.47656   -163.81248            0    3676.4517    20.036351    20.203331    20.610444            0            0            0    8343.1291    7353.9555    15.817412    3659.5821    1986.1613   -2558.3577   -316.90559    20.036351    20.203331    20.610444           90           90           90 
  373500    229.89341    -162.0231   -133.16881    -162.0231            0    616.85245    20.219018    20.222892    20.644647            0            0            0    8441.3279     647.3501    1213.9703   -10.763069    -824.5396   -758.20186    -897.2418    20.219018    20.222892    20.644647           90           90           90 
  374000    246.17258   -161.84209   -130.94458   -161.84209            0   -677.38816    20.328976    20.133108     20.51798            0            0            0    8397.7109   -1667.7206   -398.20155    33.757637    722.83791   -2549.0018   -2016.6808    20.328976    20.133108     20.51798           90           90           90 
  374500    253.65401    -161.2776   -129.44108    -161.2776            0    1886.2171    20.156654    20.112555    20.441966            0            0            0    8287.2098    3523.2701    681.24797    1454.1331   -1196.9159   -1063.3533   -2346.3346    20.156654    20.112555    20.441966           90           90           90 
  375000    249.22941   -160.85667   -129.57548   -160.85667            0    1316.6696    20.127254    20.277973    20.597609            0            0            0    8406.7065    1114.2776    3072.0203   -236.28907    1150.7226    1130.9226    3015.3927    20.127254    20.277973    20.597609           90           90           90 
  375500    241.62684   -162.13794   -131.81097   -162.13794            0   -454.68223     20.23458    20.229553    20.629885            0            0            0    8444.5648   -659.92174   -431.70881   -272.41614    -722.2033    182.67414    374.98203     20.23458    20.229553    20.629885           90           90           90 
  376000    237.78254   -160.60095   -130.75648   -160.60095            0    1992.8571    20.305946     19.98463    20.625424            0            0            0    8369.9379    235.91672    3425.9408    2316.7137    -324.0462    748.48273   -1725.0545    20.305946     19.98463    20.625424           90           90           90 
  376500     248.7778   -161.37136   -130.14686   -161.37136            0    2808.5813    20.210169     20.08277    20.445823            0            0            0    8298.4724    2125.1921    2474.9165    3825.6352   -1562.1192    301.75299    1847.4423    20.210169     20.08277    20.445823           90           90           90 
  377000    226.09364   -161.52807   -133.15069   -161.52807            0    1128.0856    20.184293    20.675757    20.418661            0            0            0    8521.2286    2094.7966   -452.19667    1741.6567    283.79466    562.34833   -1974.7117    20.184293    20.675757    20.418661           90           90           90 
  377500     236.3432   -162.47431   -132.81049   -162.47431            0    3540.9575    20.076668    20.401769    20.354458            0            0            0    8337.1764    3569.6093     3390.861    3662.4023    1128.4032   -1378.9592    37.872179    20.076668    20.401769    20.354458           90           90           90 
  378000    242.20179   -161.94492   -131.54579   -161.94492            0    3237.2366    20.234838    19.983691    20.609334            0            0            0    8333.7294    4342.5979     2626.166    2742.9461    138.95714    1321.1683   -1502.4998    20.234838    19.983691    20.609334           90           90           90 
  378500    232.08255   -162.47951   -133.35046   -162.47951            0    1540.8433    20.284317    20.001617    20.677289            0            0            0    8389.1718    2691.6284    1929.4628    1.4387168   -608.19481    602.38269    1270.8386    20.284317    20.001617    20.677289           90           90           90 
  379000    231.33056   -160.89028   -131.85561   -160.89028            0    1679.7173    20.141772    20.270897    20.591436            0            0            0    8407.3141    813.46424    3068.7777      1156.91    1482.6509    1620.8558    1812.6452    20.141772    20.270897    20.591436           90           90           90 
  379500    233.91473   -161.88841    -132.5294   -161.88841            0    2141.8909    20.020108    20.282234    20.447583            0            0            0    8302.7921    4168.1708    1103.9024    1153.5995    1047.5936   -2201.1034    -1169.034    20.020108    20.282234    20.447583           90           90           90 
  380000     237.1298   -162.56666   -132.80411   -162.56666            0    1918.7334    20.263586     20.15076    20.543361            0            0            0    8388.4021    3831.1909    455.32127    1469.6881    170.46677   -2677.4646    314.45288    20.263586     20.15076    20.543361           90           90           90 
  380500     241.2507   -163.85299   -133.57323   -163.85299            0   -357.79515    20.327115    20.056934    20.539949            0            0            0    8374.1287   -5060.2846    667.54645    3319.3527   -235.36066   -2565.6782    611.03817    20.327115    20.056934    20.539949           90           90           90 
  381000    237.64823   -162.41265   -132.58504   -162.41265            0    6072.7157    20.146246    20.239186    20.543814            0            0            0     8376.609    9326.2215    3435.7202    5456.2054    -2058.531    50.207107    1100.1198    20.146246    20.239186    20.543814           90           90           90 
  381500    243.05147   -159.70301   -129.19723   -159.70301            0    3920.6048    20.041222    20.276053     20.51637            0            0            0    8336.9681    5931.3552    1613.6929    4216.7663   -851.56144   -2507.8795    3183.7841    20.041222    20.276053     20.51637           90           90           90 
  382000    242.76345   -162.18199   -131.71236   -162.18199            0    1637.9004    20.289925    20.112887    20.672019            0            0            0    8436.0228    1539.8762   -82.444942    3456.2698    901.81056   -2328.5529   -1137.9048    20.289925    20.112887    20.672019           90           90           90 
  382500    245.62376   -160.63018   -129.80155   -160.63018            0      1863.66    20.409527     19.88591    20.728947            0            0            0     8413.092    1068.7778    4319.9613    202.24076   -348.58337   -1578.4959    569.80583    20.409527     19.88591    20.728947           90           90           90 
  383000    240.66363   -160.75414   -130.54807   -160.75414            0    1818.2356    20.158433     20.07961     20.55425            0            0            0    8319.8151    2160.6622    2866.5923    427.45226   -828.89533   -124.78562   -655.10004    20.158433     20.07961     20.55425           90           90           90 
  383500    257.32051    -161.2746   -128.97789    -161.2746            0    1841.1433    20.047202    20.439512     20.54509            0            0            0    8418.4543    4612.6374   -2392.2979    3303.0904    -29.92175   -58.163493    -1242.378    20.047202    20.439512     20.54509           90           90           90 
  384000    241.94082   -162.62619   -132.25981   -162.62619            0   -850.44229    20.130683    20.281367    20.534486            0            0            0    8383.7742   -1421.2386   -899.73741   -230.35086   -1093.6565     1075.371   -549.79291    20.130683    20.281367    20.534486           90           90           90 
  384500    234.45944   -161.90233   -132.47495   -161.90233            0    190.50367    20.310032    20.046099    20.619255            0            0            0    8394.8596    3188.1637    201.01678   -2817.6695   -342.19135   -579.14053    -3066.104    20.310032    20.046099    20.619255           90           90           90 
  385000    232.46987     -162.752   -133.57434     -162.752            0    4011.7814     20.21768    20.015118    20.530888            0            0            0    8308.0133     2398.909    4347.4821    5288.9529   -1403.4534   -1734.4095   -484.15942     20.21768    20.015118    20.530888           90           90           90 
  385500    236.53688   -163.12044   -133.43231   -163.12044            0    1101.0614    20.236057    20.228435    20.594396            0            0            0    8430.1877   -655.64098    2028.7561     1930.069   -866.80373    505.00179   -65.556812    20.236057    20.228435    20.594396           90           90           90 
  386000    232.53099   -161.23688   -132.05154   -161.23688            0    2068.6334    20.126347    20.238063    20.547043            0            0            0    8369.1861    1635.0349    1934.6535    2636.2119    1757.2154   -2187.5474    632.78315    20.126347    20.238063    20.547043           90           90           90 
  386500    239.54598   -160.98284   -130.91704   -160.98284            0    2482.2394    20.096196     20.24321    20.464257            0            0            0    8325.0953    2211.9604    293.59229    4941.1654   -3294.2504   -848.92685    2444.7712    20.096196     20.24321    20.464257           90           90           90 
  387000    230.73664   -161.45822   -132.49809   -161.45822            0    1223.3227    20.152002    20.327515     20.60072            0            0            0    8438.8819    3619.6161   -1910.5098    1960.8616    1051.2824   -1466.9451   -747.33604    20.152002    20.327515     20.60072           90           90           90 
  387500    241.43947   -161.30287   -130.99941   -161.30287            0    4032.5071    20.229961    20.157561    20.726617            0            0            0    8452.0382    6784.0027    1265.6147    4047.9039    1112.5849   -2323.7199   -1056.9474    20.229961    20.157561    20.726617           90           90           90 
  388000    239.57764   -163.87344   -133.80367   -163.87344            0    849.96645    20.210433    19.925923    20.633356            0            0            0    8309.2904   -1003.8763    1179.2793    2374.4963   -319.90076   -1548.3361    1765.6693    20.210433    19.925923    20.633356           90           90           90 
  388500    224.36561   -162.38082   -134.22034   -162.38082            0    3819.1349    20.286484    20.108196    20.521466            0            0            0    8371.2108     2086.315     4631.119    4739.9708    1877.9445   -2823.4381    192.60613    20.286484    20.108196    20.521466           90           90           90 
  389000     235.2717   -163.10813    -133.5788   -163.10813            0     2035.568    20.273334    20.321135     20.43112            0            0            0    8417.1544     3215.188     305.8936    2585.6223   -1648.2406    1954.9476    276.27216    20.273334    20.321135     20.43112           90           90           90 
  389500    233.05269   -162.79908   -133.54827   -162.79908            0   -2136.9437     20.14644    20.207115    20.473293            0            0            0    8334.7068   -2643.8642   -2889.5629   -877.40415    529.07751   -838.17476   -2795.0213     20.14644    20.207115    20.473293           90           90           90 
  390000    229.92117   -163.23393   -134.37615   -163.23393            0    1808.1843    20.106976    20.030769    20.746057            0            0            0    8355.6443    3055.3819    3920.2527   -1551.0818   -311.62466    892.45885     2664.064    20.106976    20.030769    20.746057           90           90           90 
  390500    231.90646    -160.9849   -131.87795    -160.9849            0    1447.6409    20.147295    20.136521    20.876928            0            0            0    8469.6952    2447.4592    2399.0867   -503.62318    315.17988    1577.8274    1531.1475    20.147295    20.136521    20.876928           90           90           90 
  391000    247.64218   -161.31546    -130.2335   -161.31546            0    4066.9238    20.083344    20.205169    20.601056            0            0            0    8359.6483    4786.1096    3193.5023    4221.1593   -470.28341   -72.931743   -3697.0982    20.083344    20.205169    20.601056           90           90           90 
  391500    254.64063   -160.34863   -128.38828   -160.34863            0    343.72532    20.320505    20.196948    20.437983            0            0            0    8387.9972    10.657198   -1294.0492     2314.568    1928.9828    4724.5622    1425.1262    20.320505    20.196948    20.437983           90           90           90 
  392000    234.13682   -163.82834   -134.44146   -163.82834            0    4866.3105    20.449963    19.989046     20.40883            0            0            0    8342.6244    5317.1507    2832.3411    6449.4397   -1248.2292    -2942.353    114.01831    20.449963    19.989046     20.40883           90           90           90 
  392500    232.37842   -162.89818   -133.73199   -162.89818            0    867.96916    20.296642    20.108532    20.654663            0            0            0    8429.9047    1790.5043    174.22351    639.17963    671.61837    1477.8051   -863.83754    20.296642    20.108532    20.654663           90           90           90 
  393000    236.38314   -160.49398   -130.82515   -160.49398            0    827.38393    19.951203    20.255698    20.676241            0            0            0    8355.7973   -326.30293    896.43066    1912.0241   -945.64833   -241.67268   -929.52502    19.951203    20.255698    20.676241           90           90           90 
  393500    240.27349   -159.34692   -129.18981   -159.34692            0   -1189.4794    20.117053    20.312147    20.685826            0            0            0    8452.6533    1272.5453   -928.04152    -3912.942   -350.73383    2013.0408   -2168.5534    20.117053    20.312147    20.685826           90           90           90 
  394000    241.81042   -162.39314   -132.04313   -162.39314            0    790.85469    20.343566     20.14248    20.510507            0            0            0     8404.588   -2729.8293    2688.0962    2414.2972   -855.42803   -11.563327    1980.0338    20.343566     20.14248    20.510507           90           90           90 
  394500    224.59234     -161.192   -133.00306     -161.192            0    800.97299    20.301094    20.073267    20.492371            0            0            0    8350.8317    3358.1755    4.2154617   -959.47201    594.58332   -590.24477     1504.603    20.301094    20.073267    20.492371           90           90           90 
  395000      253.907   -163.20843   -131.34016   -163.20843            0    3152.7872    20.170872     20.13546    20.519594            0            0            0    8334.0291    327.69013     4948.186    4182.4856   -1193.7879    2260.5747    750.98182    20.170872     20.13546    20.519594           90           90           90 
  395500    234.61653    -162.7282    -133.2811    -162.7282            0    1318.7453    20.282055    20.266391    20.650879            0            0            0    8488.4211    1885.1651     2392.947   -321.87619   -537.64276   -339.34379    1541.2146    20.282055    20.266391    20.650879           90           90           90 
  396000    236.82437   -163.07294   -133.34874   -163.07294            0    2686.2723    20.156429    20.149109    20.555482            0            0            0     8348.282    2720.0052    2671.2108    2667.6009   -904.34985   -2085.8569    861.70644    20.156429    20.149109    20.555482           90           90           90 
  396500    237.12291   -163.73191   -133.97023   -163.73191            0    3923.4703     20.10314    20.209067    20.516454            0            0            0    8335.1319    3987.5372    3941.7657     3841.108    1089.9052   -663.93576    1550.5336     20.10314    20.209067    20.516454           90           90           90 
  397000    241.30462   -162.50514   -132.21861   -162.50514            0    2164.8106    20.256318    20.308249    20.579069            0            0            0    8465.6189    5492.7316   -659.23849    1660.9385   -14.865233    1729.9882   -1913.4035    20.256318    20.308249    20.579069           90           90           90 
  397500     242.3792   -162.40825   -131.98685   -162.40825            0    5701.7065    20.251667    20.101952    20.587786            0            0            0    8381.2473       9516.5    5608.1395      1980.48    344.10682    419.42795    579.79809    20.251667    20.101952    20.587786           90           90           90 
  398000    247.31405   -162.76532   -131.72454   -162.76532            0    3474.9343    20.218467    20.018495    20.611341            0            0            0    8342.3016     187.3726    4493.4471    5743.9833    388.95638    -2674.569    -407.1314    20.218467    20.018495    20.611341           90           90           90 
  398500     244.0689   -162.16183   -131.52835   -162.16183            0    2541.4462    20.204841    20.240372    20.533434            0            0            0    8397.2198    2002.3898     3320.333    2301.6159    177.89689    2002.0897    584.85453    20.204841    20.240372    20.533434           90           90           90 
  399000    233.96512   -164.34308   -134.97774   -164.34308            0     5460.329    20.192778    20.409398    20.355697            0            0            0    8389.0396    3658.2042    6127.8769    6594.9059   -477.83358    764.74138   -1312.4817    20.192778    20.409398    20.355697           90           90           90 
  399500    240.72855   -163.00132    -132.7871   -163.00132            0    1764.3032    20.188385    20.253107    20.461395            0            0            0    8366.2046    2048.4717     1089.376    2155.0619   -447.71089   -419.30708   -1131.3518    20.188385    20.253107    20.461395           90           90           90 
  400000    227.84447   -162.42066   -133.82353   -162.42066            0    1839.4264    20.210282    20.031467    20.824489            0            0            0    8430.6197   -651.40474     4279.615    1890.0689    605.94637    3448.0482   -441.85228    20.210282    20.031467    20.824489           90           90           90 
Loop time of 2412.94 on 1 procs for 400000 steps with 972 atoms

Performance: 7.161 ns/day, 3.351 hours/ns, 165.773 timesteps/s
69.9% CPU use with 1 MPI tasks x 1 OpenMP threads

MPI task timing breakdown:
Section |  min time  |  avg time  |  max time  |%varavg| %total
---------------------------------------------------------------
Pair    | 2146.8     | 2146.8     | 2146.8     |   0.0 | 88.97
Bond    | 0.068041   | 0.068041   | 0.068041   |   0.0 |  0.00
Neigh   | 237.55     | 237.55     | 237.55     |   0.0 |  9.84
Comm    | 9.5327     | 9.5327     | 9.5327     |   0.0 |  0.40
Output  | 2.1731     | 2.1731     | 2.1731     |   0.0 |  0.09
Modify  | 15.46      | 15.46      | 15.46      |   0.0 |  0.64
Other   |            | 1.361      |            |       |  0.06

Nlocal:        972.000 ave         972 max         972 min
Histogram: 1 0 0 0 0 0 0 0 0 0
Nghost:        4589.00 ave        4589 max        4589 min
Histogram: 1 0 0 0 0 0 0 0 0 0
Neighs:         0.00000 ave           0 max           0 min
Histogram: 1 0 0 0 0 0 0 0 0 0
FullNghs:      241110.0 ave      241110 max      241110 min
Histogram: 1 0 0 0 0 0 0 0 0 0

Total # of neighbors = 241110
Ave neighs/atom = 248.05556
Ave special neighs/atom = 0.0000000
Neighbor list builds = 40000
Dangerous builds not checked

unfix		3
unfix		2

write_data	data.final.${pid}
write_data	data.final.0
System init for write_data ...

write_restart   restart.lmp.${pid}
write_restart   restart.lmp.0
System init for write_restart ...
Total wall time: 0:40:17
