LAMMPS data file via write_data, version 29 Sep 2021, timestep = 400000

1920 atoms
2 atom types

-0.18521279549318415 24.90961779549506 xlo xhi
-0.09695995590102591 24.821364955901643 ylo yhi
-0.029659958897436667 22.822031958896492 zlo zhi

Masses

1 1.008
2 15.999

Atoms # full

4 0 1 0 2.6404004856071777 1.5746456451933561 2.146741303561335 0 0 0
5 0 2 0 2.877395076790543 1.3011337532660796 3.1086330708690584 0 0 0
6 0 2 0 3.300951409969754 2.264229982334075 1.9556390532079817 0 0 0
17 0 2 0 0.8277542783933247 1.6797030667811748 2.1096930435531918 0 0 0
387 0 2 0 3.9105645399033477 -0.062024455790415434 1.3320542046052382 0 1 0
11 0 2 0 2.4534619695096676 3.7002529791119105 3.75732688595122 0 0 0
16 0 1 0 -0.12180986794368301 1.725097318231707 1.930997160320758 0 0 0
99 0 2 0 -0.17888210500326807 3.6020779609802736 3.561873374886315 1 0 0
19 0 1 0 4.584462171954008 3.2831104326734484 0.7613326813515687 0 0 0
2 0 2 0 5.280621729959512 1.3794043938356206 3.5807416047158798 0 0 0
46 0 1 0 6.316428582166179 1.514913960686396 1.928695719712413 0 0 0
47 0 2 0 7.240123705091412 1.5535839187522014 2.0932314542899166 0 0 0
48 0 2 0 5.990252662241979 2.351463086550968 1.6116970600165494 0 0 0
1 0 1 0 4.492726052948954 1.3745750136454247 4.148955562259875 0 0 0
386 0 2 0 5.4095320815533885 0.24736197165655294 0.9163462059774334 0 1 0
45 0 2 0 6.913046769077664 3.401754355312393 4.464370240286345 0 0 0
54 0 2 0 7.977702895912616 3.9497287049120127 1.0275568598784355 0 0 0
60 0 2 0 6.838419700251359 -0.06706721007526759 4.451323617917142 0 0 0
32 0 2 0 11.694136609621895 1.5211391169488542 3.850443575525319 0 0 0
34 0 1 0 9.421046202601913 1.6758212708470135 2.098503098652698 0 0 0
35 0 2 0 9.967210650096215 1.5829158570713053 2.9430430030903825 0 0 0
36 0 2 0 9.736245339570171 2.443283624816659 1.5740813050655016 0 0 0
49 0 1 0 11.099455646641868 3.260583674130207 0.594824275603707 0 0 0
51 0 2 0 11.823473815491898 2.9006061621363664 1.1769012895793818 0 0 0
31 0 1 0 10.827290958518748 1.3118621200267193 4.323294119559473 0 0 0
42 0 2 0 9.140465320178498 3.841817457015325 4.040173005281709 0 0 0
416 0 2 0 10.415267441392993 0.3294593732912502 1.2518253119258462 0 1 0
78 0 2 0 12.24217461206278 0.896107744369136 1.8242913563841086 0 0 0
417 0 2 0 11.260080030258166 0.39766740775827414 0.004209600389519896 0 1 0
76 0 1 0 12.674733311524244 1.7236385944243018 2.2123053058341657 0 0 0
38 0 2 0 12.752037638373432 3.8345842918151876 3.878545672010662 0 0 0
64 0 1 0 15.409201448942843 1.5062588882045762 1.839251126151108 0 0 0
65 0 2 0 15.81929318952062 1.3542292253323776 2.700086376867991 0 0 0
66 0 2 0 15.754601370927134 0.8266252636047651 1.1946254018975835 0 0 0
77 0 2 0 13.62059896141197 1.6321931320960459 2.193676084051668 0 0 0
75 0 2 0 14.686670572514958 3.3513148706311897 4.361632306661849 0 0 0
1514 0 2 0 14.635412584043099 3.3887639365445135 0.07865478724367105 0 0 1
80 0 2 0 16.305620311815716 2.816123628412625 1.2102413437380475 0 0 0
62 0 2 0 17.7541726296273 1.3052608539378672 3.4596932975512735 0 0 0
79 0 1 0 16.9496224624192 3.272428389010141 0.6416124971045012 0 0 0
106 0 1 0 18.709753123225596 1.3695593145503975 2.074470448095162 0 0 0
107 0 2 0 19.66707902889921 1.4590696351187575 2.2503332416782227 0 0 0
108 0 2 0 18.47026284422403 2.1313583042213855 1.5028417981284286 0 0 0
61 0 1 0 17.121565992321166 1.3677784625225726 4.181376152821494 0 0 0
446 0 2 0 17.675927484831888 -0.005474123184257482 1.1131602170587038 0 1 0
68 0 2 0 18.657931914761697 3.9074318822674714 4.0330260785807255 0 0 0
18 0 2 0 24.810365788409023 0.8450726265521783 1.6495496628631152 -1 0 0
92 0 2 0 23.989917746768377 1.5261167692199988 3.4881463011681695 0 0 0
94 0 1 0 21.33170275256336 1.4956518102588439 2.2585731963281197 0 0 0
95 0 2 0 21.796488513023036 1.8406980206031314 3.035554587026792 0 0 0
96 0 2 0 21.66508607041424 2.1477949066303723 1.5558761694620198 0 0 0
109 0 1 0 23.05386701221859 3.2211884995772118 0.7142266929654201 0 0 0
110 0 2 0 23.7586000405417 2.9420838353331664 1.2723168882100366 0 0 0
91 0 1 0 23.306766127395214 1.7660399597257719 4.13387690751881 0 0 0
476 0 2 0 22.651198978995687 -0.024358964657414314 1.6602583579862038 0 1 0
24 0 2 0 1.7764500660343285 4.5390466158358596 1.7698958830434535 0 0 0
22 0 1 0 1.0872239527309233 4.383837026921013 1.0761913345692204 0 0 0
10 0 1 0 2.9213140623954024 4.497684247593565 3.386851089615681 0 0 0
23 0 2 0 1.1882311160512156 5.059122037351842 0.4197312712284537 0 0 0
124 0 1 0 2.731324185648341 7.907886643080243 1.931991425585225 0 0 0
126 0 2 0 1.8246411476471938 7.784157120056933 1.56127808949033 0 0 0
149 0 2 0 2.1258496894587373 5.789730129217328 4.1354913061060135 0 0 0
122 0 2 0 3.9586599374385196 7.561232721946154 3.646557530812304 0 0 0
27 0 2 0 3.748321281177494 6.384280036359596 0.9620405292960478 0 0 0
12 0 2 0 3.8281463930900133 4.515834593358258 3.5591675009401946 0 0 0
136 0 1 0 -0.010190225692806754 7.938298021895898 1.753638386986448 0 0 0
137 0 2 0 -0.04820055514482671 7.886275579729435 2.7003284208459246 0 0 0
150 0 2 0 0.6714718247763387 5.8585637448144805 4.303316892865754 0 0 0
21 0 2 0 4.550162435348912 4.272781914601559 0.7113004528652759 0 0 0
8 0 2 0 6.136580672734834 4.7899279324475 2.909915057848983 0 0 0
25 0 1 0 4.458187552406657 5.93555169121892 0.5017238566905938 0 0 0
7 0 1 0 5.696445191794778 4.73338173232207 3.7774177419591375 0 0 0
9 0 2 0 6.173564751057429 5.488325023990619 4.201924670114805 0 0 0
168 0 2 0 5.9659554587692805 6.940318845584879 1.6229867072866262 0 0 0
52 0 1 0 7.825087699010487 4.718370293271414 1.631625047258971 0 0 0
166 0 1 0 6.464339539227834 7.785246559043035 1.7556282200601099 0 0 0
167 0 2 0 6.076367402542702 8.042113384380743 2.632994572934866 0 0 0
121 0 1 0 4.781551572695606 7.626456910016771 4.212598936094248 0 0 0
156 0 2 0 8.260263327236698 7.417396540156052 2.163444050134304 0 0 0
53 0 2 0 8.650939168534011 4.848376995817285 2.233671970541431 0 0 0
50 0 2 0 11.035286303765533 4.211790906338931 0.757158596608944 0 0 0
41 0 2 0 10.502794126756717 4.439968820019813 3.677534434676541 0 0 0
40 0 1 0 9.562502779858066 4.692806444934993 3.8167339793882795 0 0 0
55 0 1 0 11.455790390447541 6.0690168875904895 0.932327125114483 0 0 0
56 0 2 0 10.623619360978727 6.266120350967183 1.4756989766503363 0 0 0
57 0 2 0 12.145167533931293 6.50994942372857 1.4862432251242819 0 0 0
154 0 1 0 9.20433132706254 7.460999094421541 2.173303650770518 0 0 0
153 0 2 0 11.812941326332838 7.539328110573465 3.82813682567025 0 0 0
152 0 2 0 10.257349675959656 7.279894422884976 3.8733428366932854 0 0 0
151 0 1 0 11.080099073757784 7.246886150197322 4.341861104344933 0 0 0
37 0 1 0 12.103164355669387 4.413813971011857 3.436983419143615 0 0 0
39 0 2 0 12.311146198976715 5.27178018775878 3.6359058386548644 0 0 0
196 0 1 0 12.862270524704456 7.837535399658189 2.2589979270532208 0 0 0
83 0 2 0 13.34634727669437 4.345190348719617 1.9224048296900422 0 0 0
82 0 1 0 14.17286952429339 4.471779791210273 1.3528279449979672 0 0 0
70 0 1 0 15.769099169296856 4.5769915930954905 3.6267317333433904 0 0 0
72 0 2 0 15.299951676953965 4.542603583827106 2.791542289867751 0 0 0
84 0 2 0 13.888354643893523 5.190228598739415 0.8211249354601319 0 0 0
186 0 2 0 15.938601684367262 7.949132374006835 2.8600443469784493 0 0 0
71 0 2 0 15.291315769111023 5.342376417450845 4.025020741634679 0 0 0
198 0 2 0 13.796297711570523 7.954870783363182 1.9538142380741912 0 0 0
184 0 1 0 15.599610198529223 7.73370956949369 2.0305841599759735 0 0 0
86 0 2 0 16.572584976615396 6.098913466631249 1.0232439203606756 0 0 0
87 0 2 0 17.353462418025877 4.865191847980909 1.00592538291562 0 0 0
113 0 2 0 19.595352088234385 4.876796698617164 1.5701465470696259 0 0 0
112 0 1 0 20.37771579379394 4.61468379773828 1.162832946298433 0 0 0
69 0 2 0 17.496811087099758 4.683922679839043 3.445161107400033 0 0 0
67 0 1 0 18.441327577503593 4.687118851670845 3.4711951262743517 0 0 0
85 0 1 0 17.399755793411707 5.770498725470966 0.6697285140054239 0 0 0
226 0 1 0 18.886994914859777 7.767665138947043 2.0810856570513026 0 0 0
228 0 2 0 18.40084058861919 7.055234552550652 1.6187068775358024 0 0 0
183 0 2 0 17.846979387418735 7.695605085099063 3.5866756126622876 0 0 0
181 0 1 0 17.068338071699557 7.6408235076961555 4.1702645753987895 0 0 0
216 0 2 0 20.703028389359012 7.553746988820045 2.195361510251505 0 0 0
240 0 2 0 19.42239405306411 5.98573089794914 4.4566724326151705 0 0 0
98 0 2 0 24.856360110571075 4.779402367012642 2.59740417732715 0 0 0
111 0 2 0 23.232061670540595 4.181247984093739 0.5691331914749992 0 0 0
114 0 2 0 20.948032395898586 4.363716898086536 1.915562420505242 0 0 0
138 0 2 0 24.411360559694074 7.325322937889949 1.344952469788524 -1 0 0
97 0 1 0 24.539159465093014 4.48035979900569 3.479952536721047 0 0 0
102 0 2 0 22.75606353006566 4.43412327668197 3.4551446087466022 0 0 0
100 0 1 0 21.771237945809 4.424852306590945 3.512689946380338 0 0 0
115 0 1 0 23.247345509576895 6.00929970384124 0.6330029176494462 0 0 0
116 0 2 0 22.62605662356819 6.407258416938214 1.253378310088991 0 0 0
213 0 2 0 22.917704405888507 7.490325137709501 3.828487660861865 0 0 0
214 0 1 0 21.66946207898181 7.610558264397471 2.2013948334830884 0 0 0
101 0 2 0 21.46912917725505 5.150201241920004 4.061294410953755 0 0 0
211 0 1 0 23.746895704978414 7.45647048645292 4.345085049958086 0 0 0
125 0 2 0 2.930703919389743 8.782124764044779 1.5775798878879683 0 0 0
130 0 1 0 3.119463700633041 10.714539749813095 3.3343650318782205 0 0 0
142 0 1 0 1.247011428016441 11.021611491914442 1.3283654358526504 0 0 0
143 0 2 0 2.018046430119574 10.923143770840857 1.9593300298747456 0 0 0
144 0 2 0 1.3110888642228857 10.327875549983302 0.6938083739448608 0 0 0
132 0 2 0 2.851096053398892 11.433091249376467 3.9495420585696213 0 0 0
219 0 2 0 0.16523301740740476 10.967705270012269 2.908765479016913 1 0 0
218 0 2 0 0.36738044651485025 10.27933361069441 4.29235460084198 1 0 0
1709 0 2 0 1.1165719902085196 12.151127483783714 0.01734945209511779 0 0 1
135 0 2 0 2.471602898575752 9.147296916136327 4.133804091101976 0 0 0
131 0 2 0 4.0874677707778195 10.713364344954039 3.242991906031274 0 0 0
139 0 1 0 4.457578092389502 9.630425677955504 0.4124404469268731 0 0 0
127 0 1 0 5.894696588620211 10.690925334876278 3.4168804762169454 0 0 0
129 0 2 0 6.515499681480631 10.7085374526949 2.5783535418389474 0 0 0
140 0 2 0 5.147487464500951 9.201369798777472 0.9035999173252788 0 0 0
172 0 1 0 7.873235811448007 10.96949463984791 1.5008829139689235 0 0 0
141 0 2 0 4.6328413799182275 10.59743599552742 0.4471148135432768 0 0 0
173 0 2 0 7.955443468075316 10.220851205016338 0.881895997070808 0 0 0
128 0 2 0 6.242736281092542 9.920690622390346 3.931586729328052 0 0 0
145 0 1 0 4.572266228500621 12.23073888093932 0.5889997592469113 0 0 0
155 0 2 0 9.43019627170741 8.329504565287396 1.732123284379505 0 0 0
174 0 2 0 8.589547544206308 10.991142633009312 2.1212381891229986 0 0 0
160 0 1 0 9.626105075273998 10.853481523260673 3.4917921129886724 0 0 0
161 0 2 0 10.584533434359695 10.715138323619913 3.6312582393332375 0 0 0
162 0 2 0 9.427972542786542 11.578999115979926 4.085525142982237 0 0 0
169 0 1 0 10.755249414383115 9.515732703231826 1.0028625175676018 0 0 0
171 0 2 0 10.846123518345308 10.453640532351756 0.8942488083271538 0 0 0
165 0 2 0 8.306811897369224 9.290109746186427 4.2607676054954915 0 0 0
175 0 1 0 10.754957850005798 12.27174647856857 0.5179899834269236 0 0 0
157 0 1 0 12.24041903340656 10.585692008893243 3.7128294491995044 0 0 0
170 0 2 0 10.737617486016887 9.20590060310047 0.0808794017904423 0 0 0
197 0 2 0 12.390433118710568 8.641514981787129 1.8783712715068706 0 0 0
185 0 2 0 15.9033032900811 8.425924175519057 1.4177383800397474 0 0 0
159 0 2 0 12.693029471277713 10.79250573700379 2.9099298207426045 0 0 0
158 0 2 0 12.794281936431352 10.003095618778742 4.240379054570937 0 0 0
190 0 1 0 15.515870468803891 10.795697228201837 3.5891691740597014 0 0 0
192 0 2 0 15.185969102987702 10.808506363291842 2.7267428040155277 0 0 0
202 0 1 0 13.793531842304928 10.760566149655965 1.511986025162276 0 0 0
203 0 2 0 13.846430716810296 11.439362447783479 0.8240045605906101 0 0 0
204 0 2 0 14.050055738335127 10.005547514829201 0.9143713512696393 0 0 0
191 0 2 0 16.446741309396828 10.929435051178192 3.5597940656326155 0 0 0
227 0 2 0 18.57707132653279 8.564442007265185 1.6559848902471073 0 0 0
200 0 2 0 17.262666735703462 10.354849346002513 0.7241651748732961 0 0 0
199 0 1 0 17.20172608763012 9.37403696789381 0.6685302468585674 0 0 0
187 0 1 0 18.242768950342743 11.053517987273802 3.6609691921150596 0 0 0
189 0 2 0 18.56652444305776 11.324739045415201 2.8029538832737377 0 0 0
232 0 1 0 20.22620353956269 10.96236555235239 1.528932906032628 0 0 0
234 0 2 0 20.494703070581338 10.305811191060133 0.8756431771515175 0 0 0
188 0 2 0 18.723280490602747 10.2664752486589 3.8651617607616244 0 0 0
205 0 1 0 16.940646040091373 12.020137272553969 0.7247943554933552 0 0 0
1800 0 2 0 20.06636681181513 12.061222226998405 0.19441403502942722 0 0 1
225 0 2 0 20.770150114675253 9.470384342098422 4.255485631856398 0 0 0
233 0 2 0 21.051499906024908 11.238442094664743 1.9712519046909454 0 0 0
215 0 2 0 21.91075388778168 8.421247679674224 1.8145579766595403 0 0 0
217 0 1 0 24.8927423254998 10.884288098003577 3.8192124535401857 0 0 0
220 0 1 0 22.204232736142515 10.745490648130009 3.60497700782077 0 0 0
221 0 2 0 23.168281999456198 10.740904553162698 3.726388905127667 0 0 0
229 0 1 0 22.84966001027096 9.524523457952212 0.6641493933895511 0 0 0
230 0 2 0 23.61779297088888 9.211982842930091 1.0888765931357205 0 0 0
231 0 2 0 23.012395640932347 10.49427790846122 0.7305266169877255 0 0 0
222 0 2 0 21.812966800247366 11.528249815823798 3.9478325320834995 0 0 0
235 0 1 0 23.15658201815792 12.154371457754579 0.9026128208844285 0 0 0
244 0 1 0 3.0119756862626246 13.86684026065674 2.219387936513905 0 0 0
245 0 2 0 2.0716355369449686 13.719828450790372 2.301388067116691 0 0 0
246 0 2 0 3.2364863479302333 13.16925258121245 1.5760781170146536 0 0 0
256 0 1 0 0.23574847411727679 13.864965264224784 2.0918437007051303 0 0 0
260 0 2 0 3.7111162235446415 15.173229114710114 1.2611892914760006 0 0 0
251 0 2 0 2.8219452636569464 16.41920697939205 4.015966295977072 0 0 0
1694 0 2 0 1.5299035502113179 15.834899231370015 0.17884023157213313 0 0 1
242 0 2 0 4.185789521746273 14.13642060680489 3.558877901802979 0 0 0
147 0 2 0 5.3841543146940944 12.58699373359518 0.9694386937259877 0 0 0
259 0 1 0 4.262476333213189 15.781764525428212 0.7769121532805949 0 0 0
286 0 1 0 6.486024397468245 13.79317532666247 1.6257345276940782 0 0 0
287 0 2 0 6.221758767783215 13.90329530269664 2.5635660726733236 0 0 0
288 0 2 0 6.0373514633083225 14.57409019632504 1.2686076382549385 0 0 0
1725 0 2 0 7.761460421279847 15.937184616488286 0.07704692682205737 0 0 1
241 0 1 0 5.045667879429424 13.981355064350804 4.001490283766328 0 0 0
1740 0 2 0 7.972750820886253 12.394154642713433 0.20046092669385385 0 0 1
276 0 2 0 8.350395157786334 13.571860730431736 2.0531747983147217 0 0 0
176 0 2 0 10.144556748421053 12.532401837919306 1.194718776165162 0 0 0
272 0 2 0 11.52962599803908 13.864753796523386 3.5029490185015293 0 0 0
274 0 1 0 9.239564198250466 13.943543620636564 2.047453063209403 0 0 0
275 0 2 0 9.561788518300174 13.840247453780691 2.945873170662546 0 0 0
289 0 1 0 10.92840734585102 15.599490910344798 0.7739149866222486 0 0 0
291 0 2 0 10.0851797918648 15.352834415131577 1.2197101055103963 0 0 0
318 0 2 0 11.926944934994788 13.232462777166257 1.6152360360902545 0 0 0
271 0 1 0 10.776009700949817 14.075700639243596 4.164479116594666 0 0 0
317 0 2 0 12.135516282044106 14.63924836096739 1.8086823002548094 0 0 0
281 0 2 0 8.99351161886681 16.205036772046554 4.214769346005764 0 0 0
316 0 1 0 12.385439521029872 13.81079112895304 2.223702909064869 0 0 0
304 0 1 0 15.05759845464513 14.019160889365354 1.8683680636499347 0 0 0
305 0 2 0 14.215975807752057 13.663593768509909 2.1044909493184956 0 0 0
306 0 2 0 15.459674636437219 13.50142329342995 1.1857183317080449 0 0 0
302 0 2 0 16.106616514410106 13.884475566400088 3.7053512545597096 0 0 0
320 0 2 0 16.270385663862086 15.405667799303373 1.1696661902442602 0 0 0
311 0 2 0 15.532268813958414 16.21940748077968 4.2172349021437725 0 0 0
1754 0 2 0 14.406853721092263 15.752842333041002 -0.0033115644416750953 0 0 1
207 0 2 0 17.561465908845598 12.544677539868898 1.2260324580603819 0 0 0
319 0 1 0 17.092796054619086 15.639327031496716 0.7580591454799803 0 0 0
346 0 1 0 18.85104039024602 13.795949682116948 2.1890164958468907 0 0 0
347 0 2 0 18.586149172171268 14.5538634025894 1.623953526817123 0 0 0
348 0 2 0 18.40261456019143 13.987645957873543 3.051386525924819 0 0 0
309 0 2 0 18.97824125261063 16.441212409263116 4.049630104825549 0 0 0
301 0 1 0 17.007663256589183 13.8039464902983 4.136126444473712 0 0 0
1784 0 2 0 20.272593707970685 15.704513695893878 0.1691521708553574 0 0 1
335 0 2 0 20.586911990092133 13.991342150009508 2.3251375184667227 0 0 0
258 0 2 0 24.826218536179063 13.086247431839595 1.851341242091808 -1 0 0
237 0 2 0 22.454509943026245 12.573474972602453 1.3716350988430066 0 0 0
257 0 2 0 24.871401689751252 14.103488122325825 2.9168666212389245 -1 0 0
332 0 2 0 22.668747952154696 14.051744849093456 3.882433471437839 0 0 0
334 0 1 0 21.514477770271547 13.882793419968207 2.3410187332171937 0 0 0
336 0 2 0 21.89558769103852 14.635455227375797 1.8301489013614067 0 0 0
349 0 1 0 23.329083593517403 15.649855919847846 0.7730009912258032 0 0 0
350 0 2 0 24.233192557321203 15.338581819721782 1.0510273223374644 0 0 0
331 0 1 0 23.540133183700114 14.127975406490163 4.287455433079205 0 0 0
345 0 2 0 21.081369681187383 15.956558069201728 4.294467120863202 0 0 0
339 0 2 0 23.92173445871284 16.236758697897685 3.501813393093931 0 0 0
236 0 2 0 23.179470669693387 12.613348435602097 0.08117315706960991 0 0 0
263 0 2 0 2.2077021547585565 16.984794354253523 1.747674844500225 0 0 0
250 0 1 0 3.0810021440337234 17.128739993484686 3.424759012519416 0 0 0
264 0 2 0 0.8179593243299517 16.96736186390529 2.0356169982484 0 0 0
262 0 1 0 1.374183615804691 17.204898043481165 1.2665008859284574 0 0 0
366 0 2 0 1.9524858030047625 20.38659585741975 2.299353482060611 0 0 0
364 0 1 0 2.8745320101728327 20.25570626944861 2.0544025237748316 0 0 0
267 0 2 0 3.8097487247756034 18.907691067793287 0.9615116897314703 0 0 0
390 0 2 0 2.110137822361135 18.558705401195617 4.49629341023399 0 0 0
376 0 1 0 0.10181653491940695 20.10417236822574 2.2160725588885293 0 0 0
363 0 2 0 3.9947358275645755 20.125687747392014 3.3863943233315803 0 0 0
1829 0 2 0 1.0021801576574096 18.616590056400852 0.025440712194488332 0 0 1
248 0 2 0 6.2328893659781714 16.558556547792413 4.119033292832818 0 0 0
252 0 2 0 4.081468811094534 17.144567410508387 3.383191918413666 0 0 0
292 0 1 0 7.733823415877713 16.88862426899722 1.403295597295024 0 0 0
265 0 1 0 4.516810754675112 18.547028511588508 0.40809526528726 0 0 0
249 0 2 0 6.304614402623108 17.12698112480028 2.759003379801364 0 0 0
247 0 1 0 5.76063853564556 17.178487778131405 3.5664042217690346 0 0 0
266 0 2 0 4.3442664378956275 17.589391426696245 0.4004970820509955 0 0 0
408 0 2 0 5.94750367797488 19.436820285719755 1.6289781944710457 0 0 0
294 0 2 0 7.5034340298757245 17.708872273702177 0.9364915504202211 0 0 0
406 0 1 0 6.488020883871464 20.146762640786996 2.077033058588117 0 0 0
407 0 2 0 5.940030606209354 20.379698898408776 2.8641935467068116 0 0 0
361 0 1 0 4.6965790757509325 20.043517912313725 4.115287128208732 0 0 0
419 0 2 0 6.960737277650936 18.53961677363224 4.463616359981548 0 0 0
278 0 2 0 11.10668816671079 16.73466761407842 3.6864590309225655 0 0 0
395 0 2 0 8.323916077625451 20.175959491289547 1.8808241924664892 0 0 0
290 0 2 0 10.958085075871761 16.547171457532407 0.9174434628109969 0 0 0
293 0 2 0 8.47481463855672 17.10275265247872 1.9622712672395577 0 0 0
280 0 1 0 9.397658700701783 16.989454222395317 3.7771129830589367 0 0 0
295 0 1 0 11.171548176165576 18.314436511052136 0.9957367646646105 0 0 0
296 0 2 0 10.379243565394507 18.648639704811885 1.3807017472024283 0 0 0
394 0 1 0 9.231517552446366 20.084086013733483 2.0272554114977885 0 0 0
282 0 2 0 8.799947095333263 17.77897936927677 4.00597149154711 0 0 0
396 0 2 0 9.279944725466882 20.070163626357598 3.0278309440286173 0 0 0
393 0 2 0 11.336874484636589 20.113638500978887 3.552674501731665 0 0 0
391 0 1 0 10.65969651044645 20.116230851231435 4.292735601590481 0 0 0
277 0 1 0 12.090273481447435 16.70459816668346 3.6034202978261285 0 0 0
437 0 2 0 11.963288222026193 19.65185457823013 1.6398661385219855 0 0 0
297 0 2 0 11.196089831553456 18.624206961038823 0.02718161487853442 0 0 0
436 0 1 0 12.427650332540022 20.37480114397829 2.0588723542856786 0 0 0
324 0 2 0 14.622429391811593 16.88037064871233 1.9818609976313124 0 0 0
322 0 1 0 13.858860504524339 17.004208685262796 1.3668600033333578 0 0 0
323 0 2 0 13.056365269042383 17.105929569837897 1.9672703333453025 0 0 0
310 0 1 0 15.7969246354978 16.90220312455645 3.529561450062999 0 0 0
424 0 1 0 15.270646700992874 19.99802262149057 2.3420964940187607 0 0 0
425 0 2 0 14.322830048888454 19.976686534203786 2.245348137142247 0 0 0
312 0 2 0 15.564085701468064 17.808781613627154 3.879916021823916 0 0 0
279 0 2 0 12.500968290652438 17.423133361014386 4.156902006254613 0 0 0
326 0 2 0 16.38531179250807 18.507994785028707 1.3748836711901635 0 0 0
423 0 2 0 16.444882532163867 19.868510772667975 3.7707158943323846 0 0 0
1890 0 2 0 13.669138803984021 18.418466997121037 0.06384422745302938 0 0 1
321 0 2 0 17.093973502839305 16.600821732138584 0.6959848551080369 0 0 0
308 0 2 0 17.546913700561 17.069554265900038 3.858280628386538 0 0 0
353 0 2 0 19.503651478098647 17.23275913225489 1.942473475575896 0 0 0
325 0 1 0 17.12339056467159 18.308243211797652 0.7520938131684776 0 0 0
307 0 1 0 18.504719643903925 17.244996624617585 3.78302477441457 0 0 0
468 0 2 0 18.288507895214444 19.127022887634133 1.5898558152422284 0 0 0
467 0 2 0 18.39185467700534 19.777414328212025 2.9737102034237255 0 0 0
466 0 1 0 18.73629368078737 19.898908083381606 2.052599602952546 0 0 0
352 0 1 0 20.179367779559293 16.98799828816783 1.292084156747012 0 0 0
354 0 2 0 20.205510475028916 17.6360054883716 0.5306838648425741 0 0 0
421 0 1 0 17.21429570235471 19.94188970377875 4.341854497478515 0 0 0
455 0 2 0 20.563168692704984 19.904226189700672 1.8268955062129755 0 0 0
480 0 2 0 19.560231958917605 18.661113255664674 4.364294385211617 0 0 0
327 0 2 0 16.977406555686677 18.943111122329242 0.011779023768239541 0 0 0
338 0 2 0 24.888915017288546 17.359456568031213 3.970350670730558 0 0 0
351 0 2 0 23.394145624626653 16.65050539466096 0.8227018624596408 0 0 0
337 0 1 0 24.79251632452543 16.560884186570135 3.47169859163984 0 0 0
378 0 2 0 24.833553481623966 20.043272580294804 3.13146646595789 -1 0 0
342 0 2 0 21.720313372583888 16.999430046297 2.6126392474004683 0 0 0
340 0 1 0 22.07777140011209 17.149385431232197 3.5046008606868835 0 0 0
355 0 1 0 23.308405083964786 18.281337705463038 0.8253176782978432 0 0 0
356 0 2 0 24.05701248693876 18.694591524163897 1.3010528010400872 0 0 0
456 0 2 0 21.98124275239916 19.29982642334339 1.438292279919306 0 0 0
454 0 1 0 21.505850368316402 20.142939478621095 1.6734709878539147 0 0 0
453 0 2 0 22.70447673521032 20.386420460132314 3.825750264312534 0 0 0
341 0 2 0 21.61981115665337 17.905800735738694 3.9102474308560815 0 0 0
451 0 1 0 23.5489577380673 20.357632575550568 4.295414192703295 0 0 0
365 0 2 0 3.1080272672850433 20.986142115112166 1.4853557123945618 0 0 0
370 0 1 0 3.256901308610009 23.206979377916213 3.720867445774034 0 0 0
371 0 2 0 2.678529888871342 23.269656098423724 2.9575428106470496 0 0 0
382 0 1 0 1.3687737018194461 23.104183084453787 1.4441665776916344 0 0 0
383 0 2 0 1.4160447428324652 22.36617706662428 0.8589952285056116 0 0 0
384 0 2 0 1.5994560961184736 23.813290162295203 0.8271418636284973 0 0 0
459 0 2 0 0.019511234961228058 22.972656746070818 2.791475626755107 1 0 0
458 0 2 0 0.049837017424850444 22.36786623715627 4.0176729552871295 1 0 0
372 0 2 0 2.979896150002202 23.987070068513866 4.24560317400848 0 0 0
385 0 1 0 4.638740989641533 24.5674210000722 0.8011960035426778 0 0 0
367 0 1 0 6.065776577087619 23.299112018085808 3.7322549815000325 0 0 0
368 0 2 0 5.0970544257411055 23.050905525486833 3.7506799359848757 0 0 0
379 0 1 0 4.6906550153873185 21.588789356475097 0.16563981074935064 0 0 0
380 0 2 0 5.471886284481438 21.154389497000224 0.5411998724576942 0 0 0
381 0 2 0 4.668624935753826 22.494923205823625 0.4245991831800944 0 0 0
414 0 2 0 6.962693301260688 23.591311043762154 2.1450392341395284 0 0 0
369 0 2 0 6.545303808408472 22.832451879795578 4.400751408769002 0 0 0
412 0 1 0 7.6598785219183085 23.450562781682443 1.4985410939446346 0 0 0
413 0 2 0 7.613679441942196 24.243213127831453 0.96808878518033 0 0 0
1845 0 2 0 7.665930183393588 22.03079051144546 0.10722475114915417 0 0 1
415 0 1 0 11.090101288092459 24.745271904732782 0.7909510216639087 0 0 0
400 0 1 0 9.291572470994618 23.49978312424289 3.6343468904520275 0 0 0
401 0 2 0 10.243900044837604 23.326624840063594 3.7467931127987772 0 0 0
402 0 2 0 9.118878179699037 23.469234188241238 2.6974922875872123 0 0 0
409 0 1 0 10.741032087186927 22.026785054302657 0.6018896021922411 0 0 0
410 0 2 0 10.019897705257554 21.837905069811796 1.17752628594366 0 0 0
411 0 2 0 10.851671774642506 22.973849458020297 0.6615269393794414 0 0 0
397 0 1 0 12.250630152087977 23.150947032432512 3.581073493905779 0 0 0
438 0 2 0 12.190289760645864 21.160226737780896 1.5443640500536142 0 0 0
90 0 2 0 14.682648454383138 24.316856420454222 4.363113252668362 0 -1 0
426 0 2 0 15.453497570166096 20.88176773390996 1.9788108665351638 0 0 0
399 0 2 0 12.52140643665525 23.17544597246482 2.681189260027641 0 0 0
398 0 2 0 12.743214666731138 23.86087306092361 3.971261620344537 0 0 0
430 0 1 0 15.725496553668806 23.126867551841826 3.4154051084823878 0 0 0
431 0 2 0 15.324932748829491 22.35318730178082 3.8523917551157534 0 0 0
442 0 1 0 13.910469579031655 23.214905858254795 1.1770608596507466 0 0 0
443 0 2 0 14.764554155223406 23.234279182647377 1.6167219868649592 0 0 0
444 0 2 0 13.886440552754378 24.07289160797479 0.6330624890274341 0 0 0
435 0 2 0 13.192331487184093 21.862467285518193 4.2085383368658915 0 0 0
432 0 2 0 16.730102980244155 23.143230852150012 3.417949883533274 0 0 0
445 0 1 0 16.912562750775415 24.76171503986646 0.49575514860729186 0 0 0
447 0 2 0 16.818859026141425 23.798677221148672 0.4902846160461021 0 0 0
439 0 1 0 17.077641504077704 22.029657596863395 0.9135135331175875 0 0 0
427 0 1 0 18.57864610236777 23.185900643330157 3.3959869677354835 0 0 0
428 0 2 0 18.847924343972302 22.350666867390984 3.7965209909621596 0 0 0
429 0 2 0 19.027546480167906 23.892185764988653 3.891582670349793 0 0 0
440 0 2 0 17.80393212192505 21.445704197329157 1.2178632288014801 0 0 0
474 0 2 0 19.6310075112358 23.255631221502647 1.964190955204412 0 0 0
472 0 1 0 20.439587041182698 23.224223550161355 1.4339008032277953 0 0 0
473 0 2 0 20.467647416643054 23.977581428841532 0.8454290858252916 0 0 0
1905 0 2 0 20.01647587578205 21.698079600622556 -0.013415513722102052 0 0 1
441 0 2 0 16.938576983966932 21.518433886502415 0.08635793544142595 0 0 0
377 0 2 0 24.74465474151529 20.9033419484633 1.765525308740131 -1 0 0
457 0 1 0 24.778795792597336 23.198280817953382 3.6891309040349984 0 0 0
475 0 1 0 23.391967978740162 24.591360231759758 1.1447870659209918 0 0 0
460 0 1 0 22.17674477312186 23.33450117039323 3.654454572617562 0 0 0
461 0 2 0 21.70036569266582 23.276133682871333 2.7807793567453922 0 0 0
462 0 2 0 23.093175796945573 23.044784011175615 3.527663460316851 0 0 0
469 0 1 0 23.551908316060505 21.81637624913501 0.839857425740887 0 0 0
471 0 2 0 22.73841076962755 21.403302420267913 1.18307642228738 0 0 0
477 0 2 0 23.23544583165156 23.676544906607155 0.9679402837441468 0 0 0
14 0 2 0 1.7330576357310359 1.8633291837405037 5.1498560591515465 0 0 0
13 0 1 0 1.4436853750251386 2.7712650807585515 4.972733799101514 0 0 0
15 0 2 0 1.6756536102184345 3.2220676387971308 5.811505365046401 0 0 0
484 0 1 0 2.770151771108229 1.2946497959288361 7.830801692967023 0 0 0
485 0 2 0 1.8442701635330403 1.3705940353381343 8.029844563050286 0 0 0
486 0 2 0 3.05756070302936 2.086606710387199 7.348521096425334 0 0 0
866 0 2 0 3.898287506876364 0.2569532889483568 7.006217243241181 0 1 0
496 0 1 0 0.14467313804672916 1.3891360740485028 7.859468836947336 0 0 0
498 0 2 0 -0.0678530713912403 1.267733543437628 8.789322560526278 0 0 0
3 0 2 0 4.545798631169197 0.6106194647513216 4.745336049363156 0 0 0
500 0 2 0 4.608562815862164 2.629046765978761 5.575203674134399 0 0 0
499 0 1 0 4.726047796913716 3.1131700117793937 6.400401880341393 0 0 0
43 0 1 0 7.714417115596139 2.9970146337303274 4.934982823389772 0 0 0
501 0 2 0 5.347413405751333 2.588905288036067 6.8530363191123564 0 0 0
526 0 1 0 6.283884009577822 1.4088134615998615 7.733914997641464 0 0 0
527 0 2 0 7.22532366844077 1.2386693717087136 7.923032997610272 0 0 0
528 0 2 0 5.883528474266577 1.6278143191603947 8.573757860852128 0 0 0
44 0 2 0 7.660346910447391 2.016285307399183 4.8471789137607395 0 0 0
867 0 2 0 5.436983728113168 0.3354335829015286 6.752414742274325 0 1 0
58 0 1 0 7.5934843835517745 0.2529047207725632 5.013905461921405 0 0 0
534 0 2 0 7.684584930474059 3.9111365802647917 6.723197297707541 0 0 0
33 0 2 0 10.871586227707928 2.000711499551824 4.9958770372553705 0 0 0
514 0 1 0 9.017842718359713 1.4939541309270146 7.815617854907012 0 0 0
516 0 2 0 9.38086523506898 0.6850342406374119 7.536633631005451 0 0 0
529 0 1 0 10.966990983274176 2.9905783942986432 6.527239839882592 0 0 0
531 0 2 0 10.197710870114031 2.4903244933031004 6.9153030060892124 0 0 0
515 0 2 0 9.461852938349823 1.6121821989106753 8.680380752124938 0 0 0
896 0 2 0 10.95801172929629 0.22689520759095771 5.60129644567084 0 1 0
558 0 2 0 12.21602954823773 1.9224551415276423 7.633170674979566 0 0 0
530 0 2 0 10.681653703245928 3.8913155805665314 6.385211796615848 0 0 0