LAMMPS (29 Sep 2021 - Update 2)
  using 1 OpenMP thread(s) per MPI task
echo both

include		in.partitions
variable        pid world 0
include		in.temp
variable        temperature equal 275
variable        tempDamp equal 0.100 # this is 0.1 ps
include		in.pressure
variable        pressure equal 7092.75
variable        pressureDamp equal 1.0 #this is 1ps
include		in.seed
variable        seed world 745823

units           metal
atom_style	full
include		in.box
read_data       iceVI.data
Reading data file ...
  orthogonal box = (0.0000000 0.0000000 0.0000000) to (24.724405 24.724405 22.792372)
  1 by 1 by 1 MPI processor grid
  reading atoms ...
  1920 atoms
Finding 1-2 1-3 1-4 neighbors ...
  special bond factors lj:    0        0        0       
  special bond factors coul:  0        0        0       
     0 = max # of 1-2 neighbors
     0 = max # of 1-3 neighbors
     0 = max # of 1-4 neighbors
     1 = max # of special neighbors
  special bonds CPU = 0.003 seconds
  read_data CPU = 0.045 seconds
include 	in.setup
variable	out_freq equal 500
variable	out_freq2 equal 500

timestep        0.0005

neigh_modify    delay 7 every 1

include         in.deepmd
# This is deepMD model

# create groups ###
#group ox type 2
#group hy type 1

mass 2 15.999
mass 1 1.008

pair_style      deepmd ../graph.pb
pair_coeff      * *

bond_style      none
angle_style     none
dihedral_style  none
improper_style  none
neigh_modify exclude none


neighbor        2.0 bin
neigh_modify    every 10 delay 0 check no

thermo          ${out_freq}
thermo          500
thermo_style 	custom step temp pe etotal epair emol press lx ly lz xy xz yz vol pxx pyy pzz pxy pxz pyz

restart 	${out_freq} restart.lmp.${pid} restart2.lmp.${pid}
restart 	500 restart.lmp.${pid} restart2.lmp.${pid}
restart 	500 restart.lmp.0 restart2.lmp.${pid}
restart 	500 restart.lmp.0 restart2.lmp.0


include         in.dump
dump            myDump all atom ${out_freq2} dump.water.${pid}
dump            myDump all atom 500 dump.water.${pid}
dump            myDump all atom 500 dump.water.0
dump            myDump2 all dcd ${out_freq2} dump.dcd
dump            myDump2 all dcd 500 dump.dcd
dump_modify     myDump append yes
dump_modify     myDump2 append yes


timer           timeout 03:55:00 every 1000
New timer settings: style=normal  mode=nosync  timeout=03:55:00

fix             2 all nph aniso ${pressure} ${pressure} ${pressureDamp}
fix             2 all nph aniso 7092.75 ${pressure} ${pressureDamp}
fix             2 all nph aniso 7092.75 7092.75 ${pressureDamp}
fix             2 all nph aniso 7092.75 7092.75 1
fix             3 all temp/csvr ${temperature} ${temperature} ${tempDamp} ${seed}
fix             3 all temp/csvr 275 ${temperature} ${tempDamp} ${seed}
fix             3 all temp/csvr 275 275 ${tempDamp} ${seed}
fix             3 all temp/csvr 275 275 0.1 ${seed}
fix             3 all temp/csvr 275 275 0.1 745823
velocity 	all create ${temperature} ${seed} dist gaussian
velocity 	all create 275 ${seed} dist gaussian
velocity 	all create 275 745823 dist gaussian

run             400000

CITE-CITE-CITE-CITE-CITE-CITE-CITE-CITE-CITE-CITE-CITE-CITE-CITE

Your simulation uses code contributions which should be cited:

- USER-DEEPMD package:

@article{Wang_ComputPhysCommun_2018_v228_p178,
  author = {Wang, Han and Zhang, Linfeng and Han, Jiequn and E, Weinan},
  doi = {10.1016/j.cpc.2018.03.016},
  url = {https://doi.org/10.1016/j.cpc.2018.03.016},
  year = 2018,
  month = {jul},
  publisher = {Elsevier {BV}},
  volume = 228,
  journal = {Comput. Phys. Commun.},
  title = {{DeePMD-kit: A deep learning package for many-body potential energy representation and molecular dynamics}},
  pages = {178--184}
}

CITE-CITE-CITE-CITE-CITE-CITE-CITE-CITE-CITE-CITE-CITE-CITE-CITE

Neighbor list info ...
  update every 10 steps, delay 0 steps, check no
  max neighbors/atom: 2000, page size: 100000
  master list distance cutoff = 8
  ghost atom cutoff = 8
  binsize = 4, bins = 7 7 6
  1 neighbor lists, perpetual/occasional/extra = 1 0 0
  (1) pair deepmd, perpetual
      attributes: full, newton on
      pair build: full/bin
      stencil: full/bin/3d
      bin: standard
Per MPI rank memory allocation (min/avg/max) = 9.089 | 9.089 | 9.089 Mbytes
Step Temp PotEng TotEng E_pair E_mol Press Lx Ly Lz Xy Xz Yz Volume Pxx Pyy Pzz Pxy Pxz Pyz 
       0          275   -333.91511    -265.7013   -333.91511            0    45634.444    24.724405    24.724405    22.792372            0            0            0     13932.89    46301.662    47672.543    42929.126   -805.47373   -390.94108   -356.60797 
     500    250.18388   -309.00673   -246.94856   -309.00673            0    466.92513    24.987845    25.023839    23.023114            0            0            0    14396.165    2069.5337    1896.3732   -2565.1315   -1612.7306   -1731.8919    910.05669 
    1000    276.82744   -307.48909   -238.82199   -307.48909            0    5614.5287    24.932762    24.946185    22.958386            0            0            0    14279.595    4700.5723    3658.6704    8484.3434     888.7021   -606.90972   -1038.6994 
    1500    271.87331   -306.03527   -238.59704   -306.03527            0    13135.732    24.956762    24.855993    22.918885            0            0            0    14217.159    11285.323    14266.967    13854.907   -85.337747    -2022.284    2138.3195 
    2000    271.70497   -303.78721   -236.39073   -303.78721            0   -117.50939    24.996502    24.995061    23.035658            0            0            0    14392.428    966.99042   -590.65089    -728.8677   -699.64684   -318.91976    137.74368 
    2500     279.4227   -303.79028   -234.47942   -303.79028            0     10303.46    24.847742    24.931003    22.959219            0            0            0    14222.757    8551.5985    13098.459    9260.3226    703.88492   -1374.9391    1546.0566 
    3000    281.00967   -305.88098   -236.17646   -305.88098            0    7997.4668    24.956886    24.954359    23.008541            0            0            0     14329.33    10540.277     4488.027    8964.0962   -1443.1356   -64.967074   -501.39824 
    3500    269.08284   -305.13281   -238.38676   -305.13281            0    4617.1123    24.986029    24.816026    22.997955            0            0            0    14259.973     3316.799    7123.2438    3411.2943    791.40394    1930.7082   -2319.8465 
    4000    271.50051   -306.38981   -239.04405   -306.38981            0     8327.852     24.91642     24.88755    23.005938            0            0            0    14266.181    8204.7049     7970.607    8808.2441    1531.1889    1617.1187    821.48935 
    4500    278.30269   -307.36791   -238.33487   -307.36791            0    7869.5351    24.879897    25.054468    22.966384            0            0            0    14316.154    6039.9233    9087.8044    8480.8777   -1281.1172   -3034.6884    365.76206 
    5000    278.47683   -305.32688   -236.25065   -305.32688            0    8401.8758    24.838523    24.918176    22.927785            0            0            0    14190.709    11191.503    5478.3205     8535.804      1203.65    1211.7801    635.62989 
    5500    269.39852   -305.79193   -238.96756   -305.79193            0    9368.9245    25.040065    24.869621    23.097622            0            0            0    14383.743    5928.8977    11732.377    10445.499    23.455492   -267.26445   -1124.7324 
    6000    276.47828   -305.15917   -236.57867   -305.15917            0    6389.7285    24.939984    24.752228    22.915037            0            0            0    14145.915    4012.1972    7587.3493    7569.6388    1096.0622    -258.8166    2707.5256 
    6500    273.66198   -307.78855   -239.90664   -307.78855            0    4144.3781    24.952426    25.073409    22.966903            0            0            0    14369.068    4667.6239    2337.1442    5428.3662   -557.31187    913.31808   -1777.1119 
    7000    281.32517   -304.73036    -234.9476   -304.73036            0    8215.1201    24.853905    25.020701    22.962193            0            0            0    14279.318    8703.4057     6709.205    9232.7496    1845.3543    1531.7497    1151.9716 
    7500    274.85014   -304.69618   -236.51954   -304.69618            0    7572.8105     24.94818    24.859393    23.007202            0            0            0    14268.989    5914.0268    10263.883    6540.5217    441.77068    295.43941    357.53589 
    8000    264.88389   -303.86175   -238.15724   -303.86175            0    3502.5044     24.98111    24.903243    23.055409            0            0            0    14343.015    4039.4186    3697.1264    2770.9682    86.765447   -945.54602    638.78325 
    8500    270.66861   -305.13533   -237.99592   -305.13533            0    8775.2645    24.827139    24.923445     22.92672            0            0            0    14186.546    8152.7704    7181.6991    10991.324    138.07217    1889.1435   -987.07406 
    9000    273.79933   -303.33739    -235.4214   -303.33739            0    5649.1546    24.954103    25.043011     22.98298            0            0            0    14362.659    5109.6085    5105.1358    6732.7197   -1215.2021    33.396093    548.49839 
    9500    277.26311   -304.80437    -236.0292   -304.80437            0    7644.9608    24.940848    24.898013    22.957775            0            0            0    14256.263    7255.4182     8471.445    7208.0193    395.62809    1289.9176   -300.10556 
   10000    282.88124   -305.10342   -234.93466   -305.10342            0    9374.0855    24.984225    24.846486    23.107579            0            0            0    14344.496    7648.1924    10475.813    9998.2511   -193.52337    974.99704   -3521.6586 
   10500     284.0824   -302.12148   -231.65478   -302.12148            0     4529.897    24.937483    24.928084    23.143647            0            0            0    14387.102    6431.2728    6661.3046    497.11382    413.60118   -608.31449    -1485.509 
   11000    269.66747   -301.77285   -234.88178   -301.77285            0     8028.121    24.799648    25.009212    22.902857            0            0            0    14204.802    9780.2892    4664.0603    9640.0136   -737.79791   -1678.6933    1360.5908 
   11500    279.84567   -307.07612   -237.66034   -307.07612            0    6145.2551    25.058577    25.096789    22.894214            0            0            0    14397.938    4846.2911    6877.2013    6712.2729   -496.16324   -1570.0922   -590.34342 
   12000    279.63622   -304.19022   -234.82639   -304.19022            0    9472.6858    24.973829    24.774552    22.930986            0            0            0    14187.755    10023.668    10774.853    7619.5367    1664.0236   -235.21049   -2031.5529 
   12500     277.4139   -303.93935   -235.12677   -303.93935            0    5213.5764    24.950668    24.896018     23.18521            0            0            0     14402.01     5473.574    6686.4438    3480.7114   -1285.2284    1359.3064    77.024179 
   13000    281.94941   -303.80471   -233.86709   -303.80471            0    5894.8831    24.803187     24.95598    23.087059            0            0            0    14290.609    5035.5103    6426.6737    6222.4654    626.36058   -1093.4715     426.2771 
   13500    268.71118   -304.02482   -237.37096   -304.02482            0    7541.4917    24.865618    24.982053    22.940822            0            0            0    14250.705    11575.425    4342.2994    6706.7503   -1091.8982     85.77873    325.02938 
   14000    273.49538   -306.91352   -239.07293   -306.91352            0    5506.6235    25.076795    24.923818    22.960716            0            0            0    14350.665    3670.4238    5865.8103    6983.6365   -390.32215   -708.26736    135.16443 
   14500    267.55649   -306.57825    -240.2108   -306.57825            0    8882.4526    24.932713    24.852555    22.929114            0            0            0    14207.833    6411.4772    10053.009    10182.872    440.61255    4471.7241   -2529.2244 
   15000    269.09114   -303.67652    -236.9284   -303.67652            0    4385.3997    24.890477    24.958015    23.027194            0            0            0    14304.882    5634.4979    4276.2847    3245.4165   -1128.8906    -2058.657    403.37234 
   15500    278.44821   -306.25581   -237.18667   -306.25581            0    6816.6651    24.879373    24.954764    23.047912            0            0            0    14309.501    7586.6547    7514.5066    5348.8339   -976.75216   -2220.1166     2157.241 
   16000    281.66773   -305.18909   -235.32135   -305.18909            0    7797.3194    24.886117    24.862832    22.999473            0            0            0    14230.679    7675.6176    9876.7313    5839.6095     -669.211   -295.33442    1032.1551 
   16500    277.34755   -305.59155   -236.79543   -305.59155            0    7657.7262    25.045271    24.969489    22.968173            0            0            0    14363.552    5502.0867    11295.084    6176.0078   -207.67314   -1891.2699     1759.595 
   17000    281.41696   -306.70714    -236.9016   -306.70714            0    7579.8781    24.960414    24.908929    22.866921            0            0            0    14217.216    9038.5674     5976.369    7724.6977    1742.7911   -861.95154    578.10001 
   17500    271.33702   -304.32548   -237.02027   -304.32548            0    4053.2559    24.920666    25.005444    23.067423            0            0            0    14374.518    3126.0856    4492.7481    4540.9339    472.71027    892.44056     -507.641 
   18000    262.89625   -304.11429   -238.90282   -304.11429            0     8463.625    24.784683    24.867745    23.092676            0            0            0    14232.921    9542.9308    8125.1457    7722.7984   -1552.8565    2450.7524    1465.6487 
   18500    269.30422   -305.59628   -238.79531   -305.59628            0    5191.9813    24.927469    24.892926    23.007553            0            0            0    14276.592    7269.9142    4295.7752    4010.2545    69.946852   -1558.6392    -298.4577 
   19000     275.2658   -305.59709   -237.31735   -305.59709            0    4881.8941    25.086752    25.006314    22.815936            0            0            0    14313.057    4023.9473     3884.666    6737.0691     551.2784    -89.36313   -335.36394 
   19500    274.03448   -304.83396   -236.85965   -304.83396            0    8407.0532    24.958424    24.963885     22.73682            0            0            0    14166.385      7426.55    10113.955    7680.6548   -755.87594   -889.47656   -1702.1156 
   20000    266.27399   -305.39181   -239.34249   -305.39181            0    5399.9852    24.861936    24.991524    23.121398            0            0            0    14366.195    6263.4139    6041.5479     3894.994    103.37509    600.98172    1249.0555 
   20500    276.62175   -306.87351   -238.25743   -306.87351            0    9171.7238    24.709428    24.772801    23.157461            0            0            0    14175.186    10003.214    10328.107    7183.8502   -2109.5583   -1406.7414   -53.803045 
   21000    272.37011   -306.66932   -239.10785   -306.66932            0     5829.628    24.947642    24.884758    23.035764            0            0            0    14300.972    7324.6728    7170.3482     2993.863   -1692.5894    2829.9567    853.21144 
   21500    268.15797   -307.26907   -240.75242   -307.26907            0     5507.893    24.983569     24.93213    22.873466            0            0            0    14247.735     6565.412    4359.1796    5599.0873   -751.66282    1838.5855    496.20458 
   22000    278.33249   -306.62882   -237.58839   -306.62882            0    8717.0572    24.876386    24.929161    22.933711            0            0            0    14222.282    6455.8462    10376.903    9318.4224   -1850.0766    -45.24247    698.76417 
   22500    267.31845   -303.17518   -236.86678   -303.17518            0    3144.4399    24.880466    24.952958     23.04278            0            0            0    14305.907    2381.9911    5650.5459    1400.7827   -1404.4772    445.14871    600.25167 
   23000    271.27296   -307.72027   -240.43095   -307.72027            0    6043.4205    24.928061    24.821212    22.978467            0            0            0    14217.804    5016.4102    7720.3042    5393.5469    524.62714    -1317.678   -1121.7473 
   23500    272.61016   -305.83344   -238.21243   -305.83344            0     8825.452    25.040321    24.866392    22.955555            0            0            0    14293.562    8771.0039    8401.9567    9303.3954     -398.821   -172.14148    3330.8109 
   24000    269.39125    -301.0554   -234.23284    -301.0554            0    8086.4868     24.89808    24.995253    22.926419            0            0            0    14267.885    9567.4632    7005.9725    7686.0248   -1036.1286   -1180.6453   -678.20872 
   24500    276.58695   -306.17043   -237.56298   -306.17043            0    7492.7231     24.84314     24.95835    23.038776            0            0            0     14285.05    7930.6491    7497.8045    7049.7158    276.70104   -534.60804    660.37714 
   25000    277.92698   -302.48365    -233.5438   -302.48365            0    9080.5246    24.920047    24.841923    23.107941            0            0            0    14305.246    11139.834    8220.8222    7880.9181   -633.33665   -467.24097    891.36083 
   25500    279.49391   -304.13113    -234.8026   -304.13113            0    7601.6918    25.008718    24.881957    22.971017            0            0            0     14294.08    8121.8479    6134.8734     8548.354    -1948.311   -697.65434   -2884.1481 
   26000    284.71047   -303.26118   -232.63869   -303.26118            0    6646.8753    25.012149     25.07077    22.812272            0            0            0    14304.979    4669.8303    8791.7588    6479.0369   -662.93165    1099.6672    1995.8847 
   26500    267.23495   -303.50832   -237.22063   -303.50832            0    7575.8411    24.873086    25.080348    22.852031            0            0            0    14255.683    8943.9702    6997.5538    6785.9995    824.81488   -79.299325    608.14574 
   27000    275.41001   -304.40748   -236.09197   -304.40748            0      6655.97    24.883163    24.788811    23.149769            0            0            0    14279.334    4639.1634    9913.9685     5414.778   -1281.0812     591.8967    1369.4235 
   27500    271.14952   -304.30037   -237.04168   -304.30037            0    5556.1136     24.89479    24.771684    23.240635            0            0            0    14332.171    3734.5387    6607.8438    6325.9583    2345.7653    95.192359   -486.42691 
   28000    270.13346   -304.94772   -237.94105   -304.94772            0    7624.0276    24.838859    24.956053    22.951993            0            0            0    14227.478    6655.7246    6725.6859    9490.6722   -1145.9492   -1320.3712    864.46143 
   28500    281.24812   -306.50166     -236.738   -306.50166            0    6175.4816    24.960122    25.065082    22.850683            0            0            0    14296.016    4666.5746    5307.2101    8552.6601    1147.5934    260.64908    -1017.716 
   29000    275.53122     -305.995   -237.64942     -305.995            0    6919.3748    25.001301    24.913221    22.897643            0            0            0    14262.093    6531.7633    6752.8623    7473.4986     643.5848   -1128.0169   -925.51319 
   29500    274.36758   -303.29167   -235.23474   -303.29167            0    8882.9199    24.940963     24.88029    22.995656            0            0            0    14269.688    11055.832     8508.934     7083.994    219.79904   -486.64873    2176.8042 
   30000     281.9458   -302.21409   -232.27738   -302.21409            0    6020.8126    24.895808    24.955715    23.097694            0            0            0    14350.428    8720.9943     5283.145    4058.2983    380.75406    485.00152   -781.06487 
   30500    275.77929   -302.67356   -234.26644   -302.67356            0     6732.235    24.855552    24.949779    23.072379            0            0            0    14308.117    6404.8505    7574.9847    6216.8698    230.30804    25.743004   -481.40823 
   31000    275.45428   -302.23964   -233.91315   -302.23964            0    7600.4093    24.954503    24.902688    22.985293            0            0            0    14283.847    8461.6701    7190.2453    7149.3124    117.85819    1717.6712   -1325.7723 
   31500    277.01438   -303.97611   -235.26263   -303.97611            0    5490.5759    25.032992    24.904306    22.939118            0            0            0    14300.918    3895.5118    7643.4064    4932.8095   -99.469767   -667.63668   -353.33921 
   32000    273.91819   -304.79549   -236.85002   -304.79549            0    6277.2965    24.870574    24.934169    22.958402            0            0            0    14237.127    6917.6152    4778.3804    7135.8939   -224.97481   -1796.4547    1324.1271 
   32500     281.1695   -305.01413   -235.26998   -305.01413            0    6016.4851     24.82489    25.000948    23.067986            0            0            0    14317.048    6234.4659    6822.8379    4992.1514    861.68732   -1359.5409   -111.95364 
   33000    280.93776   -305.01634   -235.32967   -305.01634            0    10107.197    24.943033    24.926922    23.007437            0            0            0    14304.944    10272.615    10219.662    9829.3131    -1288.435    459.11806    1718.1128 
   33500    267.31244   -304.75432   -238.44741   -304.75432            0    8176.8481    25.054665    24.790473     22.87692            0            0            0    14209.244    4341.2985     11507.31    8681.9355    1189.2615    2304.7002    980.45537 
   34000    273.35459   -307.42821   -239.62254   -307.42821            0    6147.0974    24.991394     25.03392    22.940317            0            0            0    14352.209    7496.1108    4040.0308    6905.1506   -442.49807   -843.80149    169.29042 
   34500    272.69095    -307.5479   -239.90684    -307.5479            0    8618.4293    24.732627    24.947377    22.940504            0            0            0    14154.616    6210.9246    10664.893      8979.47   -86.169191    1211.3434    127.62842 
   35000    265.56318   -307.23023   -241.35723   -307.23023            0    6396.5531    24.915904    24.931519    23.046258            0            0            0    14316.136    6276.0156    6425.2077    6488.4361       1081.6    -2462.865    1601.3192 
   35500     278.5121   -306.60915   -237.52416   -306.60915            0    5505.4783    25.017758    24.830409    22.960722            0            0            0    14263.227     1743.496    5452.6462    9320.2927   -284.81154   -2578.7626    828.21241 
   36000    277.94183   -308.03644   -239.09291   -308.03644            0    7189.5366    24.998774    24.939915    22.867362            0            0            0    14257.052    6465.5981    9644.3387    5458.6729    97.882817   -737.83337    454.15853 
   36500    270.86472   -305.77158   -238.58353   -305.77158            0     7891.684     24.86331     25.05253    22.904655            0            0            0    14267.054    11847.141    3056.6764    8771.2345    241.40713    687.22691    11.618861 
   37000    272.66987   -306.41655   -238.78073   -306.41655            0    6525.6131    24.823941    24.877394    23.038824            0            0            0    14227.741    6644.3902    7152.1392      5780.31   -743.02572    914.48328    935.81188 
   37500     275.6963    -307.2567   -238.87017    -307.2567            0    5942.8714    24.996334    24.778307    23.109575            0            0            0    14313.305     6421.426    4397.5432    7009.6451    429.81313   -1137.5358    1819.1024 
   38000     277.8593   -304.28458   -235.36152   -304.28458            0    8692.9144    25.009405    24.832859     22.94251            0            0            0    14248.561    8649.8915    7351.8521        10077    749.11678   -322.20639    1614.0005 
   38500    275.19103   -304.35772   -236.09653   -304.35772            0    4241.1668    24.974768    25.068688    22.868729            0            0            0     14317.76    5380.2962    3966.0842      3377.12    95.284593   -2221.5459   -259.48227 
   39000    278.07432   -306.61732   -237.64093   -306.61732            0    6013.3991     24.80658    24.992404    22.960852            0            0            0    14235.178    5977.0279    5196.6978    6866.4714   -3672.2601   -184.44401     598.7846 
   39500    281.00442   -305.06516   -235.36196   -305.06516            0    7283.0155    24.944626    24.735778    23.165621            0            0            0    14293.761     7163.769    7560.2783    7124.9992   -1148.0965   -998.99362    1611.2141 
   40000     272.5977   -305.98536   -238.36744   -305.98536            0    6020.0523    25.004358     24.81131    23.093108            0            0            0    14326.754    5368.5868    4835.9726    7855.5976   -220.72405   -1317.7833    975.56328 
   40500    270.81594   -306.09818   -238.92223   -306.09818            0    9444.4881    24.919045    24.983389    22.838676            0            0            0    14218.497    9770.8249    9645.2072    8917.4323    341.18358    2624.6689    326.60241 
   41000    269.02153   -305.72426   -238.99341   -305.72426            0    3583.1874    24.966152    25.099128    22.893002            0            0            0    14345.411    5111.0246    2909.7156    2728.8219   -15.921679   -1480.0549   -2104.9919 
   41500    282.20517   -307.19954   -237.19849   -307.19954            0    7923.4044    24.894774    24.881925     22.93051            0            0            0    14203.844    8251.7748    8033.0537    7485.3848     67.84204    1469.4845    148.25937 
   42000    274.39523   -305.43431   -237.37051   -305.43431            0    10423.678    24.991852    24.886796    23.063429            0            0            0    14344.694     8127.539    11295.594    11847.901    -414.5446    611.13145    265.69341 
   42500    274.08522   -304.50625   -236.51935   -304.50625            0    7235.8109    24.885506    24.954747    23.007887            0            0            0    14288.163    9225.2666    7058.1909    5423.9752   -794.12078    304.41091   -940.30201 
   43000    278.02455   -304.69281   -235.72876   -304.69281            0    9126.3041      24.8621    24.977184    22.933153            0            0            0     14241.15    10738.381     8018.016    8622.5148   -810.44526    37.582436    1303.9724 
   43500    276.35643   -304.51255   -235.96228   -304.51255            0    6103.3696    24.986818    24.956736    22.987002            0            0            0    14334.452    5574.3933    7441.3849    5294.3305    -1482.472    1086.5238    1280.6742 
   44000    272.53094   -306.15557   -238.55421   -306.15557            0    8053.9067    24.897901    24.852326    22.981164            0            0            0    14220.073     10294.94    5543.1654    8323.6149    1794.5261    589.11498   -283.21049 
   44500    274.04836   -305.89802   -237.92027   -305.89802            0     9444.916    24.904133    24.935347    23.073317            0            0            0    14328.373    7405.1247    12707.957    8221.6665   -1182.6499   -1643.1605    52.278828 
   45000    277.39165   -307.47006   -238.66299   -307.47006            0    7953.2894    24.892161    24.905555    22.998416            0            0            0    14257.939    5380.3638    9702.9984    8776.5061    29.404824   -587.05616    10.087085 
   45500    271.97467   -307.33597   -239.87259   -307.33597            0    6886.3649     24.94926    24.897674    22.888147            0            0            0    14217.625    7220.9827    6833.3378    6604.7743    1498.5997   -1296.5647    1191.7649 
   46000    267.12795   -304.11912   -237.85798   -304.11912            0    3676.0567    25.015164    25.020377    22.877025            0            0            0    14318.475    4057.6551    2015.8747    4954.6402   -1322.2286   -926.36622    -1592.189 
   46500    276.09748   -305.14248   -236.65644   -305.14248            0    9706.7197    24.906972     24.90803    22.939159            0            0            0    14231.079    10010.961    10533.589    8575.6089    504.62786    1497.0645    2817.4558 
   47000    270.59631   -304.31427   -237.19279   -304.31427            0    7089.2682    24.921426    24.853605    23.163713            0            0            0    14347.309      5885.55    8864.0106    6518.2439    407.03389   -1959.8983   -1181.7159 
   47500    265.86923   -300.97948   -235.03056   -300.97948            0    8543.3177    24.874134    24.823516    23.086895            0            0            0    14255.314    5993.6074    10978.619    8657.7267    742.16713   -1211.6986    157.97986 
   48000    270.31705    -304.6649    -237.6127    -304.6649            0    5367.3965    24.961861     25.08504    22.888759            0            0            0    14332.238    8036.7432    2908.3675    5157.0788   -1013.5721    -1070.709    1494.7231 
   48500    276.38541   -305.16078   -236.60332   -305.16078            0    8244.0104    24.905714     25.02771    22.794992            0            0            0     14208.87    6897.4541    7609.2204    10225.357    1884.5345   -676.79241   -63.018173 
   49000    278.36123   -304.27772   -235.23015   -304.27772            0    7118.9017    24.972669    24.930672    23.074618            0            0            0    14365.921    7838.4902    7189.0882    6329.1267   -1824.1674    1352.0941   -383.86171 
   49500    285.45625   -301.28559    -230.4781   -301.28559            0    8366.8897    24.923074    24.817928    23.190326            0            0            0    14344.122    6488.0619    8245.3483    10367.259   -1508.1615    2318.3812    2081.2969 
   50000    280.31717   -303.44952   -233.91678   -303.44952            0    7414.3119     24.93478    24.909358    23.009342            0            0            0    14291.318    7297.3588    8177.3844    6768.1926     -558.913   -2285.6119     1902.799 
   50500    276.51466   -304.99863   -236.40911   -304.99863            0    6587.2086    25.007295    24.978678    22.860683            0            0            0    14279.907    7004.7234    5260.2531    7496.6492    1570.7526    3372.2614    438.31201 
   51000    284.27217   -304.32483   -233.81106   -304.32483            0    6726.1057    25.023545    24.935806    22.884986            0            0            0    14279.825    6139.8963    7212.3159    6826.1047   -264.73259   -689.82586    1186.5062 
   51500    275.42465   -304.53159   -236.21245   -304.53159            0    6673.6664    24.929172     24.95255    23.060168            0            0            0    14344.495    8786.7565    8227.1492    3007.0936   -357.68225    -957.0356    0.7901863 
   52000    280.39511   -308.24493   -238.69286   -308.24493            0    8368.2422    24.820974    24.867447    23.083394            0            0            0    14247.861    11794.562    6468.8641    6841.3008    -36.70019   -2725.4508    1133.8672 
   52500    284.52876   -305.71203   -235.13461   -305.71203            0    5577.3181    24.972752     24.92621    23.084182            0            0            0    14369.351    8257.9109    5015.1622    3458.8812   -177.46968    3189.1388     279.0144 
   53000    273.08207   -304.76345   -237.02538   -304.76345            0    5150.5694    25.028696    24.926986     22.87301            0            0            0    14270.241     5522.771    2975.0052    6953.9322    321.36893   -418.12888    1185.9637 
   53500    274.89004   -305.53944    -237.3529   -305.53944            0    8139.4365    24.951702    25.016723    22.819739            0            0            0    14244.306    7567.8862    8800.6521    8049.7711    1165.9979    1864.2804    778.08789 
   54000     279.2819   -304.12513   -234.84919   -304.12513            0    6487.6444    24.974912    24.991228    23.096289            0            0            0    14415.635    8021.1202    3402.0749    8039.7381    -300.4488    906.25508   -1768.9737 
   54500    275.91987   -307.51593   -239.07395   -307.51593            0    8089.6091    24.900085    24.666193    23.134307            0            0            0    14208.867    7957.1434     9145.367    7166.3169   -934.41086   -970.90677   -1755.0537 
   55000    280.57219   -307.20822   -237.61223   -307.20822            0    5401.1989    24.990901    24.874523    23.070079            0            0            0    14341.209    2475.6806     7406.818     6321.098     2312.134   -93.637506   -44.692289 
   55500    272.78134   -306.02483   -238.36135   -306.02483            0    6951.2807    24.944871    25.009604    22.878521            0            0            0    14273.025    6031.8772    5044.1749      9777.79    138.88248    2199.9087   -1935.3065 
   56000     279.5468   -304.11894   -234.77729   -304.11894            0    6022.7334    24.915363    24.979494    22.906743            0            0            0    14256.541    7899.9073    3426.8788     6741.414   -666.47088    103.96767   -524.42673 
   56500     271.7187   -304.19627   -236.79639   -304.19627            0    6983.9361    25.014851    24.862934    23.130501            0            0            0    14385.844    5766.9974    6382.1502    8802.6608    505.50876    1601.3681   -1614.2128 
   57000     271.3031   -304.64317   -237.34638   -304.64317            0    9829.1324    24.868789    24.780771    23.095068            0            0            0    14232.746    10162.971    11408.336    7916.0902   -974.87422   -74.713102   -616.17107 
   57500    278.79769   -306.83144   -237.67561   -306.83144            0    5981.1858    24.874649    25.003177    23.012827            0            0            0    14312.718     7327.421    4728.9536    5887.1827    815.59207    527.03454    1257.7966 
   58000    269.02106   -304.44966   -237.71893   -304.44966            0     8461.724    24.915656     25.04271    22.855263            0            0            0    14260.668    10326.745     5925.242    9133.1849    1549.4865    1189.8186    2811.2896 
   58500    269.68693   -302.41901   -235.52311   -302.41901            0    4313.4469    24.988058    24.923911    22.872734            0            0            0    14245.142    2099.0983    5487.1917    5354.0506    769.56159   -1089.9395    459.04459 
   59000    269.70297   -304.10315   -237.20327   -304.10315            0    4754.7938     24.98921    24.914364    23.077614            0            0            0    14367.898    6924.0762    5027.8918    2312.4134      545.005    -832.4203   -347.20306 
   59500     280.5238   -305.57196   -235.98798   -305.57196            0    9513.9533    24.839607    24.886758    22.974338            0            0            0    14202.214    7583.7895    12462.236     8495.834    346.72735    111.38092    1710.8209 
   60000    268.68605   -305.88798   -239.24035   -305.88798            0    8141.2231    24.948022    25.028802    22.953122            0            0            0    14332.368    6609.0613    8386.0874    9428.5206   -1311.6294   -212.95746   -1740.5847 
   60500    275.45439   -305.32284   -236.99632   -305.32284            0    7569.0566    25.012213    24.976774    22.886103            0            0            0    14297.507    8299.4476     7663.243    6744.4791   -24.843711    2192.4322      1554.66 
   61000    273.85461   -305.85713   -237.92744   -305.85713            0    7068.0824    24.912088    24.803205    22.998433            0            0            0    14210.723    7195.5362    7696.7641    6311.9469   -234.89779    -83.91829    1409.1662 
   61500     279.3213   -304.92016   -235.63445   -304.92016            0    6666.4009    24.909693    24.935412    23.187292            0            0            0    14402.402    8414.3625    5120.8163    6464.0238    1479.2832   -28.157307   -123.71645 
   62000    283.71509   -305.27809    -234.9025   -305.27809            0    8234.4613    24.771634    24.910678    23.009166            0            0            0    14198.455    8359.3546    7208.0393    9135.9899    125.39438   -3212.3056   -168.82356 
   62500    272.77983   -305.27454   -237.61145   -305.27454            0    6793.4724    24.991281     25.04498    22.908478            0            0            0    14338.557    7542.3272    5869.9882    6968.1017    2.8930088    694.01319     1934.298 
   63000    283.83667   -302.95478   -232.54904   -302.95478            0    7512.4992    24.981229     24.96583    22.885763            0            0            0    14273.327     8098.324    6847.6806    7591.4931   -33.059254     348.8744   -1427.6481 
   63500    271.83796   -305.43321   -238.00374   -305.43321            0    8068.5381    24.883822    24.937761    22.996312            0            0            0    14270.288    8504.6398    9229.1813     6471.793    1636.9107   -1756.1669    2556.8655 
   64000    275.93712   -303.10406   -234.65779   -303.10406            0    7943.5719    24.894774    24.921842    23.099692            0            0            0    14331.594    10046.796    7967.6225    5816.2976    671.89441    2335.3546    1659.0791 
   64500    273.09213   -305.76131   -238.02075   -305.76131            0    7434.4164    24.955284    24.896216    23.005133            0            0            0    14292.908    7279.6236    7371.2752    7652.3505   -642.40198    146.91033   -648.95174 
   65000    269.07166   -307.04238    -240.2991   -307.04238            0    7290.4942    24.959794    24.873462    22.887937            0            0            0    14209.667    7438.5097    7860.3201    6572.6528   -1406.0321    711.40621    1370.0642 
   65500    273.85488   -306.76157    -238.8318   -306.76157            0    5089.6171    24.989576     24.97224     22.98186            0            0            0     14341.73    5414.6064    4934.5794    4919.6654    663.30305   -926.61941    1196.2383 
   66000    280.26197   -302.73457   -233.21552   -302.73457            0    10003.905    24.869037    24.903898    22.966231            0            0            0    14223.812     8689.539    9839.1104    11483.065    330.54087    -17.64934    211.18018 
   66500    281.70247    -304.8982   -235.02184    -304.8982            0    5533.2846    24.947709    24.995178    22.981642            0            0            0    14330.718    2716.5104    5434.7923    8448.5513    630.79774     2565.849   -2517.0812 
   67000    272.51587    -305.2689   -237.67127    -305.2689            0    6086.4665    24.997854    24.922748    22.918678            0            0            0    14278.685    4520.8814    6424.1171    7314.4008   -419.41564   -3334.1926   -1709.1986 
   67500    272.39695   -305.68434   -238.11622   -305.68434            0    8702.0999    24.965476    24.823174    22.925435            0            0            0    14207.405    8701.0565    10264.039     7141.204   -857.11427     1464.658    1741.4039 
   68000    269.67253   -305.88699   -238.99466   -305.88699            0    6897.8501    24.988627    24.999089     23.12319            0            0            0    14444.893    8464.8675    4949.9474    7278.7354   -1428.8589   -343.30183   -1576.1019 
   68500    277.57401   -304.62305   -235.77076   -304.62305            0    7782.3173    24.672111    24.924656    22.967386            0            0            0    14123.653    8927.2195    8912.0789    5507.6535    1830.6231     450.3098    1615.5518 
   69000    267.38982    -306.4708   -240.14469    -306.4708            0    7321.1527    24.970524    25.050141    23.015067            0            0            0    14396.273    5033.1356    7867.5978    9062.7246   -828.27097   -1132.2826   -658.13139 
   69500    274.45327   -306.87029    -238.7921   -306.87029            0    7035.5946    24.937037    24.841301    22.885391            0            0            0    14176.777    5389.3772    6060.2836    9657.1232    220.08571   -1249.9909    305.04494 
   70000    272.78827   -306.46398   -238.79879   -306.46398            0    8866.3219    24.981937    24.916886    22.976614            0            0            0    14302.301    6974.7143      11591.5     8032.751    227.96798     1041.753    332.74693 
   70500    266.29593   -303.65395   -237.59919   -303.65395            0    7594.8894    24.917282     24.94979    23.016274            0            0            0    14308.779    10749.915    6282.4895    5752.2636   -1977.8593   -1420.6669   -187.58925 
   71000    269.53812   -306.35051   -239.49152   -306.35051            0    6963.5226    24.867734    24.915956    22.908704            0            0            0     14194.31     5614.477    7335.2458    7940.8451   -924.24419    1087.0599    1496.2705 
   71500    274.56098   -306.12032    -238.0154   -306.12032            0     7073.185    25.013145    24.962812     23.00159            0            0            0    14362.157    7408.7092    7205.8357    6605.0101    439.68649    1898.7533   -1337.1254 
   72000    285.28256   -303.75669   -232.99229   -303.75669            0    9571.7159    24.920815    24.881242    23.002697            0            0            0    14263.071    7679.0283    10172.644    10863.476    238.39254   -1965.3352   -1114.9131 
   72500     272.7175    -305.1119   -237.46427    -305.1119            0    6430.8667    24.974411    24.992903    23.038115            0            0            0    14380.001    10841.563    4020.3687    4430.6689    74.532171    2384.3474    159.27563 
   73000    273.39082   -305.60389   -237.78924   -305.60389            0    7560.8199    24.981773    24.963609    22.845694            0            0            0    14247.379    5634.8998    6526.8394     10520.72     2890.226   -236.09611    2456.8415 
   73500    277.97143   -304.77079   -235.81992   -304.77079            0    8557.4791     24.95323    24.958062    22.908508            0            0            0    14267.059    8621.3082    9534.8905    7516.2387   -1641.1148   -958.90799   -374.39872 
   74000    270.26591   -303.91408   -236.87456   -303.91408            0    7709.1379     24.91625    24.977623    23.150441            0            0            0    14407.647    8010.9852    5431.8529    9684.5757   -755.56853   -1598.8714    644.47369 
   74500     280.1171   -306.08289   -236.59978   -306.08289            0    9677.0402    24.707207    24.804955    23.082807            0            0            0    14146.556    9200.3385     10979.48    8851.3024   -548.29171   -1750.7799    1803.8538 
   75000    278.38963    -305.7182   -236.66359    -305.7182            0    4945.0026    25.051834    25.035664    23.077337            0            0            0    14473.858    1696.1838    6371.7968    6767.0272    279.83126   -419.67101    553.02643 
   75500    280.27011   -305.63361   -236.11255   -305.63361            0    8880.2229    24.989505     24.92403    22.837899            0            0            0    14224.338    5287.0668    10412.871    10940.731   -2324.9123   -1433.5365    2434.3699 
   76000    273.41555   -305.33945   -237.51867   -305.33945            0    6465.5575     24.94096    24.970862     22.92546            0            0            0    14277.915    5677.4882    7638.3588    6080.8255    1831.9669    505.81908   -2080.5669 
   76500    262.06624   -307.30386   -242.29828   -307.30386            0     6734.129    24.930272    24.980391     23.04456            0            0            0    14351.413    6777.1949    6826.5625    6598.6296   -198.53758     653.5694   -434.41837 
   77000    266.11741   -308.06171   -242.05123   -308.06171            0    7572.0329    24.845677    24.821525    22.954762            0            0            0    14156.376    10110.935    7176.0024    5429.1612    1650.3029    1068.4423   -912.77551 
   77500    266.47099   -305.23486   -239.13667   -305.23486            0    5529.5569    24.995748    25.015698    22.995837            0            0            0    14378.976    3880.6482     7268.805    5439.2173    200.21573    669.25803   -1361.7644 
   78000     283.7743   -303.85082   -233.46054   -303.85082            0    7670.0921    24.931857    25.030763    22.874374            0            0            0    14275.059     8138.647    6304.5834    8567.0459   -710.59486   -590.41641    -830.6453 
   78500    278.64998   -307.26117   -238.14198   -307.26117            0    7234.5692    24.966811    24.968463     22.86258            0            0            0    14252.141    6116.8992    6932.6539    8654.1545   -182.67666   -953.88425    19.416814 
   79000    268.37005   -306.07857   -239.50932   -306.07857            0    3745.6577    24.977021    24.923063    23.073784            0            0            0    14363.519    4629.1207    5458.4867    1149.3658    1231.0613    457.02077    1878.2985 
   79500    273.96806   -304.55938   -236.60154   -304.55938            0    8528.0544    24.836693     24.80285    23.065964            0            0            0    14209.113    6104.6157    11661.085    7818.4623   -1570.4174   -143.56336       1048.9 
   80000    278.72891   -306.23284   -237.09407   -306.23284            0    5724.2262    24.966762    25.012395    23.084927            0            0            0    14416.041     7405.158    5038.8076     4728.713   -289.36888   -224.16378   -1104.8689 
   80500    277.88576   -305.89513   -236.96551   -305.89513            0    9086.6086    24.908444    24.963957    22.877456            0            0            0    14225.507    10343.144    7213.7526    9702.9286   -37.974545    382.37413    3162.7971 
   81000    273.19295   -305.71306   -237.94749   -305.71306            0    6759.6431    25.019903    24.933688    22.931678            0            0            0    14305.662    7824.6274    5411.1062    7043.1956   -981.06287    233.39283    764.75985 
   81500    268.12869   -305.12784   -238.61846   -305.12784            0    8077.2202    24.996284    24.852445    23.023384            0            0            0    14302.558    6483.5228    9791.6716    7956.4661    580.92565    533.83688    1524.2681 
   82000    280.99167   -307.07465    -237.3746   -307.07465            0    6418.4726    24.835942     24.97464    22.996439            0            0            0    14263.972    9006.1755    3276.2161    6973.0262   -2161.8527    1833.0095   -2633.8037 
   82500    277.56254   -302.51724    -233.6678   -302.51724            0    8333.6645    24.916059    25.100688    22.967901            0            0            0     14364.36    9988.6536    5295.7789     9716.561    370.79996    884.28113   -23.162643 
   83000    272.92895   -303.39992   -235.69983   -303.39992            0    7455.0178    24.977623    24.979614    22.880992            0            0            0    14276.169    6622.3396    9337.1862    6405.5276     1877.883   -153.87104    -1719.703 
   83500    273.35542   -304.51131   -236.70544   -304.51131            0    7044.6946    25.026334    24.856518    23.007302            0            0            0    14312.096    9231.9543    5609.9346    6292.1949   -952.26002    421.67599   -1300.4342 
   84000    281.07772   -303.03151   -233.31012   -303.03151            0    8607.1315    24.913064    24.884126    23.119062            0            0            0    14332.428    6843.0181     11358.52     7619.856    701.09202   -229.74253    248.35676 
   84500    271.99061    -304.6062   -237.13887    -304.6062            0    9390.0718    24.787631    24.964822    23.090216            0            0            0    14288.659    8260.2669     9101.193    10808.756   -332.30883   -1960.7779   -748.13154 
   85000    273.34377   -305.70233   -237.89934   -305.70233            0    7152.8157    24.954662     25.02265    22.899331            0            0            0     14299.07    8105.7065      5889.19    7463.5504    6.7096599    1798.9322     571.8158 
   85500    275.89521   -303.33791   -234.90204   -303.33791            0    7212.6378    25.149171    24.908348    22.764937            0            0            0    14260.509    6361.8932    4007.1799     11268.84   -1682.4027    1825.3123    1339.3531 
   86000    278.46883   -305.57268   -236.49843   -305.57268            0    8014.0746    25.011305    24.922865    23.005949            0            0            0    14340.836    4820.8271    9001.1992    10220.198     387.8847    990.76143   -604.69543 
   86500      275.432   -306.89916   -238.57819   -306.89916            0    5449.8701    24.744285    24.876582     23.12152            0            0            0    14232.526     3086.555    6078.3511    7184.7041    1647.8609    98.237174    68.336908 
   87000    276.32767   -306.89412   -238.35098   -306.89412            0    7366.9628    24.845441     24.90889    23.069748            0            0            0    14277.229    5166.8747    11248.996    5685.0177   -1398.3025    427.79441   -1458.8182 
   87500    272.42722   -305.02886   -237.45323   -305.02886            0    8079.6397    25.029814    24.908591    22.916652            0            0            0    14287.556    7198.5049    11281.904    5758.5106     634.2959    1637.1301   -109.13307 
   88000    274.06781     -302.855   -234.87242     -302.855            0    4457.5317    24.997634     24.95166    22.922113            0            0            0    14297.266    5740.7716    5021.4056     2610.418    1203.1913    1247.9389   -1114.0745 
   88500    268.94359   -304.01339   -237.30187   -304.01339            0    8402.3006    24.873043    24.979033    23.004525            0            0            0    14292.816    10037.204    7920.3574    7249.3405   -91.611546   -336.76192    695.03455 
   89000     262.9387   -306.59435   -241.37235   -306.59435            0    8550.0758    24.810467    24.940922    23.024822            0            0            0    14247.666     8470.339    9451.9883       7727.9    343.50453   -1721.8339    -786.9765 
   89500    265.82171   -307.41372   -241.47659   -307.41372            0     6640.153    24.996139    24.864958    22.985172            0            0            0    14285.927    8071.3294    4626.7946    7222.3351    1423.6314   -965.36647   -435.64458 
   90000    279.15313   -310.29849   -241.05449   -310.29849            0      7376.23    25.024656    24.929135    22.853394            0            0            0     14256.93     5827.707    8108.8606    8192.1223    1111.8157   -285.49981    1158.7235 
   90500    269.16151   -303.48738   -236.72181   -303.48738            0    7795.2033    24.872804    25.076667    22.905596            0            0            0    14286.839    9990.1339    5524.2384    7871.2377    502.82808   -1242.8463    -648.6168 
   91000    269.51226   -304.59607   -237.74349   -304.59607            0    7865.2347    24.865339    24.999723    23.117165            0            0            0    14370.244    6542.0576    9471.0842    7582.5624     1989.969    1208.7143   -926.52849 
   91500    270.83082   -305.99885   -238.81921   -305.99885            0    8127.1295    24.868023    24.804422    23.058916            0            0            0    14223.591    9935.8718    7447.9076    6997.6092   -1497.7464   -1212.1803   -83.284102 
   92000    270.64345   -305.61371   -238.48054   -305.61371            0    5567.6253    25.073741    24.928301     22.91682            0            0            0    14324.061   -44.868963    7413.3318    9334.4131    840.40335    2484.0192    225.63664 
   92500    271.86254   -303.81781   -236.38225   -303.81781            0    7793.3895    24.975223    25.107737    22.866758            0            0            0    14339.089    6990.4887    6623.6693    9766.0106   -271.36828   -1010.8006   -786.54854 
   93000    279.39556    -305.4922   -236.18807    -305.4922            0    5516.0302     24.79912    24.999059    22.931589            0            0            0    14216.546    6165.5174    5931.6433    4450.9299    -217.9543   -986.83049   -660.02608 
   93500    266.16168   -304.90781   -238.88635   -304.90781            0    5686.0713    25.010771       24.827    23.150753            0            0            0    14375.284    4477.5819    7308.1965    5272.4355    479.47114    659.85273   -1319.3901 
   94000    269.91916   -304.59205   -237.63855   -304.59205            0     7704.555    24.989497    24.755497    22.999475            0            0            0    14228.106    9808.0478    6013.2444     7292.373   -955.31127    112.43499    1209.1352 
   94500    274.74271   -306.84737   -238.69738   -306.84737            0    5083.4699    24.897594    25.005912    22.926756            0            0            0    14273.902    6346.8505    2446.6783    6456.8809   -1218.1636   -725.84186   -1030.4251 
   95000    267.21983   -305.65616   -239.37222   -305.65616            0    2359.7862    24.849792    25.103752    22.936259            0            0            0    14308.166    6007.7124    843.81689    227.82929    167.94395    942.99206   -872.97225 
   95500    273.37935   -305.27526   -237.46346   -305.27526            0    11883.417    24.934308    24.877102    23.012902            0            0            0    14274.749    11742.363    11557.307     12350.58    1526.7576   -642.23634   -416.16852 
   96000    271.80906    -305.0229   -237.60061    -305.0229            0    7133.1448    25.034967    24.824469     23.11916            0            0            0     14368.09    4219.0408     11078.16    6102.2336   -1288.6606    1383.4462    343.01684 
   96500    274.39845   -305.55755   -237.49295   -305.55755            0    5963.7617     24.89543    24.937874    22.980572            0            0            0    14267.238    5621.0539    6895.5116    5374.7197    28.761997   -805.65475    1871.0267 
   97000    273.98628   -305.67985   -237.71749   -305.67985            0     4547.923    24.933866     25.05252    22.920867            0            0            0    14317.661    6172.7286    3919.9457    3551.0946    1449.8225    1632.8441    1556.2821 
   97500    273.58402   -305.14579   -237.28321   -305.14579            0    8024.4066    24.968802    24.945391    22.962873            0            0            0    14302.576    5991.8405    9530.9414    8550.4378   -1142.8424   -298.07029    414.82707 
   98000    274.87297    -306.3694    -238.1871    -306.3694            0    8239.7126    24.887348    24.836897    23.062869            0            0            0    14255.724     10956.27    4577.6424     9185.225    625.35256   -376.17759   -1687.6248 
   98500    266.41424    -305.5468   -239.46269    -305.5468            0    5423.7899    24.899317    24.888988      23.1274            0            0            0    14332.485    5678.0786    7415.2598    3178.0314   -31.091716     351.2036   -309.05947 
   99000    277.26443   -305.98353   -237.20803   -305.98353            0    7472.9614    24.834643    24.964239    22.903251            0            0            0    14199.511    5387.0472    7197.9972    9833.8398   -255.11025    688.93446   -2061.9692 
   99500    284.73017   -304.73948    -234.1121   -304.73948            0    6588.0821    25.115719    25.104268    22.862266            0            0            0    14414.928    5805.1011    6223.6055    7735.5399   -1304.1666   -841.59183    2182.7381 
  100000     277.1848   -304.87953   -236.12378   -304.87953            0    6621.0825    25.032109    24.851212    22.943216            0            0            0    14272.475    7381.3649     8236.528    4245.3544    1485.7079    238.22336    18.798165 
  100500    271.45207   -304.70837   -237.37463   -304.70837            0    5276.9572    24.919547    24.772443    23.138649            0            0            0    14283.906    3035.2991    6288.4987    6507.0739   -914.66734   -825.39365   -1469.8815 
  101000    278.01636   -306.01075   -237.04873   -306.01075            0    5454.2055    24.877708    24.982116    23.147216            0            0            0    14385.944    4712.1294     5310.653    6339.8341   -1483.7363   -1347.9541   -5047.9111 
  101500    277.63258   -305.48133   -236.61451   -305.48133            0    9488.0539    24.861557    24.987584    22.922775            0            0            0    14240.321    10843.173    5445.8983    12175.091    2.6797861    950.85523   -448.70211 
  102000    276.10713   -304.00006   -235.51162   -304.00006            0    3780.4836    25.021382    24.960456    22.947481            0            0            0    14331.737     872.0801    6677.5121    3791.8587    -2303.007     1671.329   -576.46967 
  102500    269.72641   -305.69189    -238.7862   -305.69189            0    9950.9323    24.964582     24.88152    22.950436            0            0            0    14255.819    10804.509    7223.5219    11824.766    227.65068   -90.125535    573.71095 
  103000    265.47579   -305.31367   -239.46234   -305.31367            0    7984.3488    24.905425    24.965515    23.013684            0            0            0    14309.374    7283.3512    4906.6202    11763.075   -626.21004    139.28183   -2366.9206 
  103500    267.81923   -304.72988   -238.29726   -304.72988            0    6770.3763    24.818981    24.964637    23.067017            0            0            0    14292.252    6746.6073    4855.9034     8708.618    1527.9585    -634.6181   -2338.9069 
  104000    273.13886   -305.11383   -237.36168   -305.11383            0    8864.6296    24.874627     24.92797    23.046266            0            0            0    14290.389    11391.669    6934.3883    8267.8314     2000.236    775.85729   -922.73229 
  104500    271.00058   -305.75039   -238.52864   -305.75039            0    7290.7882    25.021369    24.963673    22.942062            0            0            0    14330.192    4940.1786    6314.2093    10617.977   -2034.5229    265.45349   -449.37087 
  105000    276.43628   -303.88757   -235.31749   -303.88757            0    6725.0711    24.920538    24.975004    22.871436            0            0            0    14234.965    4928.8251    8716.9752    6529.4131   -1321.7761    458.80795    2372.4858 
  105500     280.9838   -303.90616   -234.20807   -303.90616            0    7296.0192    24.916033    25.033215    23.046611            0            0            0    14374.826    7762.9962    5700.0161    8425.0454    -2969.965   -130.41872   -90.714998 
  106000     272.7164   -304.02964   -236.38228   -304.02964            0    8913.9008    24.902297    24.832613    23.088817            0            0            0    14277.872    11647.984    9563.6748     5530.044    842.12476   -376.11814    584.45971 
  106500    278.81525   -304.29957   -235.13939   -304.29957            0    6287.1516    25.079859    24.849789    23.047826            0            0            0    14364.079     5362.046    7522.5798    5976.8289   -1258.9168    2681.8826    1240.3617 
  107000    274.67673   -304.78955   -236.65593   -304.78955            0    7766.7914    24.973397    25.053251    22.849509            0            0            0    14296.133    11144.758    3995.0485    8160.5672    94.272734    517.59603    2369.5891 
  107500    283.06152   -304.89824   -234.68477   -304.89824            0    6804.3488    24.875846    25.083425    22.822489            0            0            0    14240.581    5089.5159    6700.1239    8623.4067   -699.49206    4262.6848   -940.36326 
  108000    277.21835   -304.14732   -235.38325   -304.14732            0     6125.671    25.028963     24.89896    23.097086            0            0            0    14393.992    4006.6251    7365.0821    7005.3056    131.34764   -786.42717   -223.48821 
  108500     280.8735   -305.49044   -235.81971   -305.49044            0    6735.2671    24.938895    24.780349    23.095595            0            0            0    14272.951    7243.7204    10792.478    2169.6031    1195.6289   -819.42557    191.92444 
  109000    269.49931   -304.45948   -237.61012   -304.45948            0    9221.6067    24.900667    24.990515    22.984915            0            0            0    14303.064    9659.0876    9248.2045    8757.5279    939.63226   -439.43785   -531.75293 
  109500    270.96674   -303.79915   -236.58579   -303.79915            0    8652.9497    24.939598     25.08762    22.875565            0            0            0    14312.673    9316.3347    8435.5701    8206.9444   -196.09729    884.24259    364.07784 
  110000    278.82761   -305.90065    -236.7374   -305.90065            0    4309.1004    24.992357    24.921965     22.88405            0            0            0    14253.529    4721.8226    2198.3369    6007.1417    794.08627   -3142.8239   -1937.2659 
  110500    272.18406   -306.97138   -239.45606   -306.97138            0    4331.9182    24.980176    24.908227    22.992377            0            0            0     14306.13    5672.8562     1443.598    5879.3003   -1639.9747    1300.9048   -1550.1191 
  111000    274.19834   -305.37316    -237.3582   -305.37316            0    8227.6029    24.815962     24.95512    23.033689            0            0            0    14264.425     7332.374    6960.4368    10389.998    102.31615    482.89066    11.420047 
  111500    273.52443   -305.36616   -237.51837   -305.36616            0    8767.8616     24.90487    24.950957    22.997011            0            0            0    14290.351    7548.8457    11576.526     7178.213   -787.86659   -2362.2306   -883.02476 
  112000    268.52186   -305.45517   -238.84826   -305.45517            0    4492.2806    24.991437    24.920679    22.947783            0            0            0    14291.961    3983.5823    5182.1035    4311.1559   -1833.7237    986.41468   -7.2414984 
  112500    267.30289   -305.02825   -238.72371   -305.02825            0    8831.7938    24.929365    24.951875    22.936689            0            0            0     14267.41    7540.4521    9218.2998    9736.6295    -127.7653    -890.8426   -184.73256 
  113000    275.01944   -306.23421   -238.01558   -306.23421            0    5075.7354    24.947916    24.971062    22.944272            0            0            0     14293.73    4838.4991    4499.8505    5888.8565    -559.3004   -2711.5174    788.28517 
  113500    276.55572   -304.93382   -236.33411   -304.93382            0    7214.5733    24.979059    24.966986    22.966399            0            0            0    14323.036    7276.1675    5763.5818    8603.9706    182.95016    478.25381   -791.52387 
  114000    275.59596   -306.55576   -238.19412   -306.55576            0    8911.2107    24.941816    24.839916    22.990022            0            0            0    14243.528    9137.4119    9590.7549    8005.4652    1150.2615    319.25465   -672.74688 
  114500    279.23134    -305.1616   -235.89821    -305.1616            0    8975.6483    24.934034    24.938263    23.096867            0            0            0    14361.897    8798.8588    9588.4859    8539.6002    671.96837   -1650.5765    1210.7574 
  115000     279.3389   -304.06516   -234.77509   -304.06516            0    7924.2354    24.810688    24.983088    22.994762            0            0            0    14253.248    9646.8993    7976.7796    6149.0271   -1110.1768   -1251.9586    334.42699 
  115500    278.56396   -306.44316   -237.34531   -306.44316            0    8170.4909    24.948021    25.015021    22.909603            0            0            0    14297.317    5743.9145    9499.6505    9267.9078     555.0799   -2707.2286    460.33853 
  116000    270.52771   -307.56201   -240.45755   -307.56201            0    6990.6738     25.11027    24.898292    22.887941            0            0            0    14309.606    6366.4306    7735.0205    6870.5704    -2030.831    1100.0116   -1558.6117 
  116500    276.59148   -304.95765   -236.34907   -304.95765            0    8176.7963    24.887228    24.814023    23.001216            0            0            0    14204.453    7900.3598    7278.6596    9351.3695   -205.83067    53.453386    680.22009 
  117000    266.13232   -306.00052   -239.98634   -306.00052            0    8837.7874     24.84097    24.985582    23.173038            0            0            0    14382.719    7898.8358    11914.668    6699.8584   -1159.4704   -2138.0707   -288.75072 
  117500    267.98613   -306.02099   -239.54697   -306.02099            0    8100.7315    24.831551    24.905128    22.953077            0            0            0    14194.939    7523.2697    7020.9912    9757.9337    374.10807    1901.4444    2498.2576 
  118000    262.17374   -305.29493   -240.26268   -305.29493            0    5782.4462    25.049905    24.915964    22.910759            0            0            0    14299.579    5650.5132    6416.0181    5280.8073   -231.63518   -1475.7687     1352.033 
  118500    275.07591   -305.95269   -237.72005   -305.95269            0    10499.983    25.028314    24.904593     22.92283            0            0            0    14288.258    11201.692    9745.9752    10552.282    860.50118    695.11004    2202.8436 
  119000    274.05461   -306.20473   -238.22543   -306.20473            0     6243.947    24.833472    24.916125    23.006974            0            0            0    14235.655     6391.263     7819.713    4520.8649   -224.92843    762.31388   -2859.2728 
  119500    274.66891   -305.36131   -237.22963   -305.36131            0    4591.1903    24.887367     24.99388    23.102426            0            0            0    14370.445     7445.413    2209.4377    4118.7203   -1807.6947   -3.6932382   -2931.0365 
  120000    277.28167   -304.68235   -235.90257   -304.68235            0    9435.6486    24.939893    24.905946     22.92018            0            0            0    14236.907    6546.5131    11856.301    9904.1313   -1293.2389   -3298.4391    -580.5838 
  120500     271.4532   -304.45828   -237.12426   -304.45828            0    7373.1418    24.981964    24.921872    22.896152            0            0            0    14255.083    7418.4684    6607.4712    8093.4858    -776.0971   -399.35592    1353.3402 
  121000     268.9799   -304.88695   -238.16643   -304.88695            0    2911.5683    24.992949    24.953328    22.981292            0            0            0    14332.449     2605.113    2075.9928    4053.5993   -612.25631   -2418.7866    318.12496 
  121500    268.95771    -305.4242   -238.70919    -305.4242            0    7008.3401      24.8702    24.865824    22.987113            0            0            0    14215.645    5561.9939    8540.3309    6922.6955   -1066.1901   -1472.9407    85.405166 
  122000    275.29198   -305.31048   -237.02425   -305.31048            0    6003.1501    24.964396    24.938308    23.064793            0            0            0    14359.443    6277.9105    7857.4531    3874.0865   -680.68468    754.15281    689.60821 
  122500    281.40946   -304.97864   -235.17497   -304.97864            0    7806.8958     24.91106    24.870922    22.940729            0            0            0    14213.182    9009.0367    8852.8199    5558.8308    147.17329   -65.636736   -674.86553 
  123000    275.02929   -306.55847    -238.3374   -306.55847            0    5516.1428    25.059652    25.054012    22.901665            0            0            0    14378.691    4230.4302    3798.0221     8519.976   -1443.7916    928.48731    -1897.523 
  123500    278.38309   -305.67516   -236.62217   -305.67516            0     6132.942    24.850196    25.036807    22.882348            0            0            0      14236.7    8161.6224    2414.2346    7822.9689    1377.4305    763.35583    3231.1927 
  124000    274.47002   -305.57406   -237.49171   -305.57406            0    10000.448    24.737076    24.943794    23.102937            0            0            0    14255.356    11803.045    9631.8783    8566.4202    1275.6822    517.58988    268.00987 
  124500     277.7713   -304.63297   -235.73174   -304.63297            0    4031.9395    24.983231    24.891559    23.220238            0            0            0    14440.005    2793.1482    3496.2322     5806.438   -181.62157   -1806.7369    509.98102 
  125000     279.7823   -302.03176    -232.6317   -302.03176            0    9179.4763    25.038757    24.759178    22.897045            0            0            0    14194.772    6676.9052    11977.219     8884.305    518.72895    2358.2651   -3028.2835 
  125500    276.85089   -305.88048   -237.20756   -305.88048            0    5116.6477    25.077871    25.006751    22.872137            0            0            0    14343.485    3427.2163    4783.3648    7139.3622    -115.1775    33.935472   -272.80476 
  126000    280.38295   -304.21823   -234.66917   -304.21823            0    5477.0581    24.892518    25.049971    22.908942            0            0            0    14285.027    5466.5043    5618.3389    5346.3312   -1367.4982    302.78961    -1587.742 
  126500    275.73134   -306.91452    -238.5193   -306.91452            0    7782.8263    24.836698    24.931486    23.031772            0            0            0    14261.637    8193.0527    5234.0203     9921.406     709.7859    2060.6473    2318.7822 
  127000    276.39108   -305.31625   -236.75738   -305.31625            0    6969.4856    24.947336    24.868993    23.154792            0            0            0    14365.583     6116.813    8880.6339    5911.0099    1079.6015   -1873.8992   -1817.3402 
  127500    282.31156   -306.19939   -236.17194   -306.19939            0    8375.8155    24.959606    24.868609    22.972165            0            0            0    14259.068    10118.643    6573.9273     8434.876    916.62193   -542.20713    1359.6442 
  128000    272.51525   -305.06314   -237.46568   -305.06314            0    7972.7732      24.9802    25.032164    22.839084            0            0            0    14281.473     6343.003    6099.3863     11475.93   -1155.5997    745.89968    585.78624 
  128500    278.58678   -305.62304   -236.51953   -305.62304            0    7186.5587    24.986299     25.03647    22.915833            0            0            0    14335.428    8127.1553    5303.5897    8128.9312    1196.4836   -1390.4673   -674.56829 
  129000    265.75757   -302.48889   -236.56767   -302.48889            0     8618.077    24.913206    24.819067     23.00361            0            0            0     14223.65    8423.2226    5729.0625    11701.946   -948.77863    752.25969    1175.2584 
  129500    280.09552   -305.82631   -236.34855   -305.82631            0    6638.3698    24.954132    24.927623    23.126757            0            0            0    14385.934    5713.1975    11110.448     3091.464    1503.6912   -52.088362   -859.10984 
  130000    273.55315   -304.45464   -236.59972   -304.45464            0     7321.986    24.880533    24.979616    22.968371            0            0            0    14274.985    8527.9488    4143.9326    9294.0767   -19.378875    -613.7453    1989.2606 
  130500    279.90606   -305.66712   -236.23636   -305.66712            0    7710.6228    24.902987    25.005778    22.906667            0            0            0    14264.407    8164.7147    8414.3512    6552.8025      -480.67    574.11542   -1158.4548 
  131000    262.44536   -305.56335   -240.46372   -305.56335            0    4554.1459    25.030453      24.8611    23.006183            0            0            0    14316.394    4945.1417    4979.4037    3737.8922   -1736.4515   -2049.7357   -847.66655 
  131500    270.95568   -307.39542   -240.18481   -307.39542            0    9392.8499    24.890118    24.796982    23.031229            0            0            0     14214.87    11416.445    10601.356    6160.7486    414.39907     56.32346   -2023.4289 
  132000    270.27319   -305.95537   -238.91405   -305.95537            0    7123.1085    24.785125    25.135578    23.072885            0            0            0     14374.14    6520.0217    7964.1749    6885.1288   -624.33396   -1374.7593    1249.1457 
  132500    280.27256   -304.14295   -234.62128   -304.14295            0    8120.8985    24.794009    25.090651    22.911855            0            0            0    14253.415    11702.032    4332.3916    8328.2716    1540.4679    -2465.465    852.80333 
  133000    277.97258   -304.49899   -235.54783   -304.49899            0    5299.2837    25.145665    24.818387    22.950034            0            0            0    14322.539    5342.5815    4759.6032    5795.6664   -1041.1358    529.27276   -1441.6713 
  133500    268.64307   -304.15894   -237.52197   -304.15894            0    5922.3845    25.061991    24.781085    23.027846            0            0            0    14301.751    2371.9793    8291.6608    7103.5135     338.9302    1546.1266    723.96531 
  134000    267.47668   -305.63868   -239.29103   -305.63868            0    9246.2313    24.740147    24.967961    23.013388            0            0            0    14215.623    10855.669    9952.1569    6930.8682    1361.7728    828.55822    1734.3539 
  134500    273.51117   -304.01447   -236.16997   -304.01447            0    11388.663    24.844746    25.085836    23.021217            0            0            0    14348.001    11816.729    8614.5142    13734.745    1072.5572   -1302.3147   -280.61052 
  135000    272.34012   -307.68323    -240.1292   -307.68323            0    7763.3793    25.014705    24.902485    22.901388            0            0            0    14265.923    8073.6046    7514.6675    7701.8659   -696.46473    3102.3453    1284.2113 
  135500     269.2902   -305.20485   -238.40735   -305.20485            0    6695.3376    25.056454    24.877887    22.919953            0            0            0     14287.19    9201.7592    5543.0894    5341.1642    689.38786    41.556568   -598.63156 
  136000    275.51113   -305.14649    -236.8059   -305.14649            0    6430.6542    24.917658    24.928002      23.0559            0            0            0    14321.113    7100.1043    4449.2984    7742.5598   -1940.6179   -1230.8523    711.35935 
  136500    277.26326   -305.75886   -236.98365   -305.75886            0    8713.1738    24.778785    24.916097    23.064566            0            0            0    14239.846    9457.0125    6901.8118    9780.6972   -506.71372   -472.70612   -2085.0194 
  137000    274.52338   -304.93355   -236.83797   -304.93355            0     5551.454    24.914885    24.979923    23.090062            0            0            0    14370.606     4374.497    5146.8707    7132.9944    1601.6564    992.65571    2133.5311 
  137500    277.15446   -302.44098   -233.69275   -302.44098            0    6973.5178    25.022779    24.889227    22.860491            0            0            0     14237.46    8396.6405    6304.9593    6218.9534    530.03699   -2169.7743   -208.28302 
  138000    275.19783   -304.09798    -235.8351   -304.09798            0    9118.9264    25.116651    24.963897    22.870092            0            0            0    14339.764    8587.9278    7104.3472    11664.504    100.93391    371.65832   -1667.0373 
  138500    270.03077   -304.27458   -237.29339   -304.27458            0    5341.3077    24.862109    24.990896    22.972067            0            0            0    14273.151    6771.1647    5928.4581    3324.3003    586.53474   -441.95708    1328.2273 
  139000    266.84835   -308.19528   -242.00348   -308.19528            0    5709.4455    24.749197    24.977044    23.001651            0            0            0    14218.741    6654.9363    4392.5513    6080.8489    602.66927   -2172.1951    846.73996 
  139500    275.90874   -305.95088   -237.51165   -305.95088            0     5741.741    25.028154    24.894009    23.011224            0            0            0    14337.169    6803.5557    7122.4308    3299.2364    1792.2604    1241.1724    -941.1518 
  140000    276.55979   -304.40076   -235.80004   -304.40076            0    6386.5079    25.105231      24.8261    22.872636            0            0            0    14255.713    4338.0618    5572.8914    9248.5704   -695.68539   -260.49302     -871.907 
  140500    276.26797   -303.08881   -234.56047   -303.08881            0    8826.5886    24.978583    25.014743    22.885376            0            0            0    14299.535    8619.0114    8512.3546    9348.3996     1135.856      675.322   -3253.0453 
  141000    275.41611   -305.53446   -237.21743   -305.53446            0    8245.4872    24.808753    25.010157    22.989964            0            0            0    14264.602    9088.8475    5434.7182    10212.896    955.88797   -799.83122    2247.0598 
  141500    278.80795   -306.97092   -237.81255   -306.97092            0    5565.0689    24.883346    24.849543    23.077225            0            0            0    14269.566    5789.5455    7528.0475    3377.6138    872.11951    2119.1737    340.09491 
  142000    273.54186   -304.99708   -237.14496   -304.99708            0    6413.1143    24.957441    24.873359    23.059485            0            0            0     14314.76     5146.992      6622.81     7469.541   -386.52995   -719.82049   -150.46713 
  142500    282.89544    -305.3565   -235.18423    -305.3565            0     7249.594    24.957948    24.954163    22.938795            0            0            0    14286.389    7562.2109    6229.3928    7957.1784   -228.50275    218.25774    197.58275 
  143000    275.89858   -305.56574   -237.12903   -305.56574            0    7744.9568     24.93902     25.03013    22.894242            0            0            0    14291.202    9307.4831    5956.6936    7970.6936   -103.79258    132.55212    862.65421 
  143500    272.50466     -303.494   -235.89916     -303.494            0    6123.5306    24.937772    24.991068    22.886376            0            0            0    14263.283    7208.2171    3804.6129    7357.7618    -72.74563    329.14412    -1663.121 
  144000    274.28122   -304.46959   -236.43408   -304.46959            0     5502.003    24.992207    24.836971    23.042728            0            0            0    14303.329    4743.7645    7659.0527    4103.1917   -1177.7889    590.23619     1154.765 
  144500    278.06315   -305.33842    -236.3648   -305.33842            0    6139.6212     24.92449    24.796086    23.114151            0            0            0    14285.234    6287.8697    7944.4106    4186.5832    1453.9285   -2060.0049   -661.23136 
  145000    271.09905   -304.63659   -237.39041   -304.63659            0    8549.1379    24.826466    24.973327    23.003498            0            0            0    14262.156    11141.461    5764.2509    8741.7019    228.96254   -308.84607   -1103.9893 
  145500    273.34918   -305.01128   -237.20696   -305.01128            0    4547.5485    24.933679    25.142753    22.809389            0            0            0    14299.236    4844.8973     5967.213    2830.5353   -493.57424    1065.1938   -1248.7888 
  146000     268.8256    -304.6288   -237.94655    -304.6288            0     6199.131    25.072956    24.942835    22.791457            0            0            0    14253.563    5569.4637    5995.1609    7032.7683    1879.3805   -2870.5752   -389.34628 
  146500    267.21628   -305.19305   -238.90999   -305.19305            0    4841.4198    24.965252    24.785283    23.020405            0            0            0    14244.355    8057.6564    3127.4085    3339.1946    569.42477    1092.6886   -701.13537 
[...]
  365000    278.28773   -305.42483    -236.3955   -305.42483            0    6466.3454    25.069714    24.957477    22.885395            0            0            0    14318.861    4983.6072    6026.7042    8388.7247    379.44546   -908.91588    1824.7313 
  365500    278.86686   -304.80067   -235.62768   -304.80067            0    6518.0264    24.981857    24.984237    22.858441            0            0            0    14267.156    7002.9887    6508.4813    6042.6091   -503.42855   -476.40521    2015.0305 
  366000    278.45593   -304.07652   -235.00547   -304.07652            0    7732.7804     24.84401    24.957987    22.994174            0            0            0    14257.687    11014.373    7356.8124    4827.1559   -653.16096    1906.4521    79.526184 
  366500    280.06586   -306.76912   -237.29872   -306.76912            0    7659.3602    24.915732    24.931042    23.133489            0            0            0    14369.948    6885.5519    8050.8693    8041.6595    -338.6749   -870.54524    -561.1221 
  367000    274.46487   -306.90468   -238.82361   -306.90468            0    5291.7415    24.913014    24.830397    22.978347            0            0            0    14214.406    5707.1271    5622.0587    4546.0387    246.52314    -1714.747    2016.0593 
  367500    268.55755   -303.85174   -237.23598   -303.85174            0    8328.2341     24.98595    24.983937     22.91817            0            0            0    14306.609    9160.3754    7280.5001    8543.8268   -779.02234   -2452.8496    1693.9377 
  368000    280.51888   -305.48925   -235.90648   -305.48925            0    8168.7133    24.924005    24.980012    22.956883            0            0            0        14293    7323.1991    8138.0752    9044.8656   -470.45495    277.22695    856.76839 
  368500    275.50004   -305.92658   -237.58873   -305.92658            0    9037.1205    24.873005    24.858284    23.028116            0            0            0    14238.289    8217.4977    9256.9546    9636.9093   -894.27058   -30.890229     259.3394 
  369000    277.71085   -304.93243   -236.04619   -304.93243            0    5475.6644    24.967896    24.831481    23.162048            0            0            0    14360.234    7432.3604    3969.4765    5025.1563   -1857.1719     11.82454   -1519.4942 
  369500    280.30935   -305.28566   -235.75487   -305.28566            0    8685.5422    24.894664    24.890735    22.974341            0            0            0     14235.97    9534.3621    9469.6693    7052.5954   -874.06518   -358.76813   -559.56923 
  370000    281.08144   -305.90394   -236.18163   -305.90394            0    7948.5961    24.935571    25.114159    22.839462            0            0            0    14302.891    9550.5116     4676.136    9619.1407   -1761.9739   -2752.4577   -2060.1627 
  370500     272.0035   -306.46606   -238.99553   -306.46606            0    5186.7162    24.991426     24.99322    22.963039            0            0            0    14343.087    5888.3879    4345.2622    5326.4986    1246.2235   -1634.8422    2170.4444 
  371000    266.46131   -305.70056   -239.60478   -305.70056            0    8386.7602    24.934647    24.687323    23.076466            0            0            0    14205.173     8244.409    9569.8677    7346.0039   -1693.7883    721.33081   -311.91817 
  371500    275.58411   -306.68505   -238.32635   -306.68505            0    7164.1816    24.933979    24.887007    23.141939            0            0            0    14360.317    8562.3852    6835.0667    6095.0927   -816.95833    252.28507    702.93267 
  372000    278.00975   -305.07477   -236.11439   -305.07477            0    4772.0803    24.832313    25.028687    22.928085            0            0            0    14250.268    5402.5223    3575.6376    5338.0809    91.037031   -344.28465   -1511.1159 
  372500    269.08359   -305.81145    -239.0652   -305.81145            0    8079.1813     24.92905    25.049301    22.903399            0            0            0    14302.149    6714.0782    9296.7194    8226.7463    1584.2098   -626.90505    2433.0474 
  373000     260.0521   -307.11185   -242.60587   -307.11185            0    8204.2889    24.966928    24.826903    22.934639            0            0            0     14216.07    10200.075    6156.0987    8256.6934   -678.38872     1261.702     -243.887 
  373500    269.87044   -304.27802    -237.3366   -304.27802            0    6318.0579    24.959062    24.851097    23.058375            0            0            0     14302.19    5999.2746    9220.2768    3734.6224    974.93515   -767.65545    -1472.982 
  374000    277.47952   -305.73805    -236.9092   -305.73805            0    7181.4359    24.847161    24.977001    23.028472            0            0            0    14291.644    4363.6178    9912.1379    7268.5521   -1110.8603   -656.81101    -555.6727 
  374500     286.6081   -305.25165   -234.15845   -305.25165            0    7922.6935    24.890869    25.024757    22.976844            0            0            0    14311.999    9226.7178    6038.1973    8503.1655    1606.4308    811.38633   -131.22589 
  375000    277.63255   -304.55519   -235.68837   -304.55519            0    4964.6174    25.057383    24.924065    22.977472            0            0            0    14350.163     3134.223    6601.9337    5157.6955   -57.336433    449.72886   -461.39892 
  375500    278.81241   -306.52866   -237.36918   -306.52866            0    7799.4562    24.962321    24.838467    22.899059            0            0            0    14198.007    6444.3365    6320.1316    10633.901   -749.64908   -437.20165    1468.4598 
  376000    274.45937   -303.93948   -235.85977   -303.93948            0    4244.8028     24.94251    25.087318    23.025127            0            0            0    14407.759    1985.7323    5216.4146    5532.2614    1836.0974   -763.91557    1044.7338 
  376500    275.07195   -304.73779   -236.50613   -304.73779            0    7489.0588    24.784183    24.996072    22.934635            0            0            0    14208.172      9911.83    6095.1322    6460.2142    16.816363    52.690892     1873.406 
  377000    267.33157   -306.80344   -240.49179   -306.80344            0    7120.5834    25.000924    24.888907    22.967805            0            0            0    14291.617    5608.2424    6916.6335    8836.8741    766.66126    3357.1574       442.57 
  377500    266.52392   -305.22139   -239.11007   -305.22139            0    4645.1502    25.068999    24.800014    23.057321            0            0            0    14335.002    2561.9957    6685.4037    4688.0511   -462.34057     120.7507    422.54074 
  378000    277.28826   -305.70096   -236.91955   -305.70096            0    7897.2632    24.825841    24.866226    22.973988            0            0            0    14182.417     7310.367    9487.7614    6893.6611   0.44670733    2311.9292    -1049.889 
  378500     278.6739   -307.33326   -238.20814   -307.33326            0    4872.1953    24.845612    25.185611    22.983986            0            0            0    14382.273    5310.5932    3049.5106     6256.482   -637.62385   -2929.5452    1938.3776 
  379000    277.79023    -306.1513   -237.24537    -306.1513            0    7668.7589    24.920065    24.910711     22.88891            0            0            0    14208.898    5074.1015    11330.181    6601.9947    2300.0384    436.17348    20.433813 
  379500    272.98443   -307.68219   -239.96834   -307.68219            0    8050.8794     25.09543    24.843417    22.962922            0            0            0    14316.377    10442.021    7239.6432    6470.9736    425.15625    670.32859    1563.3744 
  380000    268.56834   -308.00855   -241.39011   -308.00855            0    6189.3922    24.903903    24.908673    22.997284            0            0            0    14265.749    9964.0875    3766.6656    4837.4235     877.2732   -873.22156    424.42498 
  380500     273.7282   -305.37429   -237.47595   -305.37429            0    5123.6337     24.79872     24.97864    22.984931            0            0            0    14237.746     7010.924    4945.7226    3414.2544   -43.736864   -1612.9906    2552.0237 
  381000    269.38793   -304.04033   -237.21859   -304.04033            0    6964.9584    24.948415    25.022595    23.007327            0            0            0    14362.878    7005.2745     8604.417    5285.1836    2877.2184   -651.01459   -1511.7292 
  381500    276.98524   -301.79395    -233.0877   -301.79395            0    6928.2744    25.018614    24.863726    22.938165            0            0            0    14268.822    7006.8136    6792.2955    6985.7141   -1375.7547    559.04138   -1920.6974 
  382000    281.58095     -306.568   -236.72179     -306.568            0    8940.4948    25.047321    24.894303    22.947587            0            0            0    14308.637    8071.2092    8954.0953    9796.1799   -749.20254    747.20612   -223.08173 
  382500    281.86336    -303.8214   -233.90513    -303.8214            0     11752.24    24.848907    25.016281    22.973793            0            0            0    14281.135    11286.406    12045.525    11924.787    872.86767    189.69762   -1277.9782 
  383000    277.63268   -302.79154   -233.92469   -302.79154            0    6958.0185    24.816989    25.053979    23.046993            0            0            0    14329.799    10082.566    5377.5152    5413.9748   -1228.4981     641.2282    1059.0831 
  383500    277.34553   -302.39766   -233.60204   -302.39766            0    7836.2128     24.94307    24.837811    23.047793            0            0            0    14278.829    4236.4292    11873.255    7398.9541   -535.93366   -1288.4014    -33.40283 
  384000    274.69376   -308.27318   -240.13533   -308.27318            0    7759.1839    25.090221    24.841929    23.032989            0            0            0     14356.22    6935.2862    9468.2155    6874.0499   -1315.4138    1329.8753    1378.1405 
  384500    269.17513   -305.37694     -238.608   -305.37694            0    9013.4147    24.890945    24.922484    22.850826            0            0            0    14175.377    8288.6951    9084.9566    9666.5924    1227.9305   -1002.1729   -702.08535 
  385000    267.09858   -306.40592   -240.15206   -306.40592            0    5047.1497    24.891993    25.173022    22.944749            0            0            0    14377.333    5058.5856    1320.1673    8762.6962    77.054468    979.90542   -945.33242 
  385500    272.24267   -305.77086     -238.241   -305.77086            0    7069.9418    24.811396    24.880525    23.007449            0            0            0    14202.971    7978.0127     4502.207    8729.6058    196.71699    20.320667   -928.38302 
  386000    278.06124   -305.40529   -236.43214   -305.40529            0    8114.4587    24.983486    24.768878    23.136146            0            0            0    14316.946    8553.4553    9431.2408    6358.6799    809.48381   -878.44698    1062.8671 
  386500    275.01626    -304.7487   -236.53086    -304.7487            0    5627.4499    24.965258    24.898826    23.127343            0            0            0    14376.086    6954.4463    5093.8455    4834.0578    289.11429    1556.6264    1329.0436 
  387000    278.79155   -306.16582   -237.01151   -306.16582            0    6146.7443      24.8342    24.958861    22.951308            0            0            0    14225.986    9172.0935    5708.3771    3559.7622    231.86994    -1029.162   -1405.1736 
  387500    271.78133   -306.17992    -238.7645   -306.17992            0    4423.3295    25.016959    25.027575    22.891448            0            0            0    14332.652    4437.2315    5444.6642    3388.0927    59.105846   -169.82128    2797.1062 
  388000    276.49607    -307.7912   -239.20629    -307.7912            0    8357.5114    24.966281    24.876844     22.85821            0            0            0    14196.829    7790.3192    7185.8876    10096.327   -43.732235    -34.88142    68.285264 
  388500    272.12466   -309.13183   -241.63125   -309.13183            0    5575.9557      24.8995    24.934599     23.07412            0            0            0    14325.776    7013.3225    5255.6992    4458.8455   -2184.1709   -948.67421   -1052.9854 
  389000    266.73727   -306.10063   -239.93639   -306.10063            0    10397.606    24.738296    24.893981    23.071257            0            0            0     14208.08    11079.298    9635.9599    10477.561    364.10862    -366.7229    1539.7543 
  389500    263.96989   -307.70446   -242.22668   -307.70446            0     8248.598    24.933289    24.922674    23.013859            0            0            0    14300.909    9011.1331    7673.8678    8060.7932    320.75688    1103.2431    1155.8492 
  390000    263.23115   -307.80265   -242.50811   -307.80265            0    7070.5385    25.055087    24.869907    22.855434            0            0            0    14241.625    6991.4077      5206.57    9013.6379    30.030869    1889.4492    874.77994 
  390500    272.18384   -304.49494   -236.97967   -304.49494            0    7799.9266    24.930506     24.91681    22.891469            0            0            0    14219.922    7307.3678    7030.6279     9061.784    977.03861    663.75108    181.23521 
  391000    268.24832     -303.849   -237.30994     -303.849            0    5394.6521    24.894941    24.986272    23.107586            0            0            0    14373.652       4036.5    5788.9984    6358.4579   -1665.8277   -141.14371   -21.230517 
  391500    280.70696   -305.39976   -235.77034   -305.39976            0    5972.3275    24.788574     24.88076    23.047853            0            0            0    14214.961    7805.1568    6084.8957      4026.93    1053.4858   -1640.8093   -183.86352 
  392000    265.88681   -305.64301   -239.68973   -305.64301            0    7071.6874     25.02561    24.937564    22.990516            0            0            0    14347.869    6044.8144    7858.2406    7312.0072    352.31826   -944.83147   -1717.0443 
  392500    275.46498   -305.00295    -236.6738   -305.00295            0     7291.765     24.98776    24.910046    22.823585            0            0            0    14206.455    4875.1504     9364.855    7635.2896   -232.93063    582.88678   -1531.7052 
  393000    274.00902   -304.90778   -236.93978   -304.90778            0    7043.0378     24.94416    25.059391    22.952875            0            0            0    14347.508    8710.6901    6161.1154     6257.308    135.11961   -776.01317    1.4486481 
  393500    277.44442   -305.36855   -236.54841   -305.36855            0    7979.2362    24.832426    24.949744    23.104479            0            0            0    14314.673    8169.2376    9527.7756    6240.6955   -637.96382    2281.3291    1614.0957 
  394000     276.6304   -307.37432   -238.75609   -307.37432            0    6148.7016    24.897618    24.803392    23.088304            0            0            0    14258.075     5469.164    7797.3042    5179.6365    968.21555   -1325.0631    1728.6091 
  394500    277.07794   -305.11624     -236.387   -305.11624            0    5984.8153    25.015413    24.923627    22.973341            0            0            0      14323.3     6894.448    4026.7325    7033.2655   -1413.8965    2425.1298   -2551.0935 
  395000    272.30252   -305.04176   -237.49706   -305.04176            0    8131.3026    24.919907     24.99918     22.87828            0            0            0    14252.648    8203.5323    7417.3624    8773.0131   -92.006288    485.53843   -581.66744 
  395500    275.75223   -307.92453   -239.52413   -307.92453            0    5318.3535    24.861854    24.942063    22.965004            0            0            0    14240.736    3867.6417    9280.9209    2806.4979   -217.47136    220.28297   -681.46562 
  396000    272.86438   -307.01754   -239.33347   -307.01754            0    5417.9525    24.899524    24.822683    23.112348            0            0            0    14285.118    4121.0471    6108.7954     6024.015    341.53686   -667.95739   -1872.7967 
  396500    279.61432   -304.10449    -234.7461   -304.10449            0    8240.8164    24.885004    24.825727    23.064837            0            0            0    14249.187    9096.0577     10813.28    4813.1111    61.720922   -2330.7185    81.154783 
  397000    272.68821   -307.07167    -239.4313   -307.07167            0    5869.8983    24.962329     25.03057    22.841652            0            0            0    14271.951    4329.5964    4972.8614    8307.2373    714.58397    1228.6183    881.16124 
  397500    276.55972    -305.0842    -236.4835    -305.0842            0     6654.926    24.965189    25.035903    22.862983            0            0            0     14289.96    4003.2603    7456.0092    8505.5083    1983.3785   -183.22505     136.8529 
  398000    271.44888   -305.33818   -238.00523   -305.33818            0    8921.4396    24.938417    24.815557    23.058516            0            0            0     14270.01     10158.67    8055.5866    8550.0625   -514.41204   -2764.5021    -1541.529 
  398500    270.14888   -304.93719    -237.9267   -304.93719            0    6941.1766    24.879333    24.827183    23.154342            0            0            0    14302.061    8076.6077    6071.1355    6675.7866   -1677.5723    579.59012   -3.4964766 
  399000     265.0813    -306.3876   -240.63412    -306.3876            0    8981.8353    24.832082    24.964258    23.003215            0            0            0    14260.027    9070.0417    7615.0303    10260.434   -1151.0904    996.65104    1791.6537 
  399500     271.5638   -307.55741   -240.19595   -307.55741            0    7861.1766    24.965244    25.017662    22.822881            0            0            0    14254.533    7355.9995    7569.0182     8658.512   -725.60694    1808.5455    3067.4991 
  400000    267.54048   -306.55915   -240.19567   -306.55915            0    7180.5156    25.094831    24.918325    22.851692            0            0            0    14289.646    7226.1055    7875.2998    6440.1417   -9.6982901    451.34683    2298.2043 
Loop time of 4517.39 on 1 procs for 400000 steps with 1920 atoms

Performance: 3.825 ns/day, 6.274 hours/ns, 88.547 timesteps/s
62.5% CPU use with 1 MPI tasks x 1 OpenMP threads

MPI task timing breakdown:
Section |  min time  |  avg time  |  max time  |%varavg| %total
---------------------------------------------------------------
Pair    | 3783.5     | 3783.5     | 3783.5     |   0.0 | 83.75
Bond    | 0.077859   | 0.077859   | 0.077859   |   0.0 |  0.00
Neigh   | 580.02     | 580.02     | 580.02     |   0.0 | 12.84
Comm    | 16.452     | 16.452     | 16.452     |   0.0 |  0.36
Output  | 105.46     | 105.46     | 105.46     |   0.0 |  2.33
Modify  | 29.537     | 29.537     | 29.537     |   0.0 |  0.65
Other   |            | 2.378      |            |       |  0.05

Nlocal:        1920.00 ave        1920 max        1920 min
Histogram: 1 0 0 0 0 0 0 0 0 0
Nghost:        7176.00 ave        7176 max        7176 min
Histogram: 1 0 0 0 0 0 0 0 0 0
Neighs:         0.00000 ave           0 max           0 min
Histogram: 1 0 0 0 0 0 0 0 0 0
FullNghs:      541964.0 ave      541964 max      541964 min
Histogram: 1 0 0 0 0 0 0 0 0 0

Total # of neighbors = 541964
Ave neighs/atom = 282.27292
Ave special neighs/atom = 0.0000000
Neighbor list builds = 40000
Dangerous builds not checked

unfix		3
unfix		2

write_data	data.final.${pid}
write_data	data.final.0
System init for write_data ...

write_restart   restart.lmp.${pid}
write_restart   restart.lmp.0
System init for write_restart ...
Total wall time: 1:15:21
