LAMMPS data file via write_data, version 29 Sep 2021, timestep = 400000

972 atoms
2 atom types

-0.08637656813863792 20.077429568139458 xlo xhi
-0.020753057078579218 20.011806057076395 ylo yhi
0.2518417504602066 20.548930249539318 zlo zhi

Masses

1 1.008
2 15.999

Atoms # full

2 0 2 0 1.8857660180362177 2.0756512647239775 1.1781391512431418 0 0 0
31 0 1 0 0.5464895118308508 1.675119595552543 2.4154063846497724 0 0 0
32 0 2 0 0.7569315608555919 0.7367831032660841 2.5370524566257733 0 0 0
33 0 2 0 0.6053855674178669 2.231463412011368 3.238963097922551 0 0 0
5 0 2 0 3.4381755670859824 1.3059812102981805 3.984070222873953 0 0 0
10 0 1 0 1.142334677383097 3.8205047331645363 4.055260915712122 0 0 0
1 0 1 0 2.4739292178937893 2.250599077927632 0.4454183951106586 0 0 0
4 0 1 0 4.16854011430088 1.687539789310365 3.443044958154087 0 0 0
18 0 2 0 4.044717639050186 3.4194042201340524 3.6630600813837404 0 0 0
36 0 2 0 5.559167732837427 2.650590052688617 1.4344829733012447 0 0 0
68 0 2 0 7.78911183369311 2.863802383881462 3.0513812426966584 0 0 0
67 0 1 0 7.517371831837724 2.371393027989024 2.254048104707264 0 0 0
6 0 2 0 5.015113071352622 1.363623371201443 3.772370769657939 0 0 0
35 0 2 0 4.184373593449403 2.531957119074213 0.8272379309893502 0 0 0
34 0 1 0 5.094406892126138 2.860197006795634 0.6216156958673575 0 0 0
272 0 2 0 7.410394196106164 0.5002330287840104 2.4383339821791457 0 1 0
230 0 2 0 4.357652470582677 0.2366369284257384 2.221790630164201 0 1 0
69 0 2 0 8.149047029922704 2.470486744398556 1.5302408826173692 0 0 0
40 0 1 0 11.245842276590277 1.209641363367339 3.5975581310738307 0 0 0
54 0 2 0 11.16822349197262 3.096140873519179 3.5552054520973413 0 0 0
41 0 2 0 10.341893530742075 1.0620616385896484 3.9359167269308877 0 0 0
266 0 2 0 10.991230107253093 -0.010392011440753114 2.205677102785221 0 1 0
39 0 2 0 10.20624622144456 2.4250813251002548 0.4196433197151793 0 0 0
47 0 2 0 9.222199771427741 3.9047934078179756 4.211822642526675 0 0 0
70 0 1 0 12.110191692268478 2.655273841735989 0.354150077390214 0 0 0
72 0 2 0 12.734188002951335 2.503023787049766 1.058655372878504 0 0 0
84 0 2 0 14.505525161586773 3.178020403211683 3.3708525383254346 0 0 0
103 0 1 0 14.31651100053888 1.9709660214712137 2.0828407307978587 0 0 0
105 0 2 0 14.262388728258058 0.9984341742340666 2.2673230158940623 0 0 0
104 0 2 0 14.962647830106869 2.118739117669539 1.3817661103797407 0 0 0
73 0 1 0 16.285891710081977 2.6352646603653835 0.27876810306040056 0 0 0
108 0 2 0 19.278823406828657 2.2402823435581065 1.6144321470658887 0 0 0
76 0 1 0 17.724906162397033 1.1107295413710085 3.405920175617527 0 0 0
77 0 2 0 17.78727150988992 0.3523679290330478 2.807572058576578 0 0 0
89 0 2 0 17.325362406253348 2.974948211828097 3.610983102475832 0 0 0
107 0 2 0 18.043933363104742 2.7767005530214113 0.7367093690460679 0 0 0
78 0 2 0 18.351420288778662 1.0070833541975004 4.079684758361489 0 0 0
106 0 1 0 19.013183558510022 2.745917922304531 0.859836429298396 0 0 0
88 0 1 0 17.23311666750265 3.9449447510724043 3.7378897867092675 0 0 0
20 0 2 0 0.9135951246386018 4.923211440782502 2.64695895140293 0 0 0
21 0 2 0 0.8985950483438819 6.2715936377127885 2.10686625057377 0 0 0
19 0 1 0 0.5371852153014186 5.418076798845348 1.9201518135190523 0 0 0
675 0 2 0 1.781793015277582 5.230053454619168 0.7200330094321019 0 0 1
16 0 1 0 3.897510910096985 4.325242808145502 3.997168828802981 0 0 0
673 0 1 0 2.6387795163579546 5.079138285955934 0.3230503690397443 0 0 1
14 0 2 0 4.337465580149036 5.690342629395058 1.438186273640573 0 0 0
17 0 2 0 4.23331693296763 4.90465027927371 3.261955700398078 0 0 0
114 0 2 0 4.424544749579381 7.574917566143536 3.041579430841467 0 0 0
13 0 1 0 4.818296215486784 6.025352794872587 2.2216464796126374 0 0 0
15 0 2 0 5.742675844700825 5.916194170452022 1.9237704183229067 0 0 0
55 0 1 0 7.607975330327407 6.132467557914095 2.199150595922366 0 0 0
56 0 2 0 7.862242871011145 5.352595992731377 2.736026203939142 0 0 0
177 0 2 0 7.563753785301557 7.822866022703101 2.3260877322978923 0 0 0
46 0 1 0 8.265195393243664 3.990991402866686 4.061902227003591 0 0 0
57 0 2 0 8.121623649556309 5.974933705650547 1.3609312876846937 0 0 0
52 0 1 0 10.925392476595981 4.007575752692092 3.744871749920756 0 0 0
51 0 2 0 11.168135251110332 5.045543353973159 2.382803255171582 0 0 0
49 0 1 0 11.275445708638399 5.788513726081596 1.7729013822717647 0 0 0
50 0 2 0 10.611931460562587 5.6850951483932395 1.0502475553531667 0 0 0
150 0 2 0 10.72871620408804 7.117635223374939 2.8891201006819998 0 0 0
149 0 2 0 10.116095417413419 7.41330535701549 4.239758893970519 0 0 0
148 0 1 0 10.814992522685221 7.674349420284778 3.653850705475287 0 0 0
82 0 1 0 14.326591273784882 4.035181674726461 3.8644730553302358 0 0 0
83 0 2 0 14.20808916778161 4.639539694124858 3.1388071469781194 0 0 0
91 0 1 0 13.87846515158329 5.820946157862359 1.888840632603194 0 0 0
92 0 2 0 14.168244264659513 6.692473821284884 2.1938082438561333 0 0 0
93 0 2 0 12.921191171122922 5.848553559884665 1.7017065955650317 0 0 0
747 0 2 0 14.961742536646813 5.460560934174357 0.5086743839584258 0 0 1
90 0 2 0 16.29590263831502 4.080319810006185 3.9315299919542537 0 0 0
86 0 2 0 17.61949336103426 5.317506089662179 2.6082736454809137 0 0 0
85 0 1 0 17.804856954747912 5.800984505978024 1.7909528180630347 0 0 0
87 0 2 0 18.72199511883619 5.413343905303694 1.6211101879776273 0 0 0
185 0 2 0 17.633850368152586 7.829762949407592 2.2374084835931547 0 0 0
746 0 2 0 16.41824282719743 5.443025698703133 0.6865123235498414 0 0 1
139 0 1 0 1.267736532313002 8.261157963980951 2.2720738345036113 0 0 0
141 0 2 0 1.8716581989345447 8.532575572395022 1.564146135389922 0 0 0
140 0 2 0 0.4085772365862072 8.505082768073457 1.9379448248723259 0 0 0
782 0 2 0 1.6208916073371602 11.621635446364564 0.662589553911021 0 0 1
109 0 1 0 2.994220028314635 8.957897175915853 0.31015584655334055 0 0 0
112 0 1 0 4.215064445566326 8.168905890498523 3.76861774282113 0 0 0
110 0 2 0 3.9794267306227757 8.943129605142698 0.3881421871988543 0 0 0
124 0 1 0 4.124320550106854 11.06680056839689 3.917469696028208 0 0 0
126 0 2 0 4.164482001283587 10.086143710476533 3.69117072619804 0 0 0
175 0 1 0 7.544527272624039 8.784713744275708 2.196958689035995 0 0 0
176 0 2 0 6.843172732324534 9.029657263547456 1.5234908673283298 0 0 0
142 0 1 0 5.7770776191119975 9.437332204481399 0.3060717270880761 0 0 0
155 0 2 0 7.699707644638879 10.145826452277047 3.4100582272353077 0 0 0
156 0 2 0 7.625970960353643 11.733380012946153 3.1931997270492856 0 0 0
122 0 2 0 4.231293390314196 11.958961948208904 2.365315078963208 0 0 0
154 0 1 0 7.847743355020723 11.010517319140792 3.810857352405757 0 0 0
147 0 2 0 8.777819991542838 9.17574414779752 1.0079873589900754 0 0 0
179 0 2 0 11.07964516736233 9.177497907738907 0.7570596669740111 0 0 0
162 0 2 0 10.707591311285993 9.45356508436912 3.412575448291053 0 0 0
161 0 2 0 9.568684317911607 10.563001760925083 3.6666935688469358 0 0 0
160 0 1 0 10.495057378460752 10.366715365946988 3.5632377703493323 0 0 0
158 0 2 0 10.9111414633617 11.75145766517961 2.3383005436635727 0 0 0
145 0 1 0 9.406623224773755 9.34305685289502 0.3296092353808632 0 0 0
178 0 1 0 12.043538052711495 9.248281834016614 0.7805533834788382 0 0 0
211 0 1 0 13.974152701622934 8.658430670994052 2.5756679950212575 0 0 0
212 0 2 0 14.01487854512462 9.519271789954402 3.0305848814172265 0 0 0
213 0 2 0 13.282981939871593 8.91595945011115 1.8660805368438411 0 0 0
183 0 2 0 15.340901989826314 9.207736779089874 1.1462007907927547 0 0 0
190 0 1 0 14.797931244310083 10.982339720055535 3.839085956984617 0 0 0
191 0 2 0 14.633869251305784 11.734687714219843 3.226042023508181 0 0 0
192 0 2 0 15.791314289350169 10.922121848404657 3.870433720585435 0 0 0
181 0 1 0 15.952427090959796 9.342204123076257 0.4105566519952348 0 0 0
184 0 1 0 17.467315862367265 8.140101925964078 3.1276121876370726 0 0 0
186 0 2 0 17.56031069569483 9.101042423260996 3.1491352929300223 0 0 0
216 0 2 0 18.281084522765028 9.48446498463242 0.8920891878442522 0 0 0
214 0 1 0 19.20684171711939 9.557108026809287 0.640249825223504 0 0 0
196 0 1 0 17.506276166753814 10.772196016264733 3.7619555176575585 0 0 0
197 0 2 0 17.775360796271016 11.398787904820079 3.000634430234714 0 0 0
129 0 2 0 0.8495267209874037 12.066968525110285 2.8388052388150182 0 0 0
249 0 2 0 0.6042595981799256 14.424930248179006 2.03129820715699 0 0 0
127 0 1 0 0.5504027723527312 12.487837755820784 2.0322705755565886 0 0 0
221 0 2 0 2.8673665395055767 14.216489510112071 3.786061268043558 0 0 0
247 0 1 0 0.6256855190415925 15.375533933841062 1.875051500804813 0 0 0
218 0 2 0 1.9249272087440286 15.63520516102893 0.8983019978270173 0 0 0
123 0 2 0 3.55986328721066 12.440287289401128 1.048180192929861 0 0 0
220 0 1 0 3.5886333521640568 14.647134965165282 3.3064850116489186 0 0 0
222 0 2 0 3.83896972845853 13.98866335770132 2.605523406700554 0 0 0
217 0 1 0 2.7379184370216567 15.793159028283837 0.3332903944363888 0 0 0
121 0 1 0 4.342789858853708 12.616560416242375 1.6430786984454793 0 0 0
165 0 2 0 6.165785729272366 12.881302903948642 1.9481952239414182 0 0 0
163 0 1 0 7.163656490017292 12.935220606789676 1.9355047561424956 0 0 0
164 0 2 0 7.405125132059316 13.879928954771326 2.0727391558935064 0 0 0
283 0 1 0 7.587780026907336 15.612511106260541 2.0639569087185174 0 0 0
284 0 2 0 6.750487562387667 15.945000291080676 1.7086975315608488 0 0 0
819 0 2 0 8.182634536486313 12.14264766533098 0.4011873768354548 0 0 1
285 0 2 0 8.192834926980796 15.724233826702875 1.3300391154496183 0 0 0
818 0 2 0 9.71679406096782 12.13669923844309 0.2961602469062581 0 0 1
258 0 2 0 9.563565571446484 14.47771597092522 3.9115614600572446 0 0 0
159 0 2 0 10.625279226963457 13.30700274004875 2.312166967863034 0 0 0
157 0 1 0 10.980148568135055 12.524602954785435 1.779572870670995 0 0 0
256 0 1 0 10.375730091778882 14.618253083230343 3.362820547881485 0 0 0
257 0 2 0 10.594593170645549 15.537309168704882 3.339397074020791 0 0 0
855 0 2 0 14.94389094287079 12.427279872168212 0.6584803820741878 0 0 1
199 0 1 0 13.721193656177968 12.997708815739474 2.2041204798996787 0 0 0
200 0 2 0 12.754245815304193 12.891420472223222 1.9779080562465363 0 0 0
201 0 2 0 13.905294338380118 13.922593047843048 2.3907586765248 0 0 0
319 0 1 0 14.044745470165566 15.639313337750986 2.2809206078529614 0 0 0
320 0 2 0 13.270451864724064 15.875840904216451 1.7844683300531528 0 0 0
291 0 2 0 15.339036372632833 15.73286521754575 1.024538489625125 0 0 0
286 0 1 0 12.03390632598418 15.850781356453291 0.594860614334318 0 0 0
195 0 2 0 17.099190072875878 12.467292110053771 0.993295054171972 0 0 0
248 0 2 0 19.87980895330412 15.571226139231689 1.504515459883575 -1 0 0
128 0 2 0 19.778604239664965 12.217505975668082 1.9312959971039045 -1 0 0
193 0 1 0 17.8969596335335 12.496876689428836 1.5868128082777284 0 0 0
194 0 2 0 17.646447586028728 13.281471549454261 2.087028351062878 0 0 0
294 0 2 0 16.423497930267835 14.445898969158083 3.923193321909868 0 0 0
292 0 1 0 17.247570507595178 14.537928728631202 3.35086677490818 0 0 0
293 0 2 0 17.399876938788942 15.438851462829149 3.2121324613987556 0 0 0
290 0 2 0 16.749152708269392 15.715301946193472 0.2679606953518885 0 0 0
235 0 1 0 0.5431661876103623 18.930295857841813 1.590229641003792 0 0 0
227 0 2 0 1.0066791936486077 16.58281668607988 3.1930547502560453 0 0 0
236 0 2 0 0.6403798737837217 18.517522357029673 2.4588049302476 0 0 0
237 0 2 0 1.4162099202992928 18.93124379755251 1.1775358181548097 0 0 0
226 0 1 0 1.2824753629402643 17.336784054441647 3.749964811932331 0 0 0
891 0 2 0 3.6668151718755535 18.535310841422863 0.5761853071593641 0 0 1
228 0 2 0 2.257156879977991 17.484386243217678 3.7492100355528493 0 0 0
232 0 1 0 4.133261007137688 17.35693238897989 3.677210846683557 0 0 0
233 0 2 0 4.036255692639297 16.474810361834045 3.374584787496217 0 0 0
251 0 2 0 4.280664277480621 16.1554967334458 0.7373131396551584 0 0 0
250 0 1 0 5.207603104977518 16.41572526953916 0.7956166864663281 0 0 0
234 0 2 0 4.214901698184799 17.972559999651317 2.879239480835743 0 0 0
229 0 1 0 4.615706354762574 19.370029788987715 1.9163401552313506 0 0 0
231 0 2 0 5.5557351756117335 19.286159712349455 2.068971435354711 0 0 0
271 0 1 0 7.552443165673848 19.56327959318374 2.2640248629605977 0 0 0
273 0 2 0 7.7900953841144815 19.156084243114638 3.095183221006896 0 0 0
252 0 2 0 5.2558649903609345 17.28583353970746 0.3415871298842369 0 0 0
263 0 2 0 8.182386562372418 16.84866328004004 3.4167423143152504 0 0 0
262 0 1 0 8.380196983773493 17.642458729728087 4.055825340411198 0 0 0
265 0 1 0 11.106613278924728 19.269528164070174 1.6416495949368746 0 0 0
267 0 2 0 10.290382054002205 19.130611050702818 1.1762792191362896 0 0 0
268 0 1 0 11.039415536535651 17.149195058465146 3.426151361310467 0 0 0
269 0 2 0 11.125607497239837 17.909363424414025 2.8597949591424743 0 0 0
927 0 2 0 8.19710787167293 18.386494998414495 0.6612261311220706 0 0 1
264 0 2 0 9.371189579527693 17.498279969496128 4.111583935007412 0 0 0
270 0 2 0 11.645082079608482 17.395684238004417 4.174674411518599 0 0 0
321 0 2 0 14.159377662953029 16.168257176284897 3.098546227111905 0 0 0
307 0 1 0 13.97792071325018 19.298243125276986 1.8365806373645226 0 0 0
308 0 2 0 13.097575669286355 19.371071877207022 1.5235762309926542 0 0 0
309 0 2 0 13.981594668532084 18.640626951955657 2.5426040969202024 0 0 0
298 0 1 0 14.602916161247471 17.441828999511312 4.014659807652369 0 0 0
963 0 2 0 15.359942507662513 18.608783374910605 0.393914745385522 0 0 1
300 0 2 0 15.511682669644113 17.60417632959783 4.3081751741017555 0 0 0
322 0 1 0 18.471094728428376 16.032598916730525 0.5313200220067715 0 0 0
301 0 1 0 18.024034166142044 19.078820469052054 1.6465027983031948 0 0 0
302 0 2 0 17.36297365269826 18.922971176124317 0.9657482602687952 0 0 0
303 0 2 0 18.933736409015133 19.104465746765207 1.271634031854715 0 0 0
306 0 2 0 17.660857198595927 17.915328834039094 2.9845981123698326 0 0 0
304 0 1 0 17.345651428257327 17.456483735680077 3.794014984236283 0 0 0
22 0 1 0 2.0262726410091063 0.6819979990787871 4.937778921711176 0 0 0
23 0 2 0 2.377050110549044 1.306176722153625 5.644088922683172 0 0 0
325 0 1 0 2.8418900045411224 2.4102336995679257 6.876216417689579 0 0 0
327 0 2 0 2.654749862389322 3.361944342633861 7.012816615556483 0 0 0
101 0 2 0 0.35796690521423213 0.6188706468450533 5.313669027030645 1 0 0
356 0 2 0 1.7371374374652966 1.9242229774460236 8.128539989298876 0 0 0
326 0 2 0 3.803648251926354 2.376710683062548 6.8855962146933205 0 0 0
357 0 2 0 0.17083349716956608 2.1519432877739333 8.331114431732798 0 0 0
358 0 1 0 5.634409812875677 2.3383701932240175 7.100024200879028 0 0 0
28 0 1 0 6.027392651314107 0.5973275793518805 5.056014526081817 0 0 0
29 0 2 0 7.034987621412864 0.7151743207062125 5.056726477174586 0 0 0
359 0 2 0 5.772832558176071 1.7182132890234603 6.3780666517887745 0 0 0
360 0 2 0 6.250379040820349 2.0971911428355474 7.8208515285193405 0 0 0
8 0 2 0 5.914909552802839 3.859446916752742 6.3995548479352475 0 0 0
42 0 2 0 11.809548951583539 0.9879726164825864 4.371956526561018 0 0 0
58 0 1 0 8.729997819412763 0.8362176501609727 4.938464397141013 0 0 0
59 0 2 0 8.867341328000082 1.4485260782381422 5.685019879290754 0 0 0
361 0 1 0 9.35190916221669 2.2454518165067787 7.203384831620559 0 0 0
362 0 2 0 10.265881329185973 2.1671251143293997 7.405436848874187 0 0 0
363 0 2 0 9.197864063272993 3.2130559155097957 6.969106965753667 0 0 0
394 0 1 0 12.19271482845994 2.5224257361499425 7.355990820078775 0 0 0
66 0 2 0 12.625378306128521 1.1763760487457116 6.31024910856347 0 0 0
396 0 2 0 12.239987344629323 3.386134920830343 6.859961485655512 0 0 0
64 0 1 0 12.738554671414663 0.5404585962175609 5.602552421719791 0 0 0
65 0 2 0 13.604620910567403 0.6597060861781366 5.198237053972955 0 0 0
94 0 1 0 15.596696794557037 0.8942788986637864 5.115501461404821 0 0 0
395 0 2 0 12.901692134344621 2.524456894294353 8.005214616012193 0 0 0
95 0 2 0 15.791309098576535 1.6126527728604947 5.71930687858563 0 0 0
429 0 2 0 15.319507219556172 2.29407476266405 8.06291868862252 0 0 0
96 0 2 0 16.289422733390083 0.7952712856281412 4.458442899504381 0 0 0
397 0 1 0 16.43450783760597 2.769143550559778 6.811608946467609 0 0 0
399 0 2 0 16.141622149366967 3.6093689275642244 6.704198430624977 0 0 0
100 0 1 0 19.552382162366733 0.6085244561462435 5.590894391670115 0 0 0
398 0 2 0 17.375140095399452 2.763613050199212 7.1266265698737685 0 0 0
430 0 1 0 18.926327447052138 2.9269215649603315 7.297679739244767 0 0 0
431 0 2 0 19.14028647703939 2.288521828361941 6.556523125566136 0 0 0
432 0 2 0 19.21029862174563 3.740017352573277 6.901787071168265 0 0 0
12 0 2 0 1.9813594420729683 4.176010060110662 4.3647577409597895 0 0 0
131 0 2 0 2.6868561974770007 7.50239939571776 4.529420558646145 0 0 0
11 0 2 0 0.4535190421446521 4.191763432958166 4.629702039817799 0 0 0
25 0 1 0 2.4820235891603852 5.424105282594959 6.80845397780842 0 0 0
26 0 2 0 2.3248048243800463 6.139817630828752 6.128055611818684 0 0 0
27 0 2 0 3.3320994399882475 5.651258277902802 7.213111755237521 0 0 0
130 0 1 0 1.957024171201092 7.5173083013651665 5.190117292056532 0 0 0
132 0 2 0 1.0990098989037695 7.493668399530598 4.684570722022217 0 0 0
344 0 2 0 1.4742807330431518 5.616477157350652 7.993567669590898 0 0 0
48 0 2 0 7.866837990935838 4.19410946691313 4.915488564820855 0 0 0
9 0 2 0 5.32612427251676 4.321592493752793 5.110655687915096 0 0 0
7 0 1 0 6.128589717698406 4.519773572970553 5.637295907233116 0 0 0
136 0 1 0 6.209447470649013 7.3814744681579185 5.506118258192471 0 0 0
137 0 2 0 6.091222910064378 6.487948460953929 5.871095402206586 0 0 0
138 0 2 0 7.168455694508194 7.430408508398714 5.261787095954658 0 0 0
53 0 2 0 11.552192321968176 4.260407272335891 4.434759762792796 0 0 0
61 0 1 0 9.032106091781694 5.032588640973075 6.8425432113476035 0 0 0
63 0 2 0 8.533333112939836 5.472790018086691 7.631027858618718 0 0 0
167 0 2 0 8.91324002464034 6.45702046995532 5.8117680450341505 0 0 0
62 0 2 0 9.904787670263758 5.317291914631026 7.056216805125195 0 0 0
166 0 1 0 8.924446209345216 7.3277098474280535 5.353280145997523 0 0 0
373 0 1 0 11.286438272946286 5.980341312064198 8.341941876602077 0 0 0
173 0 2 0 12.148282083803107 7.427892697439524 4.588459642684272 0 0 0
44 0 2 0 13.454987638195279 4.352926806544387 5.360997802612986 0 0 0
43 0 1 0 12.683214282252854 4.749862508992407 5.827599702264632 0 0 0
45 0 2 0 12.828439666677625 5.7350464030132295 5.809426724505322 0 0 0
172 0 1 0 12.794288899342716 7.311879098149019 5.34211184538294 0 0 0
174 0 2 0 13.680945496351978 7.534509330466221 5.071652253648985 0 0 0
202 0 1 0 15.618676692431807 7.476850672739034 5.1248052187525595 0 0 0
416 0 2 0 14.609839562575006 5.773710688013824 7.887924708446141 0 0 0
417 0 2 0 13.108593502282561 5.7673385680712315 8.336429778769563 0 0 0
99 0 2 0 16.23807696026659 6.036528179468726 5.942397721824881 0 0 0
204 0 2 0 16.0935830854743 7.63996567007605 4.316750607893483 0 0 0
97 0 1 0 16.13264131776956 5.419789054926199 6.63602385965136 0 0 0
81 0 2 0 18.38733553173229 4.577078986248953 4.784048448420295 0 0 0
79 0 1 0 19.10812213323289 4.939483601275175 5.331101954309001 0 0 0
209 0 2 0 18.535163371237083 7.973079462440082 4.466029219079328 0 0 0
98 0 2 0 17.04852300544333 5.447476840117764 7.070435033474716 0 0 0
80 0 2 0 19.24441814515678 5.876304837011885 5.135127514488802 0 0 0
208 0 1 0 19.347280778976753 7.700527472620365 4.975384973242964 0 0 0
410 0 2 0 19.012339752993732 5.596353184046139 8.167971066944432 0 0 0
119 0 2 0 1.2994992434333814 9.62812092702652 4.313574006247539 0 0 0
118 0 1 0 1.32095392751243 10.60940390690305 4.544889941815511 0 0 0
120 0 2 0 2.2404607639693115 10.857917232877513 4.35366183501517 0 0 0
435 0 2 0 2.674038454000753 8.719499231228058 6.52198783335121 0 0 0
433 0 1 0 3.009103910932931 9.32077479131385 7.23408617790746 0 0 0
135 0 2 0 2.866025716165447 11.067194653910882 6.919031183908233 0 0 0
189 0 2 0 0.06784477853090573 11.21727903147156 5.472960452688803 1 0 0
113 0 2 0 4.9051526421038405 8.056972681047595 4.404013036221171 0 0 0
434 0 2 0 3.951581609146789 9.082881730300379 7.4926312576147245 0 0 0
125 0 2 0 4.690937265955831 11.144556501144665 4.724700897190565 0 0 0
468 0 2 0 5.88161738113619 8.460855537693108 6.601570509860862 0 0 0
466 0 1 0 5.755450813620141 9.031401827265144 7.408265907161256 0 0 0
467 0 2 0 5.868633808024207 9.957695093438526 7.010758969030095 0 0 0
115 0 1 0 5.971235730697916 11.355630862629319 5.855996030347606 0 0 0
116 0 2 0 6.726359634290843 11.240763510394453 5.185638352373019 0 0 0
168 0 2 0 8.924023893617024 8.042575334833872 6.06609312774149 0 0 0
469 0 1 0 9.578722342082171 9.17945467540845 6.995813846676845 0 0 0
471 0 2 0 10.50239087564119 9.028858193083195 7.20533415946904 0 0 0
470 0 2 0 9.570775915651593 10.104574505009593 6.725369735428319 0 0 0
152 0 2 0 11.69985142599894 10.85233685419813 4.652433232590195 0 0 0
502 0 1 0 12.181608373794903 9.12404291588684 7.245586862163445 0 0 0
503 0 2 0 12.368125903703776 8.445559493995935 6.587975322830383 0 0 0
504 0 2 0 12.29336584444372 9.939291605130311 6.744338753533127 0 0 0
203 0 2 0 15.973972005377528 8.109706912357908 5.79513854170845 0 0 0
151 0 1 0 12.285989485614708 11.216943363805887 5.323077422649648 0 0 0
153 0 2 0 13.163812402651825 11.04403893056529 4.9645762150848105 0 0 0
507 0 2 0 15.765567882113308 8.817899804449812 7.838632323150022 0 0 0
207 0 2 0 15.69689644078626 11.104694652068325 6.577928586425215 0 0 0
537 0 2 0 13.272247369657787 8.86663825928208 8.328066616359335 0 0 0
210 0 2 0 19.323315291976748 8.187164987455722 5.8246356916163755 0 0 0
505 0 1 0 16.392122817330787 9.136626876594484 7.164255543048828 0 0 0
198 0 2 0 18.045593399093846 10.953158881494376 4.528511973790007 0 0 0
506 0 2 0 17.283836259663566 9.128381371680575 7.491691291432343 0 0 0
538 0 1 0 19.060359655772857 9.255672881012478 7.5739655231871374 0 0 0
539 0 2 0 19.776957240712136 9.016799612878687 8.18672753942171 0 0 0
540 0 2 0 19.286132886321795 9.99485099914574 7.02773357468859 0 0 0
187 0 1 0 19.323403229594774 11.269545731660706 5.796393351464158 0 0 0
133 0 1 0 2.7337098860407267 12.074317612339632 6.841892669270305 0 0 0
134 0 2 0 3.578788232702566 12.41656036037423 7.134448761678453 0 0 0
453 0 2 0 1.19920110830673 12.38561168105786 8.349505895813465 0 0 0
238 0 1 0 1.7441422306125374 13.748584239211725 4.855413559153706 0 0 0
239 0 2 0 0.7614227317442018 13.888640710685022 4.9327931808297665 0 0 0
240 0 2 0 2.097445786162807 12.950196808726366 5.292880757418159 0 0 0
542 0 2 0 2.4065335606104767 14.770699470616641 6.401592501731711 0 0 0
543 0 2 0 3.4153574480983027 15.63766274103204 7.273761548393795 0 0 0
541 0 1 0 2.5552496486796303 15.653197293599995 6.826314719512999 0 0 0
573 0 2 0 1.4316098996478233 15.85698721993755 8.088672887134823 0 0 0
246 0 2 0 4.891671711385917 14.261319715434816 4.659672072622431 0 0 0
117 0 2 0 5.664193034682606 12.273462794005138 5.735335324054786 0 0 0
244 0 1 0 5.576771913067856 14.08350020067446 5.266686335430421 0 0 0
245 0 2 0 5.353222466371881 14.658705048271667 6.082308378863442 0 0 0
276 0 2 0 7.370551911530785 14.099678989907021 5.006847151311763 0 0 0
575 0 2 0 5.800365114523811 15.910252591093036 8.066342014201679 0 0 0
169 0 1 0 9.36163823138259 12.059645818521535 6.9776425718599215 0 0 0
489 0 2 0 8.147596016149208 12.30105737354654 8.176496607452673 0 0 0
170 0 2 0 9.325960513474605 12.575775011086135 6.172371220002596 0 0 0
274 0 1 0 8.332043462226999 14.190237431095108 5.068916105990864 0 0 0
275 0 2 0 8.434357437543527 14.735923630286004 5.903879601767594 0 0 0
171 0 2 0 10.21973930355321 12.34159403628824 7.392610381964471 0 0 0
281 0 2 0 11.819350318097909 14.111867497389307 4.704398782390181 0 0 0
578 0 2 0 8.324571279793844 15.832027729922501 8.01316543499474 0 0 0
577 0 1 0 8.949666619619528 15.840772074132389 7.266960424716679 0 0 0
611 0 2 0 10.717429438781389 15.627415064382324 7.374848561794002 0 0 0
610 0 1 0 11.71130158918471 15.55248487202591 7.384435038259411 0 0 0
205 0 1 0 15.987308309115027 12.007540260158692 6.53871388209985 0 0 0
612 0 2 0 12.027277522582105 14.96172982053964 6.7143060906175895 0 0 0
206 0 2 0 15.373711572234413 12.441987450775999 7.1268910810039205 0 0 0
282 0 2 0 12.31093315916382 12.851985605632033 5.329778016483503 0 0 0
280 0 1 0 12.390222044797692 13.816636812646598 5.394804114781833 0 0 0
311 0 2 0 14.047308351313307 13.893449546593766 4.939196669401534 0 0 0
310 0 1 0 15.065017837640294 14.039902727345801 4.858710101991335 0 0 0
312 0 2 0 15.350230603123206 13.179959024014979 5.175964915137373 0 0 0
614 0 2 0 15.506984017914275 15.321311897330748 6.269433065112779 0 0 0
613 0 1 0 15.645326357006013 15.861142673300337 7.06039451035007 0 0 0
318 0 2 0 18.25178480959297 14.195520252305466 4.705105043402559 0 0 0
188 0 2 0 19.005243479379565 12.221865768010366 5.7144620835946975 0 0 0
518 0 2 0 17.56669589222971 12.320913255220853 7.473590666341499 0 0 0
316 0 1 0 18.973729061550593 13.925244150256223 5.288726430809653 0 0 0
317 0 2 0 18.832316634614685 14.453519023046319 6.090592710894284 0 0 0
647 0 2 0 17.82277545594232 15.822900776389355 7.515685045726296 0 0 0
648 0 2 0 19.249331799785452 15.732879030670109 8.128377443611162 0 0 0
519 0 2 0 18.988911589228117 12.635718746092634 8.139883335875975 0 0 0
517 0 1 0 17.998322536128263 12.708326752069715 8.264207566449434 0 0 0
646 0 1 0 18.722042209274875 15.804612193985545 7.2756993634915545 0 0 0
24 0 2 0 2.128454680052174 19.827125045682205 5.330580674133417 0 -1 0
241 0 1 0 2.3090698726566083 18.494358972095483 6.6510631466534305 0 0 0
242 0 2 0 2.195314580275968 17.68376316328277 6.16845521438169 0 0 0
243 0 2 0 3.21567354896613 18.539662632716457 7.066513667213422 0 0 0
560 0 2 0 1.0630970504847153 19.057384667591357 7.638461642551366 0 0 0
297 0 2 0 0.17269368094168835 17.54511686543191 5.193354343656219 1 0 0
574 0 1 0 5.137070697790547 16.25364922649316 7.411178895302072 0 0 0
30 0 2 0 5.994470727362053 19.78997401741976 5.5585652459568005 0 -1 0
224 0 2 0 5.425497249233905 17.60230002718303 5.04249095235628 0 0 0
223 0 1 0 6.0754239616732075 17.98516285037786 5.6913877070002545 0 0 0
225 0 2 0 6.929603463322089 17.779396827213827 5.285318646926526 0 0 0
576 0 2 0 5.6349518129415435 16.897042394540115 6.833226160673718 0 0 0
60 0 2 0 8.726639118974239 20.006368183432215 5.44311430893022 0 -1 0
278 0 2 0 8.245461867039419 18.845515780603748 7.665177946675592 0 0 0
277 0 1 0 8.975533080859307 18.754231006210844 7.042242465943281 0 0 0
579 0 2 0 9.020701932065512 16.722948920440476 6.882748797272374 0 0 0
279 0 2 0 9.812316789269817 18.80566201464095 7.537799196829871 0 0 0
260 0 2 0 12.301260680488927 18.62533717734384 6.02550796716333 0 0 0
261 0 2 0 12.239026800468432 17.017484519677506 6.326030675065685 0 0 0
299 0 2 0 14.059767070477331 17.588306357615398 4.786774550786246 0 0 0
259 0 1 0 12.41204107808439 17.722023574766745 5.678297640039368 0 0 0
315 0 2 0 15.141885362797943 18.855188119217114 7.290757493905348 0 0 0
314 0 2 0 15.730216415938377 19.525791187058076 6.029493991871986 0 0 0
313 0 1 0 15.776486753070117 18.681887969651 6.586566997778323 0 0 0
615 0 2 0 15.747210808976504 16.774650662248373 6.700605968916089 0 0 0
305 0 2 0 18.095111013731014 17.61240386475497 4.341298949488373 0 0 0
102 0 2 0 19.375411821289603 19.705880145851808 5.504445030124439 0 -1 0
295 0 1 0 19.496417169821072 17.86156299424112 5.532923556854231 0 0 0
296 0 2 0 19.272018080804813 17.247817430669617 6.242311351659076 0 0 0
627 0 2 0 17.277882570003108 18.94938989456612 7.405015582852405 0 0 0
626 0 2 0 18.793725730340377 19.180500945499848 8.149779441420375 0 0 0
625 0 1 0 17.822510769090307 19.34989524194669 8.151595650661328 0 0 0
335 0 2 0 1.062550462853213 3.375517921648703 10.047826102223828 0 0 0
347 0 2 0 2.483923257337486 1.1239442798429249 11.130121930775458 0 0 0
348 0 2 0 0.9166284982701074 0.7853349960741611 11.53462978882889 0 0 0
355 0 1 0 0.9818964129029883 1.8609156873236234 8.767499840516633 0 0 0
346 0 1 0 1.848101907504345 0.8082329925219044 11.784755691934494 0 0 0
561 0 2 0 0.653948235191857 -0.005047733129867126 8.753800225217509 0 1 0
336 0 2 0 2.304063858392926 3.969088933587117 10.62110280812722 0 0 0
329 0 2 0 4.18560057609938 2.4475831118360576 10.2066334680016 0 0 0
328 0 1 0 3.9753015367812727 1.5353962851026624 10.367480581084576 0 0 0
330 0 2 0 4.84774357663413 1.2550072985967105 10.801848182466234 0 0 0
393 0 2 0 7.404901533359885 1.0803298616966712 9.23193023513616 0 0 0
353 0 2 0 7.030731768404133 0.8783871195467335 12.017614506360978 0 0 0
391 0 1 0 7.599894824411021 1.9849521188597388 9.071387704176056 0 0 0
554 0 2 0 4.111018361132515 0.15841216221226692 9.035697581315809 0 1 0
352 0 1 0 6.052936373776599 0.9219122234944036 12.065756763093272 0 0 0
392 0 2 0 8.380651543856295 1.8879655238687207 8.466824058061835 0 0 0
372 0 2 0 8.1874186324325 3.578637873037465 10.158955622247193 0 0 0
382 0 1 0 8.631308810772044 0.5587956736306867 11.869381843784078 0 0 0
366 0 2 0 9.95142124969199 0.9636085972464581 10.40226116888778 0 0 0
364 0 1 0 10.81190096260752 1.1422348777438895 9.991483135566495 0 0 0
378 0 2 0 11.144012126366711 3.0548162092925373 10.274851582769145 0 0 0
365 0 2 0 11.417313289493462 1.0205567998557974 10.727478528946511 0 0 0
384 0 2 0 8.96611115662357 1.3351905497320335 12.362525695603825 0 0 0
427 0 1 0 14.601631926382744 2.1368244069432007 8.708489069053604 0 0 0
428 0 2 0 14.569538167454652 2.833118008852536 9.362542349050129 0 0 0
418 0 1 0 15.3243121217429 0.17951263347686422 11.878667801058763 0 0 0
389 0 2 0 13.567700422562798 0.8148854960326375 12.041602357158954 0 0 0
632 0 2 0 14.098188929479107 0.012470428174489595 8.691709136987553 0 1 0
388 0 1 0 12.635934097230725 0.9200674390769716 12.221500898924333 0 0 0
420 0 2 0 15.620294594953858 1.0244618064191326 12.285774051571186 0 0 0
400 0 1 0 17.42553074896435 1.195386226385875 9.950913929546516 0 0 0
402 0 2 0 16.658138446802177 0.7527763795508056 10.29664130404919 0 0 0