LAMMPS (29 Sep 2021 - Update 2)
  using 1 OpenMP thread(s) per MPI task
echo both

include		in.partitions
variable        pid world 0
include		in.temp
variable        temperature equal 240
variable	tempDamp equal 0.1
include		in.pressure
variable        pressure equal 3039.75
variable        pressureDamp equal 1.0 # This is 1 ps
include		in.seed
variable        seed world 745823

units           metal
atom_style	full
include		in.box
read_data       iceIII.data
Reading data file ...
  orthogonal box = (0.0000000 0.0000000 0.0000000) to (19.991053 19.991053 20.800772)
  1 by 1 by 1 MPI processor grid
  reading atoms ...
  972 atoms
Finding 1-2 1-3 1-4 neighbors ...
  special bond factors lj:    0        0        0       
  special bond factors coul:  0        0        0       
     0 = max # of 1-2 neighbors
     0 = max # of 1-3 neighbors
     0 = max # of 1-4 neighbors
     1 = max # of special neighbors
  special bonds CPU = 0.000 seconds
  read_data CPU = 0.029 seconds
include 	in.setup
variable	out_freq equal 500
variable	out_freq2 equal 500

timestep        0.0005

neigh_modify    delay 7 every 1

include         in.deepmd
# This is deepMD model

# create groups ###
#group ox type 2
#group hy type 1

mass 2 15.999
mass 1 1.008

pair_style      deepmd ../graph.pb
pair_coeff      * *

bond_style      none
angle_style     none
dihedral_style  none
improper_style  none
neigh_modify exclude none


neighbor        2.0 bin
neigh_modify    every 10 delay 0 check no

thermo          ${out_freq}
thermo          500
thermo_style 	custom step temp pe etotal epair emol press lx ly lz xy xz yz vol pxx pyy pzz pxy pxz pyz cella cellb cellc cellalpha cellbeta cellgamma

restart 	${out_freq} restart.lmp.${pid} restart2.lmp.${pid}
restart 	500 restart.lmp.${pid} restart2.lmp.${pid}
restart 	500 restart.lmp.0 restart2.lmp.${pid}
restart 	500 restart.lmp.0 restart2.lmp.0


include         in.dump
dump            myDump all atom ${out_freq2} dump.water.${pid}
dump            myDump all atom 500 dump.water.${pid}
dump            myDump all atom 500 dump.water.0
dump            myDump2 all dcd ${out_freq2} dump.dcd
dump            myDump2 all dcd 500 dump.dcd
dump_modify     myDump append yes
dump_modify     myDump2 append yes


timer           timeout 04:55:00 every 1000
New timer settings: style=normal  mode=nosync  timeout=04:55:00

fix             2 all nph aniso ${pressure} ${pressure} ${pressureDamp}
fix             2 all nph aniso 3039.75 ${pressure} ${pressureDamp}
fix             2 all nph aniso 3039.75 3039.75 ${pressureDamp}
fix             2 all nph aniso 3039.75 3039.75 1
fix             3 all temp/csvr ${temperature} ${temperature} ${tempDamp} ${seed}
fix             3 all temp/csvr 240 ${temperature} ${tempDamp} ${seed}
fix             3 all temp/csvr 240 240 ${tempDamp} ${seed}
fix             3 all temp/csvr 240 240 0.1 ${seed}
fix             3 all temp/csvr 240 240 0.1 745823
velocity 	all create ${temperature} ${seed} dist gaussian
velocity 	all create 240 ${seed} dist gaussian
velocity 	all create 240 745823 dist gaussian

run             400000

CITE-CITE-CITE-CITE-CITE-CITE-CITE-CITE-CITE-CITE-CITE-CITE-CITE

Your simulation uses code contributions which should be cited:

- USER-DEEPMD package:

@article{Wang_ComputPhysCommun_2018_v228_p178,
  author = {Wang, Han and Zhang, Linfeng and Han, Jiequn and E, Weinan},
  doi = {10.1016/j.cpc.2018.03.016},
  url = {https://doi.org/10.1016/j.cpc.2018.03.016},
  year = 2018,
  month = {jul},
  publisher = {Elsevier {BV}},
  volume = 228,
  journal = {Comput. Phys. Commun.},
  title = {{DeePMD-kit: A deep learning package for many-body potential energy representation and molecular dynamics}},
  pages = {178--184}
}

CITE-CITE-CITE-CITE-CITE-CITE-CITE-CITE-CITE-CITE-CITE-CITE-CITE

Neighbor list info ...
  update every 10 steps, delay 0 steps, check no
  max neighbors/atom: 2000, page size: 100000
  master list distance cutoff = 8
  ghost atom cutoff = 8
  binsize = 4, bins = 5 5 6
  1 neighbor lists, perpetual/occasional/extra = 1 0 0
  (1) pair deepmd, perpetual
      attributes: full, newton on
      pair build: full/bin
      stencil: full/bin/3d
      bin: standard
Per MPI rank memory allocation (min/avg/max) = 7.648 | 7.648 | 7.648 Mbytes
Step Temp PotEng TotEng E_pair E_mol Press Lx Ly Lz Xy Xz Yz Volume Pxx Pyy Pzz Pxy Pxz Pyz Cella Cellb Cellc CellAlpha CellBeta CellGamma 
       0          240   -175.65013   -145.52735   -175.65013            0     37388.95    19.991053    19.991053    20.800772            0            0            0    8312.8663    41176.014    41603.317     29387.52   -62.649418   -1048.8374   -442.56691    19.991053    19.991053    20.800772           90           90           90 
     500    237.99236   -164.49847   -134.62766   -164.49847            0    -442.7116    20.068666    19.975775    20.523133            0            0            0    8227.4602   -274.13556    437.47834   -1491.4776   -391.01971   -777.18379   -976.45301    20.068666    19.975775    20.523133           90           90           90 
    1000    251.00481   -164.02271    -132.5187   -164.02271            0   -178.19976    20.191254    20.081438    20.278219            0            0            0    8222.1976    267.69285    144.14966   -946.44179   -1246.6581   -563.46786   -869.00905    20.191254    20.081438    20.278219           90           90           90 
    1500    240.90704    -164.3362   -134.09957    -164.3362            0    8575.0871    20.233852    20.142527    20.265278            0            0            0    8259.3354    4869.3846    11220.142    9635.7344    1731.0157   -2491.2962    1000.5679    20.233852    20.142527    20.265278           90           90           90 
    2000    238.06203   -162.01926   -132.13971   -162.01926            0   -4239.5006    20.174061    20.110408    20.365211            0            0            0    8262.3413   -5721.8188     -1569.17   -5427.5128    493.67704   -1338.8899    434.33669    20.174061    20.110408    20.365211           90           90           90 
    2500    241.40458    -161.2965   -130.99742    -161.2965            0    3750.0008    19.974767    20.155655    20.500748            0            0            0    8253.6936    4654.8586    2233.4258     4361.718    3053.8473    1033.0528    413.08469    19.974767    20.155655    20.500748           90           90           90 
    3000    230.67252   -160.07274   -131.12067   -160.07274            0    5672.5167    19.993819    20.153718    20.643275            0            0            0    8318.2033    6549.1991     5519.554     4948.797     51.96247   -1154.2173    2122.9987    19.993819    20.153718    20.643275           90           90           90 
    3500     233.3256   -161.45929   -132.17422   -161.45929            0    5442.8832    20.197056    19.972381    20.444257            0            0            0    8246.8717    2437.6993    8760.7932    5130.1572    299.20949    1229.2172    635.24345    20.197056    19.972381    20.444257           90           90           90 
    4000      242.666   -162.99246   -132.53507   -162.99246            0    1874.1272    20.340625    20.019966    20.354798            0            0            0    8288.8531   -3473.9014    5092.1232    4004.1596   -1236.3419    995.56939   -2169.4532    20.340625    20.019966    20.354798           90           90           90 
    4500    246.70241   -163.60256   -132.63855   -163.60256            0    5765.2669    20.117917    20.124964    20.336623            0            0            0    8233.7364    7599.0096    3328.4691     6368.322    355.00912    2620.5013   -2098.3578    20.117917    20.124964    20.336623           90           90           90 
    5000    233.62289   -161.72366   -132.40128   -161.72366            0    2489.7363    20.023353    20.166211    20.496832            0            0            0    8276.5217    726.99952    3576.1497    3166.0596    922.64091     1101.098    910.93722    20.023353    20.166211    20.496832           90           90           90 
    5500    231.92421   -162.90067   -133.79149   -162.90067            0    2793.7672     20.05116    20.127237    20.587223            0            0            0    8308.4769    4006.3715    1189.1394    3185.7907   -1518.4152   -1319.6532    288.51322     20.05116    20.127237    20.587223           90           90           90 
    6000    242.97873   -162.73527   -132.23862   -162.73527            0    3963.9719    20.071299    20.108165    20.566422            0            0            0    8300.5464    7066.8537     3611.653    1213.4089    730.16094    -1449.098   -35.819683    20.071299    20.108165    20.566422           90           90           90 
    6500    242.72043   -163.77734   -133.31311   -163.77734            0    3048.6663    20.053493    20.085643     20.31792            0            0            0    8183.8003    3393.7419    5932.0458   -179.78879    393.50153    1104.6943      2582.09    20.053493    20.085643     20.31792           90           90           90 
    7000    239.08698   -161.03766   -131.02947   -161.03766            0   -1929.3037    20.309529    20.237757    20.310642            0            0            0     8348.066   -4503.3226   -1316.5159    31.927217    2070.8023    -1623.747   -845.23111    20.309529    20.237757    20.310642           90           90           90 
    7500    241.71707   -161.03954   -130.70124   -161.03954            0    5058.6433    20.219171    20.145743    20.226917            0            0            0    8239.0347    1644.0581    8055.2379    5476.6341     462.6348   -2296.9265    3842.7052    20.219171    20.145743    20.226917           90           90           90 
    8000    238.78705   -162.25741   -132.28687   -162.25741            0    2646.1523    20.098458     20.10869    20.522551            0            0            0    8294.2638     3050.233    2951.5915    1936.6324    318.79107    1690.0792   -878.89383    20.098458     20.10869    20.522551           90           90           90 
    8500    232.59338   -162.66682   -133.47365   -162.66682            0    1243.5486    19.960094    20.019054    20.815608            0            0            0    8317.5466    923.08582   -723.64359    3531.2036    460.20377    619.67062   -79.588158    19.960094    20.019054    20.815608           90           90           90 
    9000    251.12705   -162.08353   -130.56417   -162.08353            0    353.61681    20.046995    20.016713    20.788749            0            0            0    8342.0041   -1964.1766    4140.3032   -1115.2761    1219.4106   -1491.6307   -327.47082    20.046995    20.016713    20.788749           90           90           90 
    9500    244.03562   -161.73004   -131.10074   -161.73004            0    3177.1696    20.233216    20.173333    20.489861            0            0            0    8363.3757    1884.7633    4924.1423    2722.6033   -1694.4168    -1015.935   -2321.3642    20.233216    20.173333    20.489861           90           90           90 
   10000     250.2041   -161.60358   -130.20006   -161.60358            0    3254.0177     20.16785    20.241674    20.052491            0            0            0    8186.0494     46.60998    5647.9238    4067.5194   -512.86327    1039.3259    808.75665     20.16785    20.241674    20.052491           90           90           90 
   10500    253.80211   -160.71971    -128.8646   -160.71971            0    2355.1786    20.212643    20.259296    20.165425            0            0            0     8257.619    2682.8444    1589.4355    2793.2559   -621.56718   -550.44944   -777.98075    20.212643    20.259296    20.165425           90           90           90 
   11000    249.95711   -162.39275   -131.02023   -162.39275            0    1529.4065    20.277344    20.048307    20.545117            0            0            0    8352.1326    3568.8012    1593.4141   -573.99564   -892.72159   -592.40997   -153.66153    20.277344    20.048307    20.545117           90           90           90 
   11500    242.41183   -162.84095   -132.41546   -162.84095            0    2259.6552    20.095555    19.952561    20.687051            0            0            0    8294.6342    3485.5211    544.84584    2748.5986    1785.7969    1532.0732   -769.68495    20.095555    19.952561    20.687051           90           90           90 
   12000     244.3759   -161.57917   -130.90716   -161.57917            0    2975.9666    20.014031    20.082245    20.644628            0            0            0    8297.6269    1202.8761    4888.7592    2836.2646    683.87487   -526.49397    2140.9779    20.014031    20.082245    20.644628           90           90           90 
   12500     249.3906   -161.88011    -130.5787   -161.88011            0    2111.4812    20.059176      20.1989     20.47586            0            0            0    8296.2713    2870.2124    2590.3716    873.85969    219.98555    925.22329    1034.5163    20.059176      20.1989     20.47586           90           90           90 
   13000     250.0637   -161.44773   -130.06184   -161.44773            0     6610.254    20.155109      20.1159      20.2806            0            0            0    8222.5293    3577.8553    8613.5403    7639.3663   -471.10801   -1493.1765   -1275.7046    20.155109      20.1159      20.2806           90           90           90 
   13500    238.76571   -162.57058   -132.60272   -162.57058            0    2080.4647    20.335954    20.051075    20.336453            0            0            0    8292.3462    2694.9226    2012.4043    1534.0672    382.31169   -4341.0029     -2290.32    20.335954    20.051075    20.336453           90           90           90 
   14000    232.82329   -162.42935   -133.20732   -162.42935            0    2440.4595    20.304335    20.017771    20.420255            0            0            0    8299.7623    1116.3397      4167.45    2037.5887   -294.96743   -948.89134    1476.0026    20.304335    20.017771    20.420255           90           90           90 
   14500    232.95655   -163.50381   -134.26506   -163.50381            0    4024.7932    19.991483    20.186646    20.465431            0            0            0    8259.0495    1973.1817     5237.399     4863.799   -1727.5819    2734.5317    1201.3183    19.991483    20.186646    20.465431           90           90           90 
   15000    241.71576   -161.64341   -131.30528   -161.64341            0    1408.6035    19.954482    20.268242     20.47507            0            0            0    8280.9836    2006.8841   -2251.3452    4470.2717   -764.23721    1512.5798    2172.6361    19.954482    20.268242     20.47507           90           90           90 
   15500    243.78434   -162.42414   -131.82638   -162.42414            0    468.14296    20.226504    20.126341    20.473672            0            0            0    8334.5349   -841.30414    1626.9866    618.74641    377.48259   -59.283182   -173.08678    20.226504    20.126341    20.473672           90           90           90 
   16000    247.39625   -162.27514   -131.22404   -162.27514            0    6052.1973    20.289069    19.947884    20.342478            0            0            0    8233.0892    8008.7907     6293.589    3854.2122    218.13913    60.064629    275.80467    20.289069    19.947884    20.342478           90           90           90 
   16500     233.6397   -160.68826   -131.36377   -160.68826            0    179.63195    20.224743    20.110253    20.401898            0            0            0    8297.9557   -403.20125    927.38766    14.709425   -1436.2245   -165.04834    1050.9911    20.224743    20.110253    20.401898           90           90           90 
   17000    245.51254   -162.27307    -131.4584   -162.27307            0     3976.948    20.057108    20.249881    20.500873            0            0            0     8326.513    3466.3906    3732.3287    4732.1247   -1719.4013    2196.2316    2477.1334    20.057108    20.249881    20.500873           90           90           90 
   17500     248.7978   -162.75977   -131.53276   -162.75977            0     4732.122    20.048967    20.001771    20.531618            0            0            0    8233.4836     7219.046     4404.878    2572.4419    991.98036    1552.6406   -1638.4262    20.048967    20.001771    20.531618           90           90           90 
   18000    238.55287   -163.43382   -133.49267   -163.43382            0    3356.6038    20.214964    19.990259    20.563441            0            0            0     8309.735    2247.5667    4856.1074    2966.1372   -1267.2038    46.711759    4183.9623    20.214964    19.990259    20.563441           90           90           90 
   18500    234.48674   -162.43326   -133.00245   -162.43326            0    5313.7289    20.169426    20.178785    20.415645            0            0            0    8309.0555     5092.766    7171.2315    3677.1893    1306.6603    1128.6081    304.03737    20.169426    20.178785    20.415645           90           90           90 
   19000    242.98029   -162.97835    -132.4815   -162.97835            0    1318.0761    20.056285    20.241534     20.27651            0            0            0    8231.6545   -2366.4266    5031.9501    1288.7048    6.0358372   -165.18658     3617.576    20.056285    20.241534     20.27651           90           90           90 
   19500    247.38434   -163.13978   -132.09017   -163.13978            0    5554.7405    20.142794    20.056814    20.300008            0            0            0    8201.2085    5151.3063    5931.1334     5581.782   -29.752459   -949.45645    1660.7528    20.142794    20.056814    20.300008           90           90           90 
   20000    242.97199    -164.2035    -133.7077    -164.2035            0   -842.59576    20.414331    19.939051    20.620599            0            0            0    8393.4579   -2684.3715   -374.75539    531.33963    1059.9265    -3109.094    264.96383    20.414331    19.939051    20.620599           90           90           90 
   20500     241.5101   -163.29476   -132.98244   -163.29476            0    4533.3638    20.064508    19.904959    20.571382            0            0            0    8215.8646    5992.4932    2090.9433    5516.6548    858.60034   -1165.8573    248.70512    20.064508    19.904959    20.571382           90           90           90 
   21000    242.88565   -163.38806   -132.90309   -163.38806            0     5043.848    19.892045     20.24427    20.459953            0            0            0    8239.2217    9309.5451    2054.5386    3767.4604    1189.0154   -968.73047    1193.6308    19.892045     20.24427    20.459953           90           90           90 
   21500    237.37368   -164.19326   -134.40011   -164.19326            0   -1899.7596    20.192945    20.384928    20.405917            0            0            0     8399.723   -896.48483   -5155.5388    352.74476    612.71131   -982.20816   -1596.1916    20.192945    20.384928    20.405917           90           90           90 
   22000    244.38296   -162.57374   -131.90084   -162.57374            0    7264.0695    20.161919    20.015088    20.275437            0            0            0    8182.0024    5061.7768    9146.7779    7583.6538   -1.8818351    1248.7794   -1802.8423    20.161919    20.015088    20.275437           90           90           90 
   22500    233.89622    -161.4592   -132.10252    -161.4592            0    1530.6024    20.211931    20.088752     20.44117            0            0            0    8299.7787    2893.5826    461.18013    1237.0444    272.44681    492.92212    346.96949    20.211931    20.088752     20.44117           90           90           90 
   23000    233.15818   -162.92448   -133.66042   -162.92448            0    2710.6998    20.139563    20.129966    20.495231            0            0            0     8308.945    897.37825    4115.5016    3119.2194    2.7733278    375.18838    569.52444    20.139563    20.129966    20.495231           90           90           90 
   23500    237.94511   -161.56239   -131.69752   -161.56239            0     2123.344     20.12977    20.111466    20.548777            0            0            0    8318.9501    1726.4016    2658.4231    1985.2074   -1142.0321   -2024.3018    1882.9975     20.12977    20.111466    20.548777           90           90           90 
   24000    242.58773   -160.72946   -130.28189   -160.72946            0    5763.2951    20.030929    20.137215    20.392647            0            0            0    8225.7234    9140.8604    5838.9604    2310.0644   -671.67813   -2452.4753    743.19753    20.030929    20.137215    20.392647           90           90           90 
   24500    244.52993   -162.31185   -131.62051   -162.31185            0    862.46497    20.170498    20.219505    20.321796            0            0            0    8287.9902    885.90973   -286.22908    1987.7143   -113.09029   -332.71816   -3351.6274    20.170498    20.219505    20.321796           90           90           90 
   25000       242.22   -161.50699   -131.10557   -161.50699            0     2455.985    20.291441    20.081768    20.436455            0            0            0    8327.6102    2059.5017    3173.1531    2135.3003    479.15398    619.35667    1026.9416    20.291441    20.081768    20.436455           90           90           90 
   25500    242.48235   -161.12024   -130.68589   -161.12024            0    4478.4004    20.157996    19.969012    20.571637            0            0            0    8280.8092    4077.6913    5520.0991    3837.4107   -1633.0987   -1947.6945    1513.3813    20.157996    19.969012    20.571637           90           90           90 
   26000    235.30958   -160.11895   -130.58487   -160.11895            0    -453.6878      20.0007    20.148348    20.614287            0            0            0    8307.1674    179.24428   -2145.9974     605.6897    612.50467   -1197.9048    -522.0749      20.0007    20.148348    20.614287           90           90           90 
   26500    229.14319   -161.18492   -132.42479   -161.18492            0    5975.8904     19.97669    20.257856    20.413753            0            0            0    8261.1382    7437.5019    6855.1615    3635.0078   -935.74398    242.10946    1051.1482     19.97669    20.257856    20.413753           90           90           90 
   27000    245.29272   -161.06502   -130.27794   -161.06502            0    2242.8238    20.280822    20.198361    20.303832            0            0            0    8317.2485   -676.52535    4440.7128     2964.284   -388.21672   -1806.0348    1572.0804    20.280822    20.198361    20.303832           90           90           90 
   27500    247.26471   -162.62764   -131.59305   -162.62764            0    206.47935    20.369227    20.033615    20.303981            0            0            0    8285.4304   -3223.9972     3075.633    767.80225   -500.12451   -2269.7577   -1257.4012    20.369227    20.033615    20.303981           90           90           90 
   28000    240.00635   -162.65992   -132.53634   -162.65992            0      3238.37    20.097068    20.083714    20.614312            0            0            0    8320.4265    4381.1025    4157.6726     1176.335    621.01682   -1384.2483    548.70653    20.097068    20.083714    20.614312           90           90           90 
   28500    240.76104   -161.55174   -131.33343   -161.55174            0    322.27604    19.860937    20.154169    20.747649            0            0            0    8304.8836    1261.7481    -144.4906   -150.42939   -10.681114   -1227.7405   -39.034312    19.860937    20.154169    20.747649           90           90           90 
   29000    240.19056   -161.49076   -131.34406   -161.49076            0    499.92038    20.029218    20.097472    20.582261            0            0            0    8285.1143    3168.6905    493.50367   -2162.4331    195.56122     1697.152   -2428.5155    20.029218    20.097472    20.582261           90           90           90 
   29500    243.62068    -161.2789   -130.70168    -161.2789            0    3854.0512    20.253142    20.092436    20.358491            0            0            0    8284.5816    2998.1834    2575.2314    5988.7389   -2160.0788    735.70737    1626.8463    20.253142    20.092436    20.358491           90           90           90 
   30000    246.91969   -159.83874   -128.84745   -159.83874            0    1839.6097    20.319223     20.13214    20.326644            0            0            0    8315.0087    4220.6927    2603.6867   -1305.5501   -368.98909    3339.6446    1721.0447    20.319223     20.13214    20.326644           90           90           90 
   30500    238.00785   -159.96255   -130.08981   -159.96255            0    1526.4643    20.178275    20.141432    20.456293            0            0            0    8313.8334   -1042.0114    3352.3273    2269.0771   -1097.5554   -1677.5682    1332.8822    20.178275    20.141432    20.456293           90           90           90 
   31000     249.3828    -161.4689   -130.16846    -161.4689            0    4148.2778    20.033819    20.137008    20.519518            0            0            0    8278.0079    4837.4619    4384.6789    3222.6926   -621.88196    -142.4979    -157.2809    20.033819    20.137008    20.519518           90           90           90 
   31500    241.82181    -161.3052   -130.95376    -161.3052            0    2563.8342    20.078819    20.162879    20.529247            0            0            0    8311.1997    2180.2345    1831.2508    3680.0173     1532.077    918.06559    903.76124    20.078819    20.162879    20.529247           90           90           90 
   32000      233.139   -161.31042   -132.04877   -161.31042            0    3193.0302    20.179878    20.082334    20.427546            0            0            0    8278.4478     3066.924    806.19065    5705.9761    257.30679    2338.8089   -953.84643    20.179878    20.082334    20.427546           90           90           90 
   32500    248.23404   -162.17656    -131.0203   -162.17656            0    1166.5124    20.215299    20.103834    20.297899            0            0            0    8249.1678    517.13199    2080.7663    901.63897     762.4075   -2110.6317   -1965.1904    20.215299    20.103834    20.297899           90           90           90 
   33000    242.50576    -161.3575   -130.92021    -161.3575            0    2516.5991    20.186587    20.114805    20.346709            0            0            0    8261.7664    3232.0195    1002.4483    3315.3294    1335.1971   -374.67581    142.84137    20.186587    20.114805    20.346709           90           90           90 
   33500    232.69427   -161.64026   -132.43443   -161.64026            0    3038.1758    20.119973    20.184052    20.693809            0            0            0    8403.8092    2980.5964    2359.6913    3774.2396    1167.5086    256.16974    822.36304    20.119973    20.184052    20.693809           90           90           90 
   34000    234.36598   -162.93165     -133.516   -162.93165            0    2995.6883    19.835876    20.059626    20.723726            0            0            0    8245.9756    3004.6914    4334.7163    1647.6571    -596.8746    652.11684   -1387.2537    19.835876    20.059626    20.723726           90           90           90 
   34500     228.7546     -163.091   -134.37965     -163.091            0    3923.3676    19.939806    20.077696    20.515565            0            0            0    8213.3116    2275.7752    6135.1356     3359.192    1825.5192    931.39373    2974.8863    19.939806    20.077696    20.515565           90           90           90 
   35000    226.54683   -163.10469   -134.67044   -163.10469            0   -2225.8423    20.299023    20.241885    20.264596            0            0            0    8326.5296   -5466.4274   -1170.3131   -40.786533    1145.1409   -1005.5534    696.32895    20.299023    20.241885    20.264596           90           90           90 
   35500    238.56108    -163.5391   -133.59692    -163.5391            0    5449.2157    20.235992    20.151903    20.117439            0            0            0     8203.766    5613.2614    3936.2997    6798.0859    1740.3143    1774.0453    674.76519    20.235992    20.151903    20.117439           90           90           90 
   36000    240.10121   -162.74361   -132.60812   -162.74361            0    2873.4951     20.22503    20.058798    20.414538            0            0            0    8281.9698    605.10987    1857.4215     6157.954    329.77797    -2866.088   -1275.7963     20.22503    20.058798    20.414538           90           90           90 
   36500     240.9736   -162.06483   -131.81985   -162.06483            0    1155.5832    20.066603    19.973839    20.719069            0            0            0    8304.3499   -559.94883    2062.2227    1964.4758     418.0658   -680.09908    3400.1216    20.066603    19.973839    20.719069           90           90           90 
   37000    231.50568   -160.93729   -131.88064   -160.93729            0    5732.4152    20.022512    20.013775    20.675799            0            0            0    8285.3311    5362.0249    4455.4998    7379.7208    964.11205   -691.03063   -2075.2162    20.022512    20.013775    20.675799           90           90           90 
   37500    239.64211    -162.4766   -132.39874    -162.4766            0    2286.9387    20.126078    20.157184    20.424621            0            0            0    8285.9634    2709.5876    2286.8033    1864.4254   -284.05472    3701.6119    3636.0286    20.126078    20.157184    20.424621           90           90           90 
   38000    243.02373   -161.45613   -130.95383   -161.45613            0    3298.3497    20.243367    20.255574    20.214788            0            0            0    8288.8921    4748.8602    2084.8111    3061.3778    1205.8981    3452.1959    138.64755    20.243367    20.255574    20.214788           90           90           90 
   38500    241.77774   -161.25766   -130.91174   -161.25766            0     4324.699    20.262044    20.165237     20.29546            0            0            0    8292.4998      5427.78     2348.628    5197.6891   -1641.8696    -2096.799   -467.16015    20.262044    20.165237     20.29546           90           90           90 
   39000    233.61998   -161.91805   -132.59603   -161.91805            0    668.15503    20.116669     19.99856    20.461923            0            0            0    8231.9216    2558.2318   -83.092564    -470.6741    834.52765    1279.6749   -1226.5193    20.116669     19.99856    20.461923           90           90           90 
   39500    240.48749   -162.36558   -132.18161   -162.36558            0    2734.7088    20.084904    20.085628    20.636994            0            0            0    8325.3329    5457.3262    28.295552    2718.5046    1881.7494    594.68822     2836.493    20.084904    20.085628    20.636994           90           90           90 
   40000    245.33946   -163.05688   -132.26394   -163.05688            0    2832.9368    20.098083    20.143036    20.664237            0            0            0    8365.6355    3494.8221    1676.4981    3327.4903    107.87781   -2481.6371   -589.49212    20.098083    20.143036    20.664237           90           90           90 
   40500    235.52184      -162.11   -132.54928      -162.11            0     4369.058     20.02549     20.04503    20.440534            0            0            0    8205.0665    933.53896    7967.4536    4206.1815    1973.2863   -446.45944    631.84694     20.02549     20.04503    20.440534           90           90           90 
   41000    231.62181   -161.94084   -132.86962   -161.94084            0    3918.2744    20.190837    20.172975    20.423051            0            0            0     8318.498    5083.7568    1127.7564    5543.3101    -1380.259    966.12156   -2849.0088    20.190837    20.172975    20.423051           90           90           90 
   41500    250.27613   -163.07914   -131.66658   -163.07914            0    3602.0006    20.219262    20.207012    20.379172            0            0            0    8326.3361    2734.5801     4090.025    3981.3968    676.67898    -2589.684    455.40715    20.219262    20.207012    20.379172           90           90           90 
   42000    240.98674   -161.71553    -131.4689   -161.71553            0    2855.8507    20.199975    20.091702    20.424751            0            0            0    8289.4236    1931.9188    4936.8788    1698.7546   -714.47005    925.03633     965.1968    20.199975    20.091702    20.424751           90           90           90 
   42500    245.95074    -161.7062   -130.83653    -161.7062            0    5440.7972    20.053699    19.992182    20.517496            0            0            0    8225.8169    8038.6481    3316.4907    4967.2528    1611.0919   -1133.0045   -1335.3471    20.053699    19.992182    20.517496           90           90           90 
   43000    232.69069   -160.18292   -130.97754   -160.18292            0      122.705     20.13889    20.211741    20.785464            0            0            0    8460.5575   -681.06858    949.31915    99.864447    -392.2793   -1617.7265    1971.5384     20.13889    20.211741    20.785464           90           90           90 
   43500     243.3912   -162.32583   -131.77741   -162.32583            0    3566.9366    20.038582    20.153935    20.621455            0            0            0    8328.1038    7021.0278    1407.1086    2272.6734   -1828.0699    2137.8003    -429.7074    20.038582    20.153935    20.621455           90           90           90 
   44000     244.6525   -162.56057   -131.85384   -162.56057            0    4774.2237    20.060091    19.970466    20.326497            0            0            0    8142.9849    3507.7598    3979.8116    6835.0999   -51.533611   -870.50332    2026.4693    20.060091    19.970466    20.326497           90           90           90 
   44500    230.47927   -161.02961   -132.10179   -161.02961            0    3816.3106    20.357945    20.155232    20.402311            0            0            0    8371.4577   -1799.6562    8000.3309     5248.257   -2262.3225   -63.522102    1582.6904    20.357945    20.155232    20.402311           90           90           90 
   45000    228.21415   -162.46778   -133.82426   -162.46778            0    4489.8693    20.191273    20.216857    20.439426            0            0            0    8343.4568    7629.7846    1715.7946    4124.0286   -17.137343   -2360.1467   -639.99759    20.191273    20.216857    20.439426           90           90           90 
   45500     234.5593   -162.43318   -132.99326   -162.43318            0    7104.6324    19.904978    20.164301    20.467976            0            0            0    8215.2312    4957.1218    9826.7415     6530.034   -1940.4473   -588.58174     2596.554    19.904978    20.164301    20.467976           90           90           90 
   46000     239.6953   -162.65851   -132.57397   -162.65851            0    3379.6879    19.980483    20.170753    20.586766            0            0            0    8296.9066    2747.4442    3934.8161    3456.8034    828.11979   -246.63077    683.99704    19.980483    20.170753    20.586766           90           90           90 
   46500    241.06098   -162.63693   -132.38098   -162.63693            0    4297.4472    20.309193    20.053224    20.616001            0            0            0    8396.1714    5117.9779    4357.3882    3416.9756    887.64458   -1209.6568    16.366802    20.309193    20.053224    20.616001           90           90           90 
   47000    244.08621   -162.22964   -131.59399   -162.22964            0    4703.8513    20.248599    19.934044    20.441409            0            0            0     8250.898    3099.9796    6764.9752    4246.5992    839.73524   -111.03079   -138.13988    20.248599    19.934044    20.441409           90           90           90 
   47500    247.08059   -161.98039   -130.96891   -161.98039            0    1338.6476     20.12895    20.106949    20.389385            0            0            0    8252.2323    1104.2985    3885.9754   -974.33116   -713.28633   -239.05648    -1789.684     20.12895    20.106949    20.389385           90           90           90 
   48000    241.90341   -161.49788    -131.1362   -161.49788            0       4304.5    20.124711    20.265678    20.476458            0            0            0    8351.1374    5942.4783    2159.9668    4811.0548   -778.01843    1711.3715    1939.2568    20.124711    20.265678    20.476458           90           90           90 
   48500    236.69884   -161.33049   -131.62204   -161.33049            0    4681.6905    20.065216    20.144821     20.49118            0            0            0    8282.7432    4279.6145     5330.753    4434.7041   -765.58625   -2249.3446    1323.3077    20.065216    20.144821     20.49118           90           90           90 
   49000    243.52019   -160.61172   -130.04712   -160.61172            0    3286.1084    20.119137    20.036359    20.538372            0            0            0    8279.3103    3712.5834    839.58444    5306.1572   -969.70231   -557.43895   -660.73409    20.119137    20.036359    20.538372           90           90           90 
   49500     259.6062   -160.16282   -127.57923   -160.16282            0    6211.8331    20.200749     20.18485    20.589987            0            0            0    8395.5484    2373.4687    9484.0362    6777.9944   -2289.4918    151.36858    363.53521    20.200749     20.18485    20.589987           90           90           90 
   50000    249.65283     -160.791   -129.45667     -160.791            0    1488.0784    20.044302    20.234034    20.469444            0            0            0    8301.9377    552.07087    1883.8205    2028.3437    369.37081    2144.3927   -1990.2886    20.044302    20.234034    20.469444           90           90           90 
   50500    238.28115    -161.5507   -131.64365    -161.5507            0    5130.9196    20.114246    20.029563    20.348035            0            0            0    8197.8076    3560.4321    7307.1544    4525.1722   -629.43543    1549.3663   -3365.7526    20.114246    20.029563    20.348035           90           90           90 
   51000    233.39574   -160.25778   -130.96391   -160.25778            0    3931.0805    20.438086    19.957263     20.39975            0            0            0    8320.8187    2665.2831    4218.6143    4909.3442    -38.13796   -1911.9586    2903.5983    20.438086    19.957263     20.39975           90           90           90 
   51500    243.20485   -162.60112   -132.07609   -162.60112            0   -1296.3406    20.396981    20.101526     20.48462            0            0            0     8398.908   -914.32928   -1303.6037   -1671.0888   -294.52171    1320.4927   -1201.1496    20.396981    20.101526     20.48462           90           90           90 
   52000     232.7965   -162.62037   -133.40171   -162.62037            0    3446.6454    19.793336    20.178655     20.46041            0            0            0    8171.9469    5008.7456    260.42497    5070.7657   -6.2745725    453.56061    1219.8353    19.793336    20.178655     20.46041           90           90           90 
   52500    239.70734   -161.05342   -130.96737   -161.05342            0    3402.5534    19.814781    20.194299    20.593274            0            0            0    8240.3079    3413.7818    3170.2282    3623.6502   -1928.1903   -1807.3743    -794.2279    19.814781    20.194299    20.593274           90           90           90 
   53000     242.5351   -163.29212   -132.85115   -163.29212            0    1983.6258    20.259098    20.115796    20.626127            0            0            0    8405.7216    2467.9975    2926.5036    556.37644   -560.39983    1006.6808   -284.18045    20.259098    20.115796    20.626127           90           90           90 
   53500    239.99177   -161.90348   -131.78173   -161.90348            0    5716.3494    20.310602     20.02496    20.423094            0            0            0    8306.4601    6379.7391    3034.8942    7734.4149   -1587.6569    116.08316   -1215.5474    20.310602     20.02496    20.423094           90           90           90 
   54000    239.95241   -161.21645   -131.09964   -161.21645            0    5587.9885    20.116575     20.09937    20.339974            0            0            0    8224.0714      5468.99     4208.348    7086.6274    1457.4029   -3083.9904   -68.152422    20.116575     20.09937    20.339974           90           90           90 
   54500    239.89522   -164.03745   -133.92782   -164.03745            0    4647.1953    20.063045    20.244711    20.458715            0            0            0    8309.7272    8152.4022    4005.5923    1783.5914   -198.98875   -1070.6323    2004.8462    20.063045    20.244711    20.458715           90           90           90 
   55000     238.7638    -162.1646   -132.19698    -162.1646            0    2173.3097    20.116099     20.19565     20.44003            0            0            0    8303.9196    3191.4566   -42.084087    3370.5567    -7.680505    332.79208   -852.48018    20.116099     20.19565     20.44003           90           90           90 
   55500    237.87062   -163.28858   -133.43306   -163.28858            0    2483.3776    20.192991    20.035553    20.406524            0            0            0    8256.0255    742.09179    5527.5805    1180.4604    16.148316   -1071.3799    1195.6162    20.192991    20.035553    20.406524           90           90           90 
   56000      241.384   -161.11333   -130.81683   -161.11333            0   -345.27396    20.261278    20.047695    20.481419            0            0            0    8319.3871   -1336.1968    1634.5033   -1334.1284    1314.8007    1445.4833   -2168.5107    20.261278    20.047695    20.481419           90           90           90 
   56500    246.66792   -162.44301   -131.48332   -162.44301            0     882.3438    20.176333    20.179509    20.439647            0            0            0    8321.9714     3040.747   -991.55137    597.83579    1025.1077    388.07159   -2591.2182    20.176333    20.179509    20.439647           90           90           90 
   57000    244.47067   -162.38566   -131.70176   -162.38566            0    1906.8142    20.009128    20.173696    20.309145            0            0            0    8197.9503    2421.0798    3058.0052    241.35758    283.52282   -254.47217    -631.0535    20.009128    20.173696    20.309145           90           90           90 
   57500    237.69359   -162.29206   -132.45876   -162.29206            0    1389.6634    20.167759    20.224123    20.409662            0            0            0    8324.5959    5139.5799   -2565.8275    1595.2379     420.7504   -843.81044   -52.083595    20.167759    20.224123    20.409662           90           90           90 
   58000    240.85049   -162.31802   -132.08849   -162.31802            0    2123.2315    20.315069    19.993162    20.532123            0            0            0    8339.3775    1051.2672    5019.8964    298.53107    1107.5316    2.3847884   -349.13624    20.315069    19.993162    20.532123           90           90           90 
   58500    238.09978   -161.95386   -132.06957   -161.95386            0    1902.8129    20.130737    19.913713    20.646086            0            0            0    8276.5559    805.56542    4419.6284    483.24488     1273.476   -2273.5815   -2199.6174    20.130737    19.913713    20.646086           90           90           90 
   59000     245.5608   -161.82605   -131.00532   -161.82605            0    908.53821    19.979352    20.211874    20.668978            0            0            0    8346.5495   -2556.8593    3362.1946    1920.2793    1727.4376    2389.7351   -430.70553    19.979352    20.211874    20.668978           90           90           90 
   59500    242.55428   -161.38216   -130.93879   -161.38216            0     3984.028    20.020552    20.231011    20.381773            0            0            0    8255.3518    3992.1965    3923.7984     4036.089   -132.73174   -508.15962    1821.9954    20.020552    20.231011    20.381773           90           90           90 
   60000    227.53086   -161.34411   -132.78635   -161.34411            0    4507.5499     20.31116    20.146008    20.248048            0            0            0    8285.2741    4896.8888    3780.5898    4845.1712    1688.6257   -1814.7143    792.46027     20.31116    20.146008    20.248048           90           90           90 
   60500    236.93832   -162.79213   -133.05362   -162.79213            0    3983.0697    20.278159    20.057419    20.313843            0            0            0    8262.1992    4761.8638    3638.5353    3548.8099   -609.06215    453.55528    527.91004    20.278159    20.057419    20.313843           90           90           90 
   61000    241.13382   -161.98037   -131.71528   -161.98037            0    873.12674    20.029988    20.106659    20.486134            0            0            0    8250.5062   -551.64542    1608.2957    1562.7299   -591.35086   -1461.6004   -1506.0561    20.029988    20.106659    20.486134           90           90           90 
   61500    242.41212   -161.94265   -131.51712   -161.94265            0    350.34333    20.061069    20.202403    20.730379            0            0            0    8401.6457    2345.0793    431.81336   -1725.8627    1188.3951      1723.66   -201.90308    20.061069    20.202403    20.730379           90           90           90 
   62000    252.68424   -162.66895   -130.95415   -162.66895            0    7354.3295    20.035299    19.991976    20.479249            0            0            0    8202.8652     7266.908    6085.6374     8710.443    36.037364    208.98216   -2147.2609    20.035299    19.991976    20.479249           90           90           90 
   62500    230.13877   -161.19994   -132.31486   -161.19994            0    1511.8035    20.255976    20.104374    20.486869            0            0            0    8342.9439    2732.1773     590.3872    1212.8458    -571.2126    117.46516   -111.40738    20.255976    20.104374    20.486869           90           90           90 
   63000    256.30503   -161.59752   -129.42827   -161.59752            0    2190.5024    20.213204    20.130557    20.425981            0            0            0    8311.3944    214.61375    2289.9901    4066.9032    876.44451    2883.7164    1105.1363    20.213204    20.130557    20.425981           90           90           90 
   63500    242.27844   -162.72719   -132.31843   -162.72719            0    3779.7784    20.031033    20.152777    20.375308            0            0            0    8225.1232    8770.6785    434.98144    2133.6754   -349.99208    1366.1515   -2970.5671    20.031033    20.152777    20.375308           90           90           90 
   64000    242.51427   -161.66564   -131.22729   -161.66564            0    2787.4676    20.135169    20.305163    20.504926            0            0            0    8383.3957    6678.8763    -944.8315    2628.3579    730.10224    2531.5358    2129.2448    20.135169    20.305163    20.504926           90           90           90 
   64500    255.17786   -163.77766   -131.74987   -163.77766            0    4567.6759    20.185869    20.099896    20.514619            0            0            0    8323.4758    3800.6425    5282.1563     4620.229     790.0399     1715.779     1180.264    20.185869    20.099896    20.514619           90           90           90 
   65000    230.61892   -162.81943   -133.87408   -162.81943            0    3799.3136    20.121209    19.935211    20.456331            0            0            0    8205.4549    4762.7955    2644.3373     3990.808    412.57722   -462.52199      264.425    20.121209    19.935211    20.456331           90           90           90 
   65500    234.86982   -162.19557   -132.71668   -162.19557            0    312.00284    20.169449    20.183191    20.559914            0            0            0    8369.6086   -1377.6307    2512.5032   -198.86403   -1070.4497    228.59233   -1444.9762    20.169449    20.183191    20.559914           90           90           90 
   66000    248.19909   -161.23926   -130.08739   -161.23926            0    5705.6243    20.094372    20.158947     20.52277            0            0            0    8313.3917    8739.5321    4245.9537     4131.387    542.73192    1039.6498    342.18113    20.094372    20.158947     20.52277           90           90           90 
   66500    236.72789   -160.62301   -130.91092   -160.62301            0    29.964838    20.065056    20.074337    20.447357            0            0            0    8236.0461    2001.6142   -1620.0143   -291.70544   -280.54936   -2055.5912    665.26377    20.065056    20.074337    20.447357           90           90           90 
   67000    239.19324   -162.87558   -132.85405   -162.87558            0    3289.0272    20.117683    20.125446    20.368731            0            0            0    8246.8377    3585.3256    1529.4387    4752.3174    429.32871   -1384.8681    504.25089    20.117683    20.125446    20.368731           90           90           90 
   67500    239.48451   -162.87731   -132.81922   -162.87731            0      1306.07    20.205192    20.250223    20.443779            0            0            0    8364.7692    924.15467    1171.5874    1822.4679    606.59046    2775.9676   -1450.4701    20.205192    20.250223    20.443779           90           90           90 
   68000    236.69006   -162.32572   -132.61837   -162.32572            0   -584.32945    20.146576    20.140804    20.466719            0            0            0    8304.7445   -2018.4861   -1643.1171    1908.6149    708.76601   -1133.3307    140.35265    20.146576    20.140804    20.466719           90           90           90 
   68500    248.01527   -162.37537   -131.24657   -162.37537            0      2616.36    20.062367    19.934202    20.441989            0            0            0     8175.309    3029.4969    3790.6861    1028.8969   -827.04764   -226.65667   -2512.7306    20.062367    19.934202    20.441989           90           90           90 
   69000     229.7505   -161.97967   -133.14332   -161.97967            0     1971.798    20.251336    20.084517    20.593009            0            0            0    8375.9659   -3877.1941    7016.2804    2776.3078    471.59544   -444.90269    821.62899    20.251336    20.084517    20.593009           90           90           90 
   69500    241.09882   -163.54752   -133.28682   -163.54752            0    2811.6631    20.104837    20.134648    20.422205            0            0            0    8266.9867    3669.8354    1595.0861    3170.0679   -1289.0909    1637.4039    1070.2669    20.104837    20.134648    20.422205           90           90           90 
   70000    238.65434   -162.71885   -132.76496   -162.71885            0    3501.4809    19.993795    20.232785    20.279345            0            0            0    8203.6068    3666.4205    3905.1416    2932.8805    1030.7622   -3770.8568    -300.1088    19.993795    20.232785    20.279345           90           90           90 
   70500    236.65868   -162.64506   -132.94165   -162.64506            0    1554.5212    20.090981    20.241651    20.320197            0            0            0    8263.7083    1495.0362    3726.1392   -557.61166    980.78657   -1989.0099    625.23987    20.090981    20.241651    20.320197           90           90           90 
   71000    239.33502   -162.97148   -132.93216   -162.97148            0   -141.80039    20.243898    20.007235    20.427337            0            0            0    8273.5705   -4451.2535    2143.1875    1882.6648   -17.830576    1399.7815   -292.18179    20.243898    20.007235    20.427337           90           90           90 
   71500    239.30132   -162.25121   -132.21612   -162.25121            0    1628.0461    20.239307    19.868859     20.57073            0            0            0    8272.1474    1135.1351    3584.2901    164.71312   -1138.3501   -1107.3868    3299.8141    20.239307    19.868859     20.57073           90           90           90 
   72000    244.76478   -160.40697   -129.68615   -160.40697            0   -911.49031    20.025534    20.085219    20.587634            0            0            0    8280.7014   -1813.2279    1284.4753   -2205.7183   -1398.0163   -740.93842    941.96291    20.025534    20.085219    20.587634           90           90           90 
   72500    233.85493   -160.92512   -131.57362   -160.92512            0    1467.2339    20.027428    20.338931    20.532495            0            0            0    8363.6343    2209.8052   -1532.4718    3724.3682    332.38979   -265.00202    2038.8888    20.027428    20.338931    20.532495           90           90           90 
   73000     237.2091   -162.63469   -132.86219   -162.63469            0    3478.3135    20.178071    20.154509    20.389692            0            0            0    8292.0614    2627.3509    5299.9838    2507.6059     1201.809   -328.24882    1235.8292    20.178071    20.154509    20.389692           90           90           90 
   73500    246.16292   -162.65633   -131.76003   -162.65633            0    5952.3313    20.233055     19.97243    20.286706            0            0            0    8197.9242    5906.3026    7010.8301    4939.8614   -1244.3653   -1809.6881    2977.8382    20.233055     19.97243    20.286706           90           90           90 
   74000    234.70321   -162.15428    -132.6963   -162.15428            0   -696.80196    20.219174    20.186778    20.454394            0            0            0    8348.6652   -1721.7247   -774.83225    406.15109    726.41285    1632.7705    -2869.956    20.219174    20.186778    20.454394           90           90           90 
   74500    229.34725   -161.24069   -132.45495   -161.24069            0     1365.067    20.050239    20.227638     20.58994            0            0            0    8350.6406    564.81078    287.08134    3243.3089   -2132.3089   -1585.3387   -879.64122    20.050239    20.227638     20.58994           90           90           90 
   75000    242.53014   -161.28303   -130.84269   -161.28303            0    5186.4177    20.022443    19.961947    20.530816            0            0            0    8205.8993    6514.9039    4224.9361    4819.4132    602.15886   -1805.6898   -419.21359    20.022443    19.961947    20.530816           90           90           90 
   75500    236.85929    -162.9001   -133.17151    -162.9001            0    2193.8764     20.25667    20.058046    20.477021            0            0            0    8320.0023    1804.9436    4333.9828    442.70286   -418.97066   -659.14518   -370.23757     20.25667    20.058046    20.477021           90           90           90 
   76000    237.91084   -161.36818   -131.50761   -161.36818            0    3347.5674    20.384538    20.235222    20.328075            0            0            0    8385.0393    1543.8459    3687.5128    4811.3434    114.67588   -2068.7698    125.25204    20.384538    20.235222    20.328075           90           90           90 
   76500    228.96836   -163.85914   -135.12095   -163.85914            0    8675.5679    20.137507    20.098055     20.19697            0            0            0    8174.2131    8436.1092    12135.577    5455.0177   -205.38671   -418.64792    169.68761    20.137507    20.098055     20.19697           90           90           90 
   77000    224.90471   -163.30789   -135.07974   -163.30789            0     2204.763    19.937216    20.116274    20.485588            0            0            0    8216.0013    1432.1768    2293.5559    2888.5563   -429.34602    2332.3208   -586.11818    19.937216    20.116274    20.485588           90           90           90 
   77500    242.15224   -162.54118   -132.14826   -162.54118            0   -1226.3268    20.046279    20.204237    20.832366            0            0            0      8437.52   -1508.8273   -1055.4355   -1114.7175     1360.531   -271.14598   -188.88821    20.046279    20.204237    20.832366           90           90           90 
   78000    244.67998   -160.09652   -129.38635   -160.09652            0    5599.1143    20.140692    20.035406    20.606996            0            0            0    8315.4783    8353.8175    5513.2356    2930.2898   -2351.1951   -2111.6145   -2138.3883    20.140692    20.035406    20.606996           90           90           90 
   78500    236.48324   -163.26508   -133.58369   -163.26508            0    4448.5758     20.14477    20.004073    20.218282            0            0            0    8147.5116    2582.3604    6687.8331    4075.5339     569.8274    259.61532   -461.49586     20.14477    20.004073    20.218282           90           90           90 
   79000     232.6616   -162.68287   -133.48114   -162.68287            0     786.5728    20.300803    20.306898    20.322862            0            0            0    8378.0254    2793.2948   -1881.3974     1447.821     256.0697   -1236.6597   -857.80799    20.300803    20.306898    20.322862           90           90           90 
   79500    238.35955   -161.39308   -131.47619   -161.39308            0    5171.3665    20.156416    20.164246    20.402859            0            0            0    8292.5164    5068.8333    3983.9658    6461.3003   -489.05626   -2078.8737    2378.6325    20.156416    20.164246    20.402859           90           90           90 
   80000    249.36624    -162.1643   -130.86594    -162.1643            0    322.31289    20.045723     20.07067    20.460616            0            0            0     8231.942    3280.9391    -3790.206    1476.2056   -372.44101   -661.27764   -820.19645    20.045723     20.07067    20.460616           90           90           90 
   80500    234.87802   -161.37934   -131.89943   -161.37934            0    3408.3971    20.192227    20.168203    20.536803            0            0            0    8363.4266    4236.4314    2328.3242    3660.4357    714.99894   -445.14736   -276.63996    20.192227    20.168203    20.536803           90           90           90 
   81000    236.99871   -161.76224   -132.01615   -161.76224            0    5486.8623    20.183372    20.166328    20.463934            0            0            0    8329.3225    4568.9337    8556.8398    3334.8133    1352.8424   -1320.9743   -307.16784    20.183372    20.166328    20.463934           90           90           90 
   81500    233.33523   -161.59027   -132.30399   -161.59027            0    4748.8024    20.040143    20.095317    20.387584            0            0            0    8210.3456    1656.8551    6734.9594    5854.5927    55.566533    4305.4715   -585.62962    20.040143    20.095317    20.387584           90           90           90 
   82000     239.2966   -163.48122   -133.44672   -163.48122            0    2161.3661    20.195099    20.136091    20.568234            0            0            0    8364.0801    2698.9979    3064.6897    720.41081   -1689.4387   -830.29227   -797.52956    20.195099    20.136091    20.568234           90           90           90 
   82500    248.01345   -161.30373   -130.17517   -161.30373            0     707.2799    20.287639    20.102637     20.64197            0            0            0    8418.5183    2309.3904   -534.28058    346.72987    2263.9665   -145.59943     328.7346    20.287639    20.102637     20.64197           90           90           90 
   83000    239.43172   -160.98723   -130.93577   -160.98723            0    1358.9352    19.996415    19.968251    20.397101            0            0            0    8144.4286    1787.8689    1079.7617    1209.1749   -214.36592   -1278.3512    1938.8385    19.996415    19.968251    20.397101           90           90           90 
   83500    240.91747   -162.03073   -131.79279   -162.03073            0    662.24198    20.113381    20.310697    20.392068            0            0            0    8330.5021   -2399.2967    2619.9854    1766.0372    2127.1935    1933.5126      2255.85    20.113381    20.310697    20.392068           90           90           90 
   84000    244.71862   -160.45142    -129.7364   -160.45142            0    5788.1001    20.179587    20.350576    20.327642            0            0            0    8347.8759    4200.9889    5455.5881    7707.7233    -444.1801   -837.18397    1061.9844    20.179587    20.350576    20.327642           90           90           90 
   84500    233.83215    -160.7888   -131.44015    -160.7888            0    3302.4738    20.105363    20.067188    20.349593            0            0            0    8210.2085    4232.2957    1832.7607    3842.3649   -203.86439    139.43907   -139.18477    20.105363    20.067188    20.349593           90           90           90 
   85000    247.64879   -164.19019    -133.1074   -164.19019            0    1316.9836    20.206579    20.011822    20.572902            0            0            0     8319.074    3452.3353    -239.8421    738.45753    1144.8102   -2701.1995   -628.20136    20.206579    20.011822    20.572902           90           90           90 
   85500      252.598   -162.17923   -130.47525   -162.17923            0    5027.4607    20.182732    20.027489    20.564611            0            0            0      8312.41    4976.4115    5884.2233    4221.7472   -1227.9046   -527.84845    -1076.847    20.182732    20.027489    20.564611           90           90           90 
   86000    234.67717   -161.01411    -131.5594   -161.01411            0    1698.8597    20.141389    20.076336    20.491175            0            0            0    8285.9198    6571.1724   -4034.8956    2560.3025    379.83584    5291.3242    1153.8951    20.141389    20.076336    20.491175           90           90           90 
   86500     241.1371     -163.551    -133.2855     -163.551            0    4884.7148    20.142578    20.107427    20.338236            0            0            0    8237.2988    7389.8433    2765.5217    4498.7794    961.04302    1020.7424   -1100.8475    20.142578    20.107427    20.338236           90           90           90 
   87000    233.49446   -163.10499   -133.79873   -163.10499            0    4867.6837    20.168999    20.259147    20.355094            0            0            0    8317.2281    1862.8052    7984.1191     4756.127   -903.18477   -1559.4153    637.64627    20.168999    20.259147    20.355094           90           90           90 
   87500     230.8862   -161.60571   -132.62681   -161.60571            0    1916.7264    20.015019    20.213967    20.478811            0            0            0    8285.3777    1620.5696    1119.9672    3009.6424    655.17295      410.298   -752.08677    20.015019    20.213967    20.478811           90           90           90 
   88000    244.19478   -162.10135   -131.45207   -162.10135            0    2931.4107     19.97323     20.06631    20.564947            0            0            0    8242.2047    2500.4776    2988.7359    3305.0186    521.57284   -524.51588    2844.3686     19.97323     20.06631    20.564947           90           90           90 
   88500    238.17889   -162.82837   -132.93415   -162.82837            0    1334.1675    20.217911      20.0073    20.583235            0            0            0    8326.0381     1333.882   -8.6799653    2677.3004    338.90278   -451.05342   -375.41898    20.217911      20.0073    20.583235           90           90           90 
   89000    228.46759   -163.04818   -134.37285   -163.04818            0    840.91129    20.314474      19.9889    20.439997            0            0            0     8299.947   -1962.0537    1329.0965    3155.6911    177.09012    637.92287    888.68502    20.314474      19.9889    20.439997           90           90           90 
   89500     233.4552    -163.9382   -134.63686    -163.9382            0    5306.7431    20.179771    20.077037    20.292771            0            0            0    8221.6161    7608.8542    2848.1751    5463.2002   -1576.3905   -1332.9645   -282.30458    20.179771    20.077037    20.292771           90           90           90 
   90000    231.64853   -163.27184   -134.19727   -163.27184            0    4534.0698    20.042107    20.193221    20.315126            0            0            0    8221.8303    5826.6512    2539.3911     5236.167   -17.436531   -843.87544   -832.57974    20.042107    20.193221    20.315126           90           90           90 
   90500    243.89544   -162.63446   -132.02275   -162.63446            0    3352.1132    20.067007    20.162094    20.551176            0            0            0    8314.8591    2506.2427    5445.5317    2104.5652    2125.2059   -3195.3141    1969.9362    20.067007    20.162094    20.551176           90           90           90 
   91000    237.68595   -162.02643   -132.19409   -162.02643            0    2916.5666    20.159944      20.0528     20.65198            0            0            0    8348.8384    865.10698    3726.5111    4158.0818   -1080.2896    1902.7928   -505.20737    20.159944      20.0528     20.65198           90           90           90 
   91500    229.79851   -163.94405   -135.10167   -163.94405            0    3484.0089    20.200888    19.948856    20.457053            0            0            0    8243.8776    2662.4495    6021.5786    1767.9987     458.4804   -1254.8557    -1559.836    20.200888    19.948856    20.457053           90           90           90 
   92000    240.69112    -163.6169   -133.40738    -163.6169            0    2919.3125    20.157934    20.055016    20.226413            0            0            0    8176.8854    3855.4135   -556.36613      5458.89    1193.1459     -596.189   -1218.7207    20.157934    20.055016    20.226413           90           90           90 
   92500    235.79399   -162.60919   -133.01431   -162.60919            0    2646.6411    20.251903    20.344762    20.327532            0            0            0    8375.3526    1506.6967    3907.9821    2525.2445    978.77534    1285.2379   -1078.6023    20.251903    20.344762    20.327532           90           90           90 
   93000    234.56349   -161.74794    -132.3075   -161.74794            0    2557.5779    20.036922    20.141208    20.416166            0            0            0    8239.3075    718.04884    2783.2051    4171.4797    348.90512   -1177.1183   -1254.1624    20.036922    20.141208    20.416166           90           90           90 
   93500    237.32069   -163.00123   -133.21473   -163.00123            0    4439.3411    19.995008     19.98311    20.539644            0            0            0    8206.8702    6358.4624    3288.3617    3671.1991   -729.46609    2425.3033   -880.59877    19.995008     19.98311    20.539644           90           90           90 
   94000    225.99625   -161.68363   -133.31848   -161.68363            0    1776.8883     20.15826    20.104311    20.586165            0            0            0    8342.9125    3515.9986    2119.7888   -305.12239    1445.7251   -2310.4874   -2421.1168     20.15826    20.104311    20.586165           90           90           90 
   94500     238.7256   -162.86299   -132.90015   -162.86299            0    1676.0301    20.163436    20.162444    20.405104            0            0            0    8295.5756    1225.8786    373.19606    3429.0157   -1371.9417   -22.922254   -1261.9205    20.163436    20.162444    20.405104           90           90           90 
   95000    223.34695   -162.73294    -134.7003   -162.73294            0    1367.7306     20.06907    20.021012    20.229469            0            0            0    8128.2629   -1406.6704     2843.825    2666.0373    560.17846    1941.0568    66.359423     20.06907    20.021012    20.229469           90           90           90 
   95500    242.13321   -162.83741   -132.44689   -162.83741            0    1693.8527    20.279881    20.176285    20.467128            0            0            0    8374.5894   -2727.4439    4801.2261     3007.776   -788.44907    -3056.244   -298.30884    20.279881    20.176285    20.467128           90           90           90 
   96000    240.27883   -161.21961   -131.06183   -161.21961            0     1626.224    20.194869    20.119521    20.627799            0            0            0    8381.3035    469.47602    1766.7766    2642.4193   -227.20125   -1685.9381    2976.6816    20.194869    20.119521    20.627799           90           90           90 
   96500    244.65717   -162.34313   -131.63582   -162.34313            0    1918.8794    20.008829    19.974659    20.472561            0            0            0    8182.2587    5165.7643    1482.0099   -891.13591   -454.79513   -1381.8271    1362.9667    20.008829    19.974659    20.472561           90           90           90 
   97000     245.6836   -163.30702   -132.47088   -163.30702            0     6608.106    20.123708    20.148236    20.407128            0            0            0     8274.217    7370.0356    3800.0431    8654.2394     764.4479     2903.144   -1106.0903    20.123708    20.148236    20.407128           90           90           90 
   97500    238.32352   -161.89859   -131.98623   -161.89859            0    485.61809    20.213604    20.288308    20.413577            0            0            0    8371.6043    465.86703    1700.7399   -709.75263   -534.29184   -1386.4964   -67.798792    20.213604    20.288308    20.413577           90           90           90 
   98000    233.49109   -162.57786   -133.27202   -162.57786            0    6064.0134    20.087678    20.110853    20.361245            0            0            0    8225.5428    6047.1585    4315.4799    7829.4019   -617.75122    321.37843   -3651.0782    20.087678    20.110853    20.361245           90           90           90 
   98500    242.29554   -162.77348   -132.36258   -162.77348            0    5839.8414    20.116263    19.965779    20.467862            0            0            0    8220.6476    6617.1193    5123.4976    5778.9074   -171.32743    222.39167    510.95936    20.116263    19.965779    20.467862           90           90           90 
   99000    231.23521   -161.89466   -132.87196   -161.89466            0    2579.0469    20.238421    20.073957    20.516587            0            0            0    8335.1748   -381.52073    3775.1443     4343.517   -1674.3663   -1640.0876   -300.41691    20.238421    20.073957    20.516587           90           90           90 
   99500    250.08763   -161.62016   -130.23126   -161.62016            0    4936.6025    20.139955    20.138971    20.382649            0            0            0    8267.1611    5259.1769    4998.4809    4552.1496    1403.6678    1191.1173   -185.57387    20.139955    20.138971    20.382649           90           90           90 
  100000    238.82314    -161.8433   -131.86823    -161.8433            0    1495.1615    20.091328    20.237397     20.40142            0            0            0    8295.1394    1851.4092   -861.47914    3495.5543    812.52411   -166.09063    552.78923    20.091328    20.237397     20.40142           90           90           90 
  100500    237.15757   -161.27576   -131.50973   -161.27576            0     7176.711     20.03124     20.17405    20.457003            0            0            0    8266.9049    9592.9472    4633.2953    7303.8905   -864.88184    2411.8708    -1339.375     20.03124     20.17405    20.457003           90           90           90 
  101000    235.70097   -162.41849   -132.83528   -162.41849            0    1474.2711    20.211772    20.045263    20.583758            0            0            0    8339.5151   -3172.5708    6973.8353    621.54884   -8.5397149    713.12241     2026.194    20.211772    20.045263    20.583758           90           90           90 
  101500    231.73986    -161.6106   -132.52456    -161.6106            0   -641.28839    20.209058    19.919251    20.414241            0            0            0    8217.7385   -3469.5032    1293.9696    251.66849   -1895.5786    585.16528     1667.883    20.209058    19.919251    20.414241           90           90           90 
  102000    234.45227   -162.09558    -132.6691   -162.09558            0    3083.8787    20.253826    20.196417    20.401553            0            0            0    8345.3518    794.12151    5344.0738    3113.4409   -182.35339    805.52787    1356.5442    20.253826    20.196417    20.401553           90           90           90 
  102500     235.5115    -162.2327   -132.67327    -162.2327            0    952.27418    20.070768    20.255598    20.323224            0            0            0    8262.3134   -1703.6093    628.48594    3931.9459   -352.34112    590.91095    2128.7828    20.070768    20.255598    20.323224           90           90           90 
  103000     233.9812   -161.23593   -131.86857   -161.23593            0    3088.0023    20.047412    20.089695    20.411749            0            0            0    8220.7584    6207.6766    3433.5479   -377.21753   -207.40601   -99.629515   -1039.9033    20.047412    20.089695    20.411749           90           90           90 
  103500    231.99115   -162.88153   -133.76395   -162.88153            0    1292.8621    20.236119    20.076089    20.714525            0            0            0     8415.527    1259.4982    986.23788    1632.8503    214.12414   -579.31947    2163.5239    20.236119    20.076089    20.714525           90           90           90 
  104000    244.73465   -162.72074    -132.0037   -162.72074            0    3662.7107    20.071504    20.001679    20.584866            0            0            0     8264.078    6424.5806    2537.0002    2026.5513   -262.56005   -3600.0732    1561.6243    20.071504    20.001679    20.584866           90           90           90 
  104500    235.79072   -162.48519   -132.89072   -162.48519            0   -221.40468      20.0539    20.115896    20.418368            0            0            0    8236.8137    2553.2038   -3609.0722     391.6543    1751.7141    2020.6808   -984.68046      20.0539    20.115896    20.418368           90           90           90 
  105000    248.46131   -162.02059   -130.83581   -162.02059            0    6354.7299    20.181976    20.189288    20.307276            0            0            0    8274.3968    6271.2797    4771.8246    8021.0853   -140.62053    853.47028    1169.8895    20.181976    20.189288    20.307276           90           90           90 
  105500    243.75357   -161.67521   -131.08131   -161.67521            0    1094.0714    20.293571    20.137241    20.404745            0            0            0    8338.5323   -264.31592    1812.3346    1734.1955   -476.50308   -1736.6353    4306.8732    20.293571    20.137241    20.404745           90           90           90 
  106000    242.00187    -162.0795   -131.70546    -162.0795            0    1473.4565       20.188    20.007804    20.531252            0            0            0    8292.9328   -2538.7101    3549.8159    3409.2637   -1203.7966    877.28042     199.8817       20.188    20.007804    20.531252           90           90           90 
  106500    239.55198   -161.94571   -131.87916   -161.94571            0      3512.73    20.023986    20.016027     20.71475            0            0            0    8302.4851    4859.4001     2502.887    3175.9029   -1023.2597   -515.54422   -2640.9263    20.023986    20.016027     20.71475           90           90           90 
  107000    236.71766   -162.15767   -132.44686   -162.15767            0    2322.0063    19.939064    20.192669    20.708395            0            0            0    8337.6742    4609.6951   -669.39873    3025.7224   -943.81669    70.774544   -823.57264    19.939064    20.192669    20.708395           90           90           90 
  107500    244.78529   -162.14658   -131.42318   -162.14658            0    3322.8526     20.12135     20.12416    20.390967            0            0            0    8256.8174    7741.0607    1783.9475    443.54952    1218.2878    2487.5945    170.82318     20.12135     20.12416    20.390967           90           90           90 
  108000    244.71694   -161.92694   -131.21213   -161.92694            0      1677.17    20.379679    19.993539    20.220295            0            0            0    8238.9999   -774.26641    2344.4068    3461.3695     145.7325   -4608.0463   -376.39655    20.379679    19.993539    20.220295           90           90           90 
  108500    243.45182   -160.82784   -130.27182   -160.82784            0    3166.1322    20.365216     20.12793    20.444232            0            0            0     8380.288    5161.5151    1036.9305    3299.9509    -555.6952    1177.6887   -1176.1532    20.365216     20.12793    20.444232           90           90           90 
  109000    237.09309   -162.20051   -132.44258   -162.20051            0    4746.8651    20.001724    20.099878    20.500995            0            0            0    8242.0605    6585.4435    1118.3127    6536.8391    1699.3411    2697.2566    644.59008    20.001724    20.099878    20.500995           90           90           90 
  109500     238.5201   -161.79253   -131.85549   -161.79253            0    6345.8589    19.994328    20.178435    20.566705            0            0            0    8297.7244    7666.9734    6427.3469    4943.2563    522.15963   -155.18477    980.86243    19.994328    20.178435    20.566705           90           90           90 
  110000    233.89057   -161.41245   -132.05647   -161.41245            0    73.661993    20.211629    20.182185    20.459532            0            0            0    8345.7467   -122.23558    362.21941   -18.997848    932.04388    553.25955   -1869.7019    20.211629    20.182185    20.459532           90           90           90 
  110500    231.76003   -162.62748   -133.53891   -162.62748            0    1154.4172    20.207432    20.030668    20.226784            0            0            0     8187.162   -1241.1671    5191.9083   -487.48965    974.43532    -429.8907   -378.76636    20.207432    20.030668    20.226784           90           90           90 
  111000    241.67531   -162.25666    -131.9236   -162.25666            0    2204.5301    20.163916    20.143622    20.368609            0            0            0    8273.2053    2988.6831    601.78833    3023.1189    1817.8895   -950.83715     182.2207    20.163916    20.143622    20.368609           90           90           90 
  111500    236.52159   -161.81674   -132.13054   -161.81674            0    4207.7849    20.107413    20.192546    20.588999            0            0            0    8359.5424    2696.7726    6446.6529    3479.9293   -297.60948    1371.9948   -1124.1152    20.107413    20.192546    20.588999           90           90           90 
  112000    241.79161   -162.16131   -131.81365   -162.16131            0    4094.7996    20.012366    19.969925    20.502341            0            0            0    8193.6669    6096.9757    3214.6621     2972.761   -640.22899    -189.8195    2514.0057    20.012366    19.969925    20.502341           90           90           90 
[...]
  373000    225.48879    -163.7249   -135.42344    -163.7249            0      7039.42    20.213412    20.205501    20.048974            0            0            0    8188.4442    3711.4697    10865.409    6541.3815   -401.81914    467.82123   -1141.3101    20.213412    20.205501    20.048974           90           90           90 
  373500    232.22519    -162.5318   -133.38484    -162.5318            0    1950.7723    20.236775    20.175157    20.387471            0            0            0    8323.7991    203.83064    2389.8851    3258.6013    -980.5756    2502.9789    1463.7481    20.236775    20.175157    20.387471           90           90           90 
  374000    240.25019   -161.41706   -131.26287   -161.41706            0    2165.6625    20.068414    19.998826    20.603292            0            0            0    8269.0223     4724.382    1625.9178    146.68758   -3491.7514    572.64712   -878.89956    20.068414    19.998826    20.603292           90           90           90 
  374500    250.55076   -161.33928   -129.89225   -161.33928            0    6088.6078    20.113857    20.009499    20.631584            0            0            0    8303.5567    3025.9735    7881.7733    7358.0766    710.44026   -347.24547    1905.0217    20.113857    20.009499    20.631584           90           90           90 
  375000    251.84788   -161.52465   -129.91482   -161.52465            0    2814.3673    20.219445    20.105286    20.446624            0            0            0     8311.915     1287.916    4839.4649    2315.7209   -1529.3219   -473.69336   -1343.7176    20.219445    20.105286    20.446624           90           90           90 
  375500    241.83879    -162.6413   -132.28772    -162.6413            0   -142.24734    20.223559    20.150407    20.290933            0            0            0    8268.8183    498.72407   -1087.6162     162.1501    143.69658   -378.00295     2186.912    20.223559    20.150407    20.290933           90           90           90 
  376000    242.04889   -161.81545    -131.4355   -161.81545            0    5020.9547    20.099358    20.111004    20.257599            0            0            0    8188.4914    4527.2018    4894.9638    5640.6983    42.653342   -58.788551     -2915.32    20.099358    20.111004    20.257599           90           90           90 
  376500    241.48128   -161.27668   -130.96798   -161.27668            0    168.19734    20.139816    20.247769    20.535345            0            0            0    8374.0336    583.27136    1404.8855   -1483.5649   -170.04253    -2258.299    -256.1945    20.139816    20.247769    20.535345           90           90           90 
  377000    238.71388   -163.30195   -133.34059   -163.30195            0     3506.642     19.98353    20.081391    20.554088            0            0            0    8248.2951    4816.2619    4046.5581    1657.1059    1840.0585    2736.6392   -1222.2387     19.98353    20.081391    20.554088           90           90           90 
  377500    237.84879   -163.22442   -133.37164   -163.22442            0    5120.7292    19.997245    20.012105    20.475004            0            0            0    8193.8299    5201.8228    1784.0106    8376.3543    323.74689    447.05099   -604.35025    19.997245    20.012105    20.475004           90           90           90 
  378000    244.55584   -163.25517   -132.56057   -163.25517            0    922.35039    20.292845    20.198182    20.536998            0            0            0    8417.6758    2736.7042    1011.4232   -981.07622   -236.03628    3880.8216   -2142.0582    20.292845    20.198182    20.536998           90           90           90 
  378500    242.55346   -163.48435   -133.04108   -163.48435            0    3412.3127    20.172064    20.079615    20.309452            0            0            0    8226.2884    2886.6063    1697.2201    5653.1118     163.7054   -2418.9465    902.29188    20.172064    20.079615    20.309452           90           90           90 
  379000    232.55465   -161.39901   -132.21071   -161.39901            0    4018.8175    20.117825    20.079158    20.399851            0            0            0    8240.4989    973.21366    6153.9369    4929.3021    1172.9026   -404.15358    -1351.504    20.117825    20.079158    20.399851           90           90           90 
  379500    237.76441   -162.87969    -133.0375   -162.87969            0     2049.941    20.165877    20.107002    20.590816            0            0            0    8349.0677     351.3815    2810.2644    2988.1772   -1283.8562   -2342.7907   -865.05301    20.165877    20.107002    20.590816           90           90           90 
  380000     234.0198   -162.88918   -133.51698   -162.88918            0    2108.5622    20.122331    20.009493    20.550686            0            0            0    8274.4797    2238.3074     3237.682    849.69727    1417.3785    1128.7113   -362.75864    20.122331    20.009493    20.550686           90           90           90 
  380500     233.9676   -162.94434   -133.57869   -162.94434            0    4324.4619    20.078953    20.039682    20.396928            0            0            0    8207.2307    3758.8557    4466.3932    4748.1368    254.73785    844.19609       2876.5    20.078953    20.039682    20.396928           90           90           90 
  381000    240.92341   -163.52645   -133.28777   -163.52645            0    4550.5614    20.139686    20.291647    20.312987            0            0            0    8301.2554    8345.6148    3618.4001    1687.6692   -3.9255815     1357.387    748.35543    20.139686    20.291647    20.312987           90           90           90 
  381500      249.853   -160.97763   -129.61819   -160.97763            0    2931.2482    20.307089     20.28455    20.361335            0            0            0    8387.2444   -209.59834    6388.1975    2615.1453   -655.18088    2283.8582    918.47362    20.307089     20.28455    20.361335           90           90           90 
  382000    237.36832     -161.554   -131.76152     -161.554            0    5340.8784    20.073555    19.882394    20.470912            0            0            0    8170.1525    3404.8256    7907.7434    4710.0662    1301.2216   -2311.0514    208.69455    20.073555    19.882394    20.470912           90           90           90 
  382500    245.54399   -160.85366   -130.03504   -160.85366            0    670.21549    20.094065    19.984865     20.81174            0            0            0      8357.52    2545.6991   -1245.2351    710.18246    548.29413   -746.13952   -1541.1798    20.094065    19.984865     20.81174           90           90           90 
  383000    244.63505   -161.45948   -130.75495   -161.45948            0    4390.3478    20.085288    20.104108    20.669937            0            0            0    8346.4545    2467.1561    7999.3964     2704.491   -758.42529    420.24509    1017.1887    20.085288    20.104108    20.669937           90           90           90 
  383500    250.32188   -160.58955   -129.17125   -160.58955            0    3639.6558    20.142226    20.111199    20.380798            0            0            0    8255.9415    4487.0105    1298.8402    5133.1166    465.18239    333.23915    3225.2107    20.142226    20.111199    20.380798           90           90           90 
  384000     243.2472   -162.97879   -132.44844   -162.97879            0   -161.08288    20.247408    20.136573    20.298143            0            0            0    8275.8254    317.71903   -1058.2395    257.27182   -913.53609    -941.3169   -4856.9923    20.247408    20.136573    20.298143           90           90           90 
  384500    233.06123    -161.9915   -132.73961    -161.9915            0    1091.2701    20.161873     20.18153     20.36374            0            0            0    8285.9541    2240.5685   -236.34336    1269.5852     601.4193   -2383.0322    3259.5997    20.161873     20.18153     20.36374           90           90           90 
  385000    230.56165   -162.75271   -133.81455   -162.75271            0    3102.8109    20.010616    20.123372    20.521017            0            0            0    8263.4252    5421.3983   -699.05715    4586.0916   -2118.5201    150.84805   -1165.5666    20.010616    20.123372    20.521017           90           90           90 
  385500    233.73791   -163.36514   -134.02832   -163.36514            0    4628.3971    19.999172    20.047021    20.607927            0            0            0    8262.2089    5695.3178    3612.8255    4577.0481    608.96018   -1136.8496    959.65316    19.999172    20.047021    20.607927           90           90           90 
  386000    245.08929   -163.54281   -132.78127   -163.54281            0    1647.1893    20.257348    20.092464    20.654171            0            0            0    8406.6613   -100.23765    544.57596    4497.2295    28.379662    330.41211   -142.95617    20.257348    20.092464    20.654171           90           90           90 
  386500    245.76674   -161.98834   -131.14176   -161.98834            0     3654.884    20.224353    20.046468    20.409127            0            0            0    8274.4081    794.33173    8297.7142    1872.6062    301.73308    546.89429    342.05788    20.224353    20.046468    20.409127           90           90           90 
  387000    249.49042   -163.86243   -132.54849   -163.86243            0    2862.0908     20.19132    20.145278    20.276473            0            0            0    8247.6531    1325.9902     3951.239    3309.0432    132.31468   -2551.9145   -507.00139     20.19132    20.145278    20.276473           90           90           90 
  387500    238.59234   -161.45697   -131.51086   -161.45697            0    2600.6446    20.170215    20.182572    20.412436            0            0            0    8309.6334    2332.5356    3098.6116    2370.7865    110.20983   -982.66682    538.07968    20.170215    20.182572    20.412436           90           90           90 
  388000    235.51556   -163.42293   -133.86299   -163.42293            0    3480.2537     20.03895    20.042968    20.491876            0            0            0    8230.3575    1599.3576    5574.7197    3266.6837   -1718.0719    2306.7939    1490.5039     20.03895    20.042968    20.491876           90           90           90 
  388500    238.05978   -164.32047   -134.44121   -164.32047            0    3001.6579      20.0519    20.031027    20.568933            0            0            0    8261.7204     845.5176    3554.0553    4605.4007   -112.97533    1317.9662    1134.2232      20.0519    20.031027    20.568933           90           90           90 
  389000    224.69526   -161.91446    -133.7126   -161.91446            0    3019.6696    20.183397    20.038294    20.651487            0            0            0    8352.3047    4762.6098    1630.5699    2665.8291   -887.46947   -947.33354   -1814.0787    20.183397    20.038294    20.651487           90           90           90 
  389500    231.27334   -162.51274   -133.48526   -162.51274            0    4033.6482    20.112082    20.034785    20.332314            0            0            0    8192.7278    4701.0301    2022.9774     5376.937   -1227.5612    2180.3563   -217.27222    20.112082    20.034785    20.332314           90           90           90 
  390000    231.14907   -163.58944   -134.57755   -163.58944            0    3490.3111    20.191594    20.255438    20.220647            0            0            0    8270.0342    6655.7373   -5.4532084    3820.6492   -2394.1028   -950.79436   -4951.2498    20.191594    20.255438    20.220647           90           90           90 
  390500    241.34858   -162.18962   -131.89757   -162.18962            0    2923.1763    20.187433    20.256266      20.3328            0            0            0    8314.5293    4887.0607   -1580.8727    5463.3409    401.77394    125.11291   -381.27739    20.187433    20.256266      20.3328           90           90           90 
  391000    248.30629   -161.95346   -130.78814   -161.95346            0    3369.3311    20.115768     20.06932    20.658811            0            0            0    8340.1643     725.8084    6142.0286    3240.1562   -2136.3654     1339.601   -1829.1673    20.115768     20.06932    20.658811           90           90           90 
  391500    252.61442   -160.72821   -129.02217   -160.72821            0    1690.3598    20.063076    19.952361    20.711579            0            0            0    8290.9639   -3001.3561    3726.8242    4345.6113    131.05826    2403.0243    657.99642    20.063076    19.952361    20.711579           90           90           90 
  392000    234.73426   -163.57811   -134.11624   -163.57811            0    1404.9091    20.146577    20.099091    20.482055            0            0            0    8293.7553    3707.2562    836.97142   -329.50033    2053.2556   -2605.7714   -2727.6213    20.146577    20.099091    20.482055           90           90           90 
  392500    231.25358   -162.88659   -133.86159   -162.88659            0    2547.0185    20.196059    20.305518    20.188763            0            0            0     8279.239    1687.4225    1240.9361    4712.6969    2331.2658    3042.2832   -39.665584    20.196059    20.305518    20.188763           90           90           90 
  393000    240.95759    -162.0187   -131.77572    -162.0187            0     3698.526    20.147871    20.225856     20.15789            0            0            0    8214.5001    8106.8685    -1953.025    4941.7347   -1020.4116   -257.46407   -884.34674    20.147871    20.225856     20.15789           90           90           90 
  393500    246.87483   -160.38513   -129.39947   -160.38513            0    2935.4048    20.245786    20.071658    20.610453            0            0            0    8375.3975    4414.7394    4500.1321   -108.65699    1564.8154    99.483319   -318.72029    20.245786    20.071658    20.610453           90           90           90 
  394000    245.32584   -163.16661   -132.37537   -163.16661            0    4290.6728    20.068421    19.915482    20.679675            0            0            0    8265.0925    3873.4727    5003.4358    3995.1099   -480.02623   -499.52256   -1388.7416    20.068421    19.915482    20.679675           90           90           90 
  394500    241.29244    -163.9151    -133.6301    -163.9151            0    2627.6672    20.057197    20.138174    20.651473            0            0            0    8341.4467    5173.2608    2273.1877    436.55309   -570.27323   -1243.7877   -79.316583    20.057197    20.138174    20.651473           90           90           90 
  395000    241.97206   -161.88649   -131.51619   -161.88649            0    4062.5436    20.088326     20.20486    20.395014            0            0            0    8277.9654    6723.8566    607.93304    4855.8413   -877.91381   -879.98644   -4112.3876    20.088326     20.20486    20.395014           90           90           90 
  395500    241.59649   -164.13301   -133.80984   -164.13301            0    4543.1216    20.203644    20.128208    20.328821            0            0            0    8266.9823    3862.2243    2918.1575    6848.9829   -250.05479   -2818.0184    1084.7538    20.203644    20.128208    20.328821           90           90           90 
  396000    231.44421   -162.79155   -133.74262   -162.79155            0    1883.2907    20.223221    20.103532     20.46378            0            0            0    8319.7172    3852.8689   -210.02315    2007.0265    1706.0838    10.157487   -1637.5403    20.223221    20.103532     20.46378           90           90           90 
  396500    235.69792   -163.85648   -134.27366   -163.85648            0    2035.1322    20.058002    20.028735    20.534029            0            0            0     8249.267    4043.8444   -321.99922    2383.5513   -348.27086    389.95407     -1366.95    20.058002    20.028735    20.534029           90           90           90 
  397000    238.26935   -162.43241   -132.52684   -162.43241            0    3383.5916    20.055411    20.089408    20.484098            0            0            0    8253.0707    2971.2559    6046.5635    1132.9555    559.82171   -2.1008137     1601.054    20.055411    20.089408    20.484098           90           90           90 
  397500    246.05721   -163.32104     -132.438   -163.32104            0    3692.1586    20.221734    20.187017    20.407031            0            0            0    8330.4867    2190.1822    2180.5314    6705.7622    809.37535    1056.1526   -1144.6149    20.221734    20.187017    20.407031           90           90           90 
  398000    243.96479    -162.6609   -132.04049    -162.6609            0    2116.0605     20.19584    20.102886    20.313749            0            0            0     8247.274    912.04522    1464.8862    3971.2503    92.995496   -1871.5162    183.16647     20.19584    20.102886    20.313749           90           90           90 
  398500    245.18293   -162.59376   -131.82046   -162.59376            0    2745.6547    20.072511    20.050753    20.419408            0            0            0    8218.1776    6040.2586     789.3143    1407.3913    1231.0393    1647.7183   -1170.9574    20.072511    20.050753    20.419408           90           90           90 
  399000    231.23316   -164.35898   -135.33654   -164.35898            0     2852.868    20.102488    20.228274    20.656308            0            0            0    8399.6533    6489.6978   -855.48251    2924.3886     247.3695   -952.97955   -1215.1057    20.102488    20.228274    20.656308           90           90           90 
  399500    236.45093   -162.66783   -132.99049   -162.66783            0    4417.6459    20.065681    20.160444    20.520036            0            0            0    8301.0323    5794.8947    4067.5368    3390.5062   -1168.9416   -779.77785    1689.3949    20.065681    20.160444    20.520036           90           90           90 
  400000    228.08501   -162.22895   -133.60163   -162.22895            0    4043.7713    20.163806    20.032559    20.297088            0            0            0    8198.6565    3650.2891    1357.8747    7123.1502    789.20934    1422.0845    492.16348    20.163806    20.032559    20.297088           90           90           90 
Loop time of 2416.56 on 1 procs for 400000 steps with 972 atoms

Performance: 7.151 ns/day, 3.356 hours/ns, 165.525 timesteps/s
70.0% CPU use with 1 MPI tasks x 1 OpenMP threads

MPI task timing breakdown:
Section |  min time  |  avg time  |  max time  |%varavg| %total
---------------------------------------------------------------
Pair    | 2146.4     | 2146.4     | 2146.4     |   0.0 | 88.82
Bond    | 0.059116   | 0.059116   | 0.059116   |   0.0 |  0.00
Neigh   | 241.22     | 241.22     | 241.22     |   0.0 |  9.98
Comm    | 9.5762     | 9.5762     | 9.5762     |   0.0 |  0.40
Output  | 2.271      | 2.271      | 2.271      |   0.0 |  0.09
Modify  | 15.608     | 15.608     | 15.608     |   0.0 |  0.65
Other   |            | 1.397      |            |       |  0.06

Nlocal:        972.000 ave         972 max         972 min
Histogram: 1 0 0 0 0 0 0 0 0 0
Nghost:        4661.00 ave        4661 max        4661 min
Histogram: 1 0 0 0 0 0 0 0 0 0
Neighs:         0.00000 ave           0 max           0 min
Histogram: 1 0 0 0 0 0 0 0 0 0
FullNghs:      247438.0 ave      247438 max      247438 min
Histogram: 1 0 0 0 0 0 0 0 0 0

Total # of neighbors = 247438
Ave neighs/atom = 254.56584
Ave special neighs/atom = 0.0000000
Neighbor list builds = 40000
Dangerous builds not checked

unfix		3
unfix		2

write_data	data.final.${pid}
write_data	data.final.0
System init for write_data ...

write_restart   restart.lmp.${pid}
write_restart   restart.lmp.0
System init for write_restart ...
Total wall time: 0:40:19
