LAMMPS data file via write_data, version 29 Sep 2021, timestep = 400000

1920 atoms
2 atom types

0.0016317361551720921 24.72277326384333 xlo xhi
-0.02468420109739 24.749089201097824 ylo yhi
-0.06372799864848666 22.856099998650123 zlo zhi

Masses

1 1.008
2 15.999

Atoms # full

4 0 1 0 2.66725712366131 1.4022432041499362 2.034664847317129 0 0 0
5 0 2 0 2.7956812692933934 1.582992458866202 2.9403780127292762 0 0 0
6 0 2 0 3.031850534935967 2.235615372172025 1.723476236397432 0 0 0
17 0 2 0 0.8684794404108355 1.3414653771875187 1.811957793239442 0 0 0
387 0 2 0 3.9113920795548203 0.24045508367927848 1.1966008822692613 0 1 0
99 0 2 0 0.40063681870771256 3.733820300172209 4.237268073526375 1 0 0
11 0 2 0 2.8875845534634954 3.781980604478387 4.10285209256611 0 0 0
1455 0 2 0 1.5994367638918094 3.472070944157472 0.14966914493331768 0 0 1
19 0 1 0 4.369933071685378 3.1498197218068356 0.6858540937862644 0 0 0
2 0 2 0 5.634570668424572 1.2626529346651103 3.458948790905977 0 0 0
46 0 1 0 6.18959509271794 1.548513471931057 2.010500005470246 0 0 0
47 0 2 0 7.127452751698617 1.5358939499508664 2.035595088224017 0 0 0
48 0 2 0 5.868480858837543 2.182213107497855 1.3740214212193658 0 0 0
1 0 1 0 4.9665852487035025 1.2565038939666253 4.2005059055629195 0 0 0
386 0 2 0 5.453447774084278 0.14865665373615164 1.3065845461370358 0 1 0
54 0 2 0 7.541304577378989 4.092388627772085 0.9168684115531888 0 0 0
32 0 2 0 11.209585464292209 1.791055394160793 3.7801778461036584 0 0 0
34 0 1 0 8.943776365000343 1.2968674697981757 1.9994663580951295 0 0 0
35 0 2 0 9.30348486650007 1.063665167776785 2.8561202485326898 0 0 0
36 0 2 0 9.29494191139497 2.2186566392580667 1.869496612172836 0 0 0
49 0 1 0 10.607921025254944 3.244642276971101 0.7273886658700496 0 0 0
51 0 2 0 11.22560835860829 2.791396499725225 1.3471267017024335 0 0 0
31 0 1 0 10.391478293255547 1.6662638881037015 4.245751058969343 0 0 0
42 0 2 0 9.042831983801 3.4944217401029936 3.872293640095081 0 0 0
78 0 2 0 11.943404442821222 0.9271146222345246 1.9257573592681574 0 0 0
76 0 1 0 12.263710776749194 1.6838982702477894 2.418879322518363 0 0 0
416 0 2 0 9.994683300556664 0.1886133195880006 0.8260834929575036 0 1 0
64 0 1 0 14.853657051043044 1.8598090938933294 2.0174547916151857 0 0 0
65 0 2 0 15.292516738465341 1.821741996807418 2.877707261453545 0 0 0
66 0 2 0 15.283997475114385 1.1545895000163875 1.4949753019538992 0 0 0
77 0 2 0 13.207688119009292 1.7781268160081125 2.1848481813486633 0 0 0
80 0 2 0 16.168077728142435 3.0768555906262858 0.8148725345392266 0 0 0
38 0 2 0 12.49858967955086 3.9462874078947046 4.09904472785209 0 0 0
75 0 2 0 14.565939557601743 3.4317000843443606 4.27978160630237 0 0 0
79 0 1 0 16.990029619267215 3.2986463901726553 0.41307062274007156 0 0 0
62 0 2 0 17.391826848598836 1.5903389973844169 3.6059595614312 0 0 0
106 0 1 0 18.5056012513163 1.438847705991569 1.9211439662915186 0 0 0
107 0 2 0 19.46772782636621 1.4709506247404374 1.937362534210635 0 0 0
108 0 2 0 18.30990676060643 2.313081929507365 1.4794877384191834 0 0 0
61 0 1 0 16.737546845500795 1.4312391005449099 4.314027272181573 0 0 0
68 0 2 0 19.06280467507901 3.7036789959641556 3.815047837924148 0 0 0
1545 0 2 0 19.92123137464118 3.2022547485253616 0.14752710486920173 0 0 1
446 0 2 0 17.393461429805875 0.4366884582163117 1.090042464278267 0 1 0
445 0 1 0 16.576743135049657 0.02839470790143097 0.7235034214264943 0 1 0
16 0 1 0 24.71759425448272 1.257307360755532 2.234827799143283 -1 0 0
18 0 2 0 24.196140846544612 0.5711566318855372 1.791558029143728 -1 0 0
92 0 2 0 23.38656433248096 1.1010337022450978 3.8445409414264975 0 0 0
94 0 1 0 21.20949203465 1.3013922286258421 2.0070210994786137 0 0 0
95 0 2 0 21.744380804898213 1.6636476712173462 2.748445170172556 0 0 0
96 0 2 0 21.21796811863957 2.04679440036168 1.3969649427200066 0 0 0
109 0 1 0 22.95284341768295 3.2628812190272196 0.6196386741842503 0 0 0
110 0 2 0 23.476025846266772 2.8246762174973346 1.2507299488007444 0 0 0
476 0 2 0 22.353106654498333 0.0561892700262209 1.1602625119958203 0 1 0
24 0 2 0 2.073898911259572 4.8150333202320885 2.144686863128122 0 0 0
10 0 1 0 3.260944344643945 4.3521314844412675 3.408486390298814 0 0 0
22 0 1 0 1.3265931153851414 4.948833546464999 1.5184274942909273 0 0 0
23 0 2 0 1.5587733494024445 5.564710040278453 0.7576515047773338 0 0 0
126 0 2 0 1.8222998152447973 7.679660722616985 2.177542538848333 0 0 0
124 0 1 0 2.800743587639511 7.453522944482249 2.170854595524087 0 0 0
27 0 2 0 3.708859912886512 6.089842947475112 1.234725494826667 0 0 0
122 0 2 0 3.730773646753718 7.824397814481532 3.8591153435778924 0 0 0
136 0 1 0 0.24636079018120377 7.913880485783129 2.056599575170791 0 0 0
149 0 2 0 2.2894199880455317 6.096322800624786 4.316578021274101 0 0 0
98 0 2 0 0.30991042001067926 4.674526491072029 2.997310324464393 1 0 0
125 0 2 0 3.206896657611175 8.1954312266463 1.7904046421687483 0 0 0
12 0 2 0 4.215337185809703 4.42878285320015 3.4730101271313307 0 0 0
21 0 2 0 4.342512160713915 4.122164605795313 0.6366064074060759 0 0 0
52 0 1 0 7.492184166517499 4.758315096187936 1.603669700756257 0 0 0
7 0 1 0 5.946059000209814 4.542216347405878 3.6542750275553493 0 0 0
8 0 2 0 6.425647496396576 4.515284644919833 2.8180242529993813 0 0 0
25 0 1 0 4.468815227439846 5.795871707138028 0.6662228358128682 0 0 0
168 0 2 0 5.866269699578178 6.837700873618725 1.5936521873129814 0 0 0
166 0 1 0 6.480385380866213 7.329719686009663 2.1947970718676535 0 0 0
167 0 2 0 6.013685634967698 7.387384578354096 3.0034946791195147 0 0 0
9 0 2 0 6.414287213387858 5.274339822381535 4.103442318297934 0 0 0
121 0 1 0 4.556879766827546 7.93460724518334 4.274995967073554 0 0 0
1619 0 2 0 7.498287809843713 5.916910108932179 -0.011437073751906404 0 0 1
26 0 2 0 4.551578967321586 6.507205128876982 -0.010217404238851806 0 0 0
156 0 2 0 8.398146904049414 7.655887454128943 2.3411633536005128 0 0 0
50 0 2 0 10.71482840975766 4.2469256142301175 0.7544927653556343 0 0 0
53 0 2 0 8.336507976431339 4.526640960285096 2.0224277716613983 0 0 0
41 0 2 0 10.360568316436861 4.200542738983332 3.2900038065328725 0 0 0
40 0 1 0 9.39400263707025 4.286099224150416 3.342502547757317 0 0 0
55 0 1 0 10.64477438420234 6.000558036799979 0.5817187988737273 0 0 0
56 0 2 0 9.840317120031125 6.185441808903769 1.1213305864644445 0 0 0
57 0 2 0 11.290544800282703 6.451648232220775 1.1311693240501992 0 0 0
154 0 1 0 9.385875273289619 7.600886008865058 2.2772930641209768 0 0 0
153 0 2 0 12.023635741898826 7.87088203260313 3.64693198262217 0 0 0
152 0 2 0 10.44094766339943 7.679957916791777 3.781884603297108 0 0 0
37 0 1 0 12.209163371446712 4.463422546256649 3.3612602336084705 0 0 0
151 0 1 0 11.258838180404673 7.801438878280655 4.311699979810169 0 0 0
180 0 2 0 8.764730967542517 6.089505223388778 4.219933141762092 0 0 0
39 0 2 0 12.423591205673047 5.358755577479447 3.6346404367586818 0 0 0
196 0 1 0 12.484815205568884 7.801398667814937 1.8601387138437095 0 0 0
72 0 2 0 15.28224299896798 4.462317633951791 2.7379193633273355 0 0 0
83 0 2 0 13.3162988691845 4.479650375195302 1.8079760994867757 0 0 0
82 0 1 0 14.15309995750936 4.699163128181724 1.2893492376970006 0 0 0
70 0 1 0 15.849267102835867 4.38658668858441 3.5768355407482413 0 0 0
84 0 2 0 14.09060245091303 5.674195990307147 1.0886170739497607 0 0 0
71 0 2 0 15.36187212435034 5.0304561153057525 4.118553959079537 0 0 0
186 0 2 0 15.550345378485957 7.462168574902319 2.5386338222111378 0 0 0
198 0 2 0 13.465312114823659 7.76552143380469 1.6851417392543584 0 0 0
184 0 1 0 15.308606950805377 7.541699029931555 1.5996893053163241 0 0 0
86 0 2 0 16.542730214987493 6.366503114678923 0.8784367002542712 0 0 0
112 0 1 0 20.0435808189873 4.783746289440836 1.2625770282897772 0 0 0
87 0 2 0 17.103039480985583 4.951485255807336 0.5045818901086015 0 0 0
85 0 1 0 17.233763884991415 5.957434331478793 0.3106537638387771 0 0 0
69 0 2 0 17.610482671460396 4.217363219106475 3.4540159748973664 0 0 0
113 0 2 0 19.338734490551058 4.831342628989328 1.9765319148468894 0 0 0
67 0 1 0 18.588070279162476 4.453005573781362 3.4475558563704998 0 0 0
226 0 1 0 18.74616506485646 7.925601039297325 1.8366014521172054 0 0 0
228 0 2 0 18.60267789794043 7.150127153140726 1.2586513186443757 0 0 0
183 0 2 0 17.55402612804231 7.76451215694625 3.2536845476698204 0 0 0
181 0 1 0 16.781956135857403 7.67265275786553 3.841123782405158 0 0 0
216 0 2 0 20.480268225365915 7.6785481671758316 2.2035704602616883 0 0 0
240 0 2 0 19.462914315903326 5.96451404014173 4.367723690588145 0 0 0
111 0 2 0 22.781290737071245 4.217945683107902 0.8166889679841561 0 0 0
137 0 2 0 24.538553267112402 8.038428640620491 2.858793231494487 -1 0 0
138 0 2 0 24.61173928056201 7.1137128207519105 1.647191019220883 -1 0 0
97 0 1 0 24.675827119841394 4.515184998643189 3.877121590531493 0 0 0
114 0 2 0 20.811125436299157 4.998382279838853 1.7214570153147246 0 0 0
102 0 2 0 22.90672232482001 4.363112965440357 3.740635562792237 0 0 0
100 0 1 0 21.933465725870505 4.485995215009242 3.5736418914706296 0 0 0
115 0 1 0 22.80327761992886 5.951953446323069 0.7460428794043253 0 0 0
116 0 2 0 22.241352120716254 6.5520976657492715 1.305213338167947 0 0 0
101 0 2 0 21.589327205889035 5.27239317028898 4.039241839987187 0 0 0
214 0 1 0 21.463295907545504 7.658707036246736 2.253955968116379 0 0 0
211 0 1 0 23.446811529169665 7.5933211349029595 4.295608216514455 0 0 0
213 0 2 0 22.62220148786577 7.443126862296514 3.8261139037855005 0 0 0
130 0 1 0 3.062829920814802 10.968563171101602 3.542225665145969 0 0 0
142 0 1 0 1.623035337877701 10.782206144173925 1.3682931790492732 0 0 0
143 0 2 0 2.3515527860745773 10.77679023019898 2.014983864253584 0 0 0
144 0 2 0 1.69422018694989 9.94024462324132 0.8962079761058115 0 0 0
132 0 2 0 2.626960289256581 11.675018911022207 4.0043596440923634 0 0 0
1709 0 2 0 1.663051371320973 12.109145139585147 0.183361076704783 0 0 1
218 0 2 0 0.2552342083716795 10.046256739590673 3.7870178143885838 1 0 0
131 0 2 0 4.024925625125226 10.858391585047421 3.63837392137597 0 0 0
141 0 2 0 4.779974380805751 10.305927987298361 0.994526526626478 0 0 0
139 0 1 0 4.614563596694102 9.352883638750468 0.9971294371324262 0 0 0
127 0 1 0 5.810395776243621 10.744225503138866 3.8861515224240537 0 0 0
129 0 2 0 6.284428342085678 10.887287068122182 3.0245304150596835 0 0 0
140 0 2 0 5.254882554062157 9.027745893886866 1.638034673337923 0 0 0
172 0 1 0 7.364919800992172 10.79647282827862 1.4039502216702795 0 0 0
173 0 2 0 7.5284053781106275 9.943359283471453 0.9236833070298913 0 0 0
128 0 2 0 6.2273546294707245 9.906075594901306 4.158022833467554 0 0 0
174 0 2 0 8.002750912751138 10.81434826854721 2.1691254240243896 0 0 0
145 0 1 0 4.4980382337809655 11.9956250878432 0.8745690771112762 0 0 0
147 0 2 0 5.129971053956206 12.359555809096088 1.530053178598376 0 0 0
165 0 2 0 8.526107932184186 9.79199137173503 4.053191868188362 0 0 0
155 0 2 0 9.716279399687004 8.394043424299953 1.779256899268055 0 0 0
160 0 1 0 9.149950163429507 11.289200062305751 3.3049838319855795 0 0 0
161 0 2 0 10.093026081308519 11.283429002456591 3.5972298013735005 0 0 0
169 0 1 0 10.791547963401134 9.39792508671654 0.8111522987830163 0 0 0
171 0 2 0 10.646849728700067 10.402509764856632 0.7177434925578525 0 0 0
162 0 2 0 8.719830765377957 12.057883533029152 3.7692194174745617 0 0 0
175 0 1 0 10.635154331894071 12.130647680566218 0.7620349886482966 0 0 0
157 0 1 0 12.095143580027246 11.163460318908616 3.6000345374769847 0 0 0
197 0 2 0 12.234262955461373 8.610618342010966 1.4142589214884052 0 0 0
158 0 2 0 12.373177593432167 10.2592486875983 3.9482562000963535 0 0 0
159 0 2 0 12.641546462451219 11.163611285037602 2.8068504533831553 0 0 0
185 0 2 0 15.663197701460087 8.370412374343001 1.2813492258577883 0 0 0
190 0 1 0 15.525833488407148 10.862636351596123 3.3375872910003244 0 0 0
192 0 2 0 15.411564772653053 11.028616945757854 2.3836844703018882 0 0 0
202 0 1 0 13.72647270471471 11.12654947656124 1.371549357356461 0 0 0
203 0 2 0 13.943685966356833 11.838711498216806 0.7507089641255932 0 0 0
204 0 2 0 13.7495067444599 10.352265221826965 0.7794859868462709 0 0 0
329 0 2 0 14.585713587517905 12.185378668295739 4.3914929159288265 0 0 0
194 0 2 0 14.456901182693128 9.250876834734143 3.578814643272025 0 0 0
193 0 1 0 13.872555352568781 9.022902277420439 4.309230661673343 0 0 0
191 0 2 0 16.510059765233283 10.758693696597618 3.3657915610409814 0 0 0
227 0 2 0 18.365416342416438 8.628834850457284 1.2811176053266127 0 0 0
199 0 1 0 17.00908394367811 9.552250426368389 0.5721043989377295 0 0 0
187 0 1 0 18.17912369026944 10.557090590545075 3.2095642372252513 0 0 0
189 0 2 0 18.49251174245018 10.620608369308366 2.2801100379029204 0 0 0
200 0 2 0 16.99965604355758 10.488552302272714 0.4159498679005835 0 0 0
232 0 1 0 19.91179094873415 10.898860751194118 1.2102863820174563 0 0 0
234 0 2 0 20.03039152834916 10.217882978219967 0.5303557607761278 0 0 0
188 0 2 0 18.735830439940848 9.8491949573526 3.624787073078997 0 0 0
205 0 1 0 16.84164558111768 12.245578343699739 0.6960657055048356 0 0 0
359 0 2 0 19.421547497252433 12.074293801090617 4.4105036549759875 0 0 0
219 0 2 0 24.526938662128863 10.827802441580047 2.594645679914084 0 0 0
225 0 2 0 20.71629222615678 9.428375832623422 4.324701114541893 0 0 0
233 0 2 0 20.66115394632244 10.85520719339961 1.7790827852806919 0 0 0
217 0 1 0 24.19913758268481 10.480388828142646 3.4406624792079556 0 0 0
215 0 2 0 21.80451256746719 8.37094840628909 1.728505425306502 0 0 0
220 0 1 0 21.61223837030722 10.564171236408727 3.472518821957932 0 0 0
221 0 2 0 22.609770769331693 10.600113742952068 3.493510049144404 0 0 0
222 0 2 0 21.354874185109196 11.303026909937053 4.060066316502879 0 0 0
229 0 1 0 23.096855442973 9.18553651963555 0.4694386787743272 0 0 0
230 0 2 0 23.91655657095558 8.847999852374905 0.969963043540796 0 0 0
231 0 2 0 23.140528412510694 10.100239819984258 0.8422329820782025 0 0 0
235 0 1 0 23.090365282235243 12.026103920867797 0.6372217600179226 0 0 0
269 0 2 0 0.6372274278580292 12.487348512791801 4.505101979452388 0 0 0
244 0 1 0 2.8925201097070756 13.877337513492574 2.011463950846529 0 0 0
245 0 2 0 1.9601137912608044 14.09365678016433 1.862532211704794 0 0 0
246 0 2 0 3.260554353880009 13.180180471255788 1.4639886581790487 0 0 0
251 0 2 0 2.9234440022191697 16.282313971849696 4.26297517487602 0 0 0
242 0 2 0 3.696337589610892 13.612397947415934 3.7821773039459203 0 0 0
260 0 2 0 3.8458658135693193 15.03704391190086 1.3449418222494347 0 0 0
255 0 2 0 0.8363607367057845 15.819862594099021 4.431715886726205 0 0 0
256 0 1 0 0.23127656355283252 14.259984267340283 1.8627808818205032 0 0 0
258 0 2 0 0.1217557984799357 13.396082654382237 1.420212852778461 0 0 0
1694 0 2 0 1.7090828944023786 15.52838112368993 -0.005233603682479736 0 0 1
264 0 2 0 0.7389076608319306 16.407268089062747 1.9203615003009227 0 0 0
259 0 1 0 4.46929631543744 15.707505381443987 1.075804618761001 0 0 0
286 0 1 0 6.122816316026454 13.782430462649314 2.2820659006580835 0 0 0
287 0 2 0 5.613985836343281 13.615218127966324 3.1340652844793206 0 0 0
288 0 2 0 5.830623987464204 14.68645459852004 1.9995599379393356 0 0 0
241 0 1 0 4.3609072085637095 13.545120699571752 4.48531320149059 0 0 0
248 0 2 0 6.1833057997052725 16.2055111433285 4.316758162331992 0 0 0
276 0 2 0 7.886487265843155 13.924473302716569 2.4173615783798112 0 0 0
1740 0 2 0 7.6079989743889875 12.620951044539101 0.2901172596827429 0 0 1
1725 0 2 0 7.690141306425998 15.566835942571856 0.1615619773119038 0 0 1
146 0 2 0 4.769644369807359 12.406881173158773 0.07703161668925784 0 0 0
261 0 2 0 4.845204214637748 15.371675758123613 0.23236647535110655 0 0 0
176 0 2 0 9.960136119462502 12.514592745645109 1.3282073762537467 0 0 0
272 0 2 0 11.74864249787142 13.965149558206328 3.6723940250489746 0 0 0
274 0 1 0 8.89567065140166 14.096295815282451 2.1654518308750097 0 0 0
275 0 2 0 9.356371078080292 14.004338260112918 3.0029174931745732 0 0 0
289 0 1 0 10.752500850924992 15.6328907891948 0.8084217145131702 0 0 0
291 0 2 0 9.971972346214454 15.258235531984345 1.2707289402997133 0 0 0
281 0 2 0 8.860755905404307 16.474432243021695 4.380465103788489 0 0 0
271 0 1 0 10.978543437634324 14.164425788843909 4.2890850503493185 0 0 0
317 0 2 0 11.899910642281869 14.70426347230842 1.7464431936462221 0 0 0
318 0 2 0 11.973554479036254 13.126437886004394 1.5046896858538272 0 0 0
316 0 1 0 12.375510402342007 13.90012832161286 1.974525457699552 0 0 0
304 0 1 0 15.214640530806037 14.155243205818236 1.6312585790369651 0 0 0
305 0 2 0 14.276354663085908 14.006392212919923 1.749075945237672 0 0 0
306 0 2 0 15.461979344131635 13.450219270482506 1.0387868880055284 0 0 0
311 0 2 0 15.03115142446747 16.38149432567787 3.87946486350107 0 0 0
320 0 2 0 16.336140973337866 15.379077086140104 0.7418445574406095 0 0 0
302 0 2 0 15.899539961867758 14.0760535321045 3.340930217861548 0 0 0
315 0 2 0 13.265306734667863 15.602047607620007 4.453263276972989 0 0 0
207 0 2 0 17.516125727527573 12.599022575172844 1.3852899368843201 0 0 0
319 0 1 0 17.06794479761376 15.727596795857444 0.22714141273978383 0 0 0
346 0 1 0 18.690241953436875 13.798850742683042 2.052581892571458 0 0 0
347 0 2 0 18.42349678020962 14.488368590621711 1.3807721442585856 0 0 0
348 0 2 0 18.034870826623987 14.02755902583268 2.739781244197927 0 0 0
301 0 1 0 16.704594657050535 14.072198630252482 3.869126566552238 0 0 0
1784 0 2 0 19.939282824809577 15.508162364259672 0.08739987956197251 0 0 1
335 0 2 0 20.501476854763744 13.794649086850235 1.9416779394258334 0 0 0
309 0 2 0 18.48147535644643 16.385118933519617 3.9787312695361408 0 0 0
303 0 2 0 16.720190682703606 13.245715105338066 4.344556121276465 0 0 0
345 0 2 0 20.588078429216765 15.551198158059726 4.061842183091323 0 0 0
237 0 2 0 22.361747621484408 12.595278376726123 0.9502809464359157 0 0 0
257 0 2 0 24.216625446107354 14.293248256367402 2.4968105196954826 -1 0 0
332 0 2 0 22.315614023057027 13.789705888547504 3.50212312715086 0 0 0
334 0 1 0 21.44174965469339 13.7384690660776 1.763319839584335 0 0 0
336 0 2 0 21.781339173290007 14.540263074176451 1.3708959687861337 0 0 0
349 0 1 0 22.980393562317865 15.493998538815761 0.4231152585150634 0 0 0
350 0 2 0 23.891648150220366 15.303463452490085 0.7440343265805023 0 0 0
331 0 1 0 23.1352616830913 13.897538633022315 3.9702351697068607 0 0 0
351 0 2 0 22.92849292010355 16.47106449718258 0.2974047067917023 0 0 0
262 0 1 0 1.5282795692638624 16.749559530376363 1.4654625017342167 0 0 0
263 0 2 0 2.252334826546782 16.866940870666458 2.109123478823294 0 0 0
250 0 1 0 3.236034112646856 17.133606539520876 3.848026561158708 0 0 0
366 0 2 0 1.8044048266938177 20.031052705044065 2.0391914946930467 0 0 0
376 0 1 0 0.2821193733734464 19.704043080416444 2.1284436011571746 0 0 0
364 0 1 0 2.7654187690418084 20.19235401711266 1.9537696942366996 0 0 0
338 0 2 0 0.09744059078219984 17.543409059698426 4.041750431185402 1 0 0
363 0 2 0 3.8560983017457646 20.063022899287343 3.6483204200453088 0 0 0
390 0 2 0 2.103822990720474 18.46776183368409 4.132964445246045 0 0 0
267 0 2 0 3.9655874641550675 18.89262597473979 1.3047610234787623 0 0 0
249 0 2 0 6.472130158134156 16.957327148283348 3.016864968787254 0 0 0
252 0 2 0 4.209175005003369 17.10645040212945 3.95323185180594 0 0 0
247 0 1 0 5.967671365556008 17.068711715973045 3.8823334418324214 0 0 0
265 0 1 0 4.570551806553157 18.475146755434373 0.7059981077288063 0 0 0
266 0 2 0 4.527478125138833 17.522349516443175 0.8035292673174684 0 0 0
408 0 2 0 6.015516077829762 19.455750666158266 1.5761322598310366 0 0 0
361 0 1 0 4.584147485623432 20.060864082568663 4.2735967042827285 0 0 0
407 0 2 0 5.999445603218804 20.413821714625154 2.73002728136156 0 0 0
406 0 1 0 6.348877982619592 20.332568378056767 1.8470562206678816 0 0 0
292 0 1 0 7.434624188457774 16.885336433196578 1.6939345918238418 0 0 0
294 0 2 0 7.744848248326602 17.63067971354393 1.0903407947442618 0 0 0
293 0 2 0 8.226128882504089 16.702004472003203 2.193710737883197 0 0 0
395 0 2 0 8.26503768040224 20.110473859890543 2.081664772370385 0 0 0
290 0 2 0 10.662409110634119 16.620618698359877 0.7076137908774333 0 0 0
278 0 2 0 11.084030859653602 16.91581663075181 3.734144966912316 0 0 0
280 0 1 0 9.326865914622529 17.161029337224537 3.8586704738521944 0 0 0
295 0 1 0 11.089273914582572 18.444609454653378 0.8867042014453631 0 0 0
296 0 2 0 10.293210196452375 18.77709539693997 1.3352022230790699 0 0 0
394 0 1 0 9.221128179161086 20.05295761381285 2.230229958148193 0 0 0
396 0 2 0 9.335580592289423 19.78565003526552 3.2044467729036263 0 0 0
282 0 2 0 9.00508411480166 17.952289367276364 4.3070116985078135 0 0 0
393 0 2 0 11.414990510968595 20.055054047576032 3.8034290875303673 0 0 0
277 0 1 0 12.010107956306925 16.873219916488 3.597523046293052 0 0 0
437 0 2 0 12.260141776844762 19.465583146589204 1.7951587145416714 0 0 0
297 0 2 0 11.084225421734665 18.859169669692847 -0.008311186897994483 0 0 0
279 0 2 0 12.391079802827948 17.51527194755852 4.235206795546235 0 0 0
436 0 1 0 12.554569589314887 20.33656675504624 2.206396592145135 0 0 0
324 0 2 0 14.4323969077524 16.591748611390994 1.6055639975990514 0 0 0
323 0 2 0 12.944118505647502 16.799487651151313 1.477583789093037 0 0 0
310 0 1 0 15.258207032158504 17.110425242048727 3.260859046652688 0 0 0
312 0 2 0 14.70553615316093 17.854165060013514 3.599222267257479 0 0 0
322 0 1 0 13.750180599645466 16.877661629446816 0.985400292846454 0 0 0
424 0 1 0 15.293667749738674 20.06054437394856 2.0212764226266593 0 0 0
425 0 2 0 14.35609316742717 20.217329508513902 2.017719452835099 0 0 0
423 0 2 0 15.930534121151062 19.927101889994038 3.633165257702354 0 0 0
1890 0 2 0 13.787240505527715 18.263897237874403 -0.032526892683382186 0 0 1
326 0 2 0 16.194984482668556 18.839226532954218 0.9502196428067409 0 0 0
321 0 2 0 17.09867665495617 16.72286649548798 0.23904276382917994 0 0 0
325 0 1 0 16.984403871389322 18.51442259417851 0.5769524053756747 0 0 0
353 0 2 0 19.29396452055779 16.889662139585113 2.008190533801768 0 0 0
308 0 2 0 17.20642244161413 17.057086314673125 3.39425768933501 0 0 0
307 0 1 0 18.159821407487165 17.11012479776119 3.4170287408216664 0 0 0
466 0 1 0 18.363362019432742 20.19612892033521 2.00155279849834 0 0 0
468 0 2 0 17.929678288614394 19.416848287306586 1.4840709646390617 0 0 0
352 0 1 0 19.942107361116786 16.701513276960526 1.2634132598567334 0 0 0
354 0 2 0 19.86508968426043 17.534635552912025 0.7503944380034326 0 0 0
421 0 1 0 16.711471147222703 20.042440770324006 4.304167146984848 0 0 0
467 0 2 0 18.040272503257597 20.088387565706814 2.8836476101610766 0 0 0
480 0 2 0 19.148050450911267 18.52318272657609 4.1205598653067845 0 0 0
455 0 2 0 20.208096110462638 19.966021440915178 2.0244880230787508 0 0 0
337 0 1 0 24.37818174401234 16.720240643239478 3.613390483732815 0 0 0
339 0 2 0 23.450584841389468 16.82401475300731 3.7947562276767104 0 0 0
378 0 2 0 24.54949406337867 19.62820181201391 2.975198013313148 -1 0 0
342 0 2 0 21.522645527953753 17.05662395557582 2.479673678728074 0 0 0
340 0 1 0 21.689080749989408 16.95581789382791 3.386178011071774 0 0 0
355 0 1 0 23.135125679468192 18.17203312563942 0.6899616505681889 0 0 0
356 0 2 0 23.891949641204906 18.487352428273095 1.2090388507554006 0 0 0
454 0 1 0 21.16619680833033 20.086074368304285 1.9743932258036816 0 0 0
456 0 2 0 21.38401899160542 19.42583866361547 1.2526526616262135 0 0 0
341 0 2 0 21.202420328690994 17.722208583721063 3.716036316261677 0 0 0
453 0 2 0 22.511994405953462 20.063573388279057 3.4934250812010177 0 0 0
451 0 1 0 23.190666557439226 20.211820476283187 4.14146642370318 0 0 0
377 0 2 0 24.46649288415527 20.375051031711674 1.646609556150458 -1 0 0
357 0 2 0 23.139247523975538 18.805908970185328 -0.046290801646813595 0 0 0
365 0 2 0 3.0665958049606052 21.013500272094475 1.361727277123869 0 0 0
370 0 1 0 3.274276106670415 23.120824918377025 3.6152615686905807 0 0 0
371 0 2 0 2.994403154891199 23.028949113320788 2.663846468177038 0 0 0
382 0 1 0 1.6332961944093645 23.08541125151651 1.1039129643691967 0 0 0
383 0 2 0 1.3913384548627454 22.516927395426947 0.36368715554037684 0 0 0
384 0 2 0 1.3535268975854904 23.99538899840982 0.8005988997775277 0 0 0
372 0 2 0 2.7772563165015653 23.86436242840179 3.9581216761943603 0 0 0
459 0 2 0 0.5523106500763377 23.00531928180263 2.7835949017028465 1 0 0
29 0 2 0 0.9778228418843038 24.747753326762012 4.3701773316832515 0 -1 0
458 0 2 0 0.29751569423725505 22.610979966066836 4.208180684527571 1 0 0
457 0 1 0 0.15929723017579242 23.34348873672938 3.5996732590611527 1 0 0
385 0 1 0 4.710692607773613 24.55865636753302 0.7821518589394295 0 0 0
367 0 1 0 6.191085831759914 23.212476546058237 3.640179387348395 0 0 0
368 0 2 0 5.252469712548751 23.189777077117544 3.391214070802401 0 0 0
379 0 1 0 4.611920770568576 21.79472011188257 0.6128401337796566 0 0 0
380 0 2 0 5.314350436262129 21.40334966717768 1.1640022723224712 0 0 0
412 0 1 0 7.706855426842427 23.294483355041557 1.492541878158205 0 0 0
413 0 2 0 7.730402958928946 24.066936891942547 0.919394086751193 0 0 0
414 0 2 0 6.894335568639331 23.284299772728748 2.0581521381979235 0 0 0
381 0 2 0 4.866699482923131 22.722243188160988 0.4932450924731867 0 0 0
369 0 2 0 6.4270012456285235 22.289723362116867 4.020634594394631 0 0 0
415 0 1 0 10.725957387077926 24.53645821291423 0.3496871812087882 0 0 0
400 0 1 0 9.346575794121911 22.81735298511984 3.8347429756904257 0 0 0
401 0 2 0 10.317502497766148 23.077867923526366 3.8492294572673633 0 0 0
402 0 2 0 9.065505337860317 23.11463977230819 2.9894599076747763 0 0 0
409 0 1 0 10.766269788641795 21.918658256423196 0.665375969947269 0 0 0
410 0 2 0 9.939849463343137 21.616840189793557 1.1538071653887951 0 0 0
411 0 2 0 10.754249951630378 22.888607660372127 0.6356243655418786 0 0 0
397 0 1 0 12.091930392750704 23.15283995385922 3.797727568797799 0 0 0
438 0 2 0 12.079118738604654 20.989174352413297 1.5926732326194986 0 0 0
399 0 2 0 12.395142730903512 23.00637920328156 2.879017290778794 0 0 0
426 0 2 0 15.662566034477203 20.854632244269663 1.5924231639341029 0 0 0
398 0 2 0 12.439096055944628 24.038256291565126 3.973664271888718 0 0 0
430 0 1 0 15.68308277401017 23.287316801697212 3.45460328125807 0 0 0
431 0 2 0 15.35133185369235 22.448104924494338 3.82190092546189 0 0 0
442 0 1 0 13.685177675574723 23.005127072633787 1.5074662965579355 0 0 0
443 0 2 0 14.33216302013081 23.44147251151329 2.0704960986498766 0 0 0
444 0 2 0 13.61466060524991 23.65768193476568 0.7870666613775674 0 0 0
1875 0 2 0 13.956922965422384 21.848837675176394 0.1440561738856725 0 0 1
432 0 2 0 16.636172757488396 23.183098218993766 3.469289630182147 0 0 0
439 0 1 0 16.763974516089874 21.811218885265998 0.6581840659220792 0 0 0
447 0 2 0 16.67508567286279 23.868159558175854 0.9836834330311854 0 0 0
427 0 1 0 18.38374559265299 23.32173602698359 3.38338063881896 0 0 0
428 0 2 0 18.700800580474937 22.539285013529824 3.829490268849125 0 0 0
429 0 2 0 18.85344104401939 24.0370307492644 3.8731671569463066 0 0 0
440 0 2 0 17.515335449018433 21.2576636514215 0.9327378421812533 0 0 0
474 0 2 0 19.63850933792261 23.227744572649097 2.0080983118871125 0 0 0
472 0 1 0 20.46056913526459 23.13921430169675 1.4378639155593471 0 0 0
473 0 2 0 20.27258169579496 23.681198008186566 0.6961831201794451 0 0 0
1905 0 2 0 19.783833442382715 21.88109927177692 0.12500545629636017 0 0 1
120 0 2 0 20.610310942415616 24.392783221067244 4.195156685643809 0 -1 0
475 0 1 0 23.10749108938911 24.426950515680673 0.7383330979695154 0 0 0
460 0 1 0 22.095987724667136 23.280937644784107 3.5292356903180218 0 0 0
461 0 2 0 21.678196714224452 23.24275710587815 2.6332175128758375 0 0 0
462 0 2 0 23.078505264870326 23.12669264996538 3.5110758038750784 0 0 0
469 0 1 0 23.323599020453837 21.65221588115982 0.8237242961029584 0 0 0
471 0 2 0 22.395881489453533 21.401409045716356 1.0453828614425296 0 0 0
477 0 2 0 23.20730453544324 23.54304669752699 1.069599847322767 0 0 0
465 0 2 0 21.06732427905819 21.714867372363692 4.261648813647373 0 0 0
13 0 1 0 1.8321372202256678 2.892063801704764 5.0626215738394675 0 0 0
28 0 1 0 1.6952638007012644 0.22228224996063828 4.8990363544407325 0 0 0
14 0 2 0 1.5739073407647415 1.942933611966449 5.114793828750255 0 0 0
15 0 2 0 1.8647530803978771 3.237220797103917 5.978872292828265 0 0 0
484 0 1 0 2.93288766466425 1.6788568005447697 7.817099276993238 0 0 0
485 0 2 0 2.0243104795506266 1.5748085768393552 7.582944439114152 0 0 0
486 0 2 0 3.287878333525632 2.3985999992809823 7.290257616884771 0 0 0
496 0 1 0 0.2666235917351249 1.2415200161785886 7.4563020305538785 0 0 0
866 0 2 0 3.767990543923213 0.2631908291272695 6.627566663888594 0 1 0
45 0 2 0 7.024105860914917 3.28602396252008 4.596616858399857 0 0 0
3 0 2 0 5.074645650830021 0.48030639614334214 4.72459752889887 0 0 0
44 0 2 0 7.526376781329941 1.8265002957836802 5.079694480584557 0 0 0
43 0 1 0 7.7496143748976465 2.807353371739915 5.026620816464961 0 0 0
500 0 2 0 5.037373296771763 2.859769296369166 5.737425550388675 0 0 0
499 0 1 0 4.794120685388292 3.2946786753667903 6.557550739097952 0 0 0
501 0 2 0 5.471296633378135 2.832639075509073 7.09023637295834 0 0 0
526 0 1 0 6.340749204651953 1.6209682962116287 7.710095599181402 0 0 0
527 0 2 0 7.2942441064407735 1.4761558859908148 7.616957609085368 0 0 0
528 0 2 0 6.114866494975684 1.6089970521497843 8.667605893315324 0 0 0
534 0 2 0 7.748401745589412 4.097374523788027 6.54120462454238 0 0 0
867 0 2 0 5.291350533078329 0.13420164988113573 6.727925678030604 0 1 0
58 0 1 0 7.639739320970919 0.04145716155367188 5.451679403184738 0 0 0
33 0 2 0 10.464753449206345 2.2641503882622263 4.989502794929536 0 0 0
514 0 1 0 8.856419302538072 1.5914315687653067 7.865025920759018 0 0 0
516 0 2 0 9.274442158835138 0.8613572656452222 7.334147130526277 0 0 0
529 0 1 0 10.465154622908264 3.1491595457816612 6.392230027484618 0 0 0
531 0 2 0 9.790233779405002 2.9585510790892955 7.0424204521534275 0 0 0
515 0 2 0 9.460793067840166 1.6598601707483025 8.64143941341776 0 0 0
558 0 2 0 12.234242304583931 2.503510342140982 7.423345277663074 0 0 0
897 0 2 0 11.301822124083412 0.4538210566460749 6.930670343211859 0 1 0