LAMMPS (29 Sep 2021 - Update 2)
  using 1 OpenMP thread(s) per MPI task
echo both

include		in.partitions
variable        pid world 0
include		in.temp
variable        temperature equal 275
variable        tempDamp equal 0.100 # this is 0.1 ps
include		in.pressure
variable        pressure equal 9119.25
variable        pressureDamp equal 1.0 #this is 1ps
include		in.seed
variable        seed world 745823

units           metal
atom_style	full
include		in.box
read_data       iceVI.data
Reading data file ...
  orthogonal box = (0.0000000 0.0000000 0.0000000) to (24.724405 24.724405 22.792372)
  1 by 1 by 1 MPI processor grid
  reading atoms ...
  1920 atoms
Finding 1-2 1-3 1-4 neighbors ...
  special bond factors lj:    0        0        0       
  special bond factors coul:  0        0        0       
     0 = max # of 1-2 neighbors
     0 = max # of 1-3 neighbors
     0 = max # of 1-4 neighbors
     1 = max # of special neighbors
  special bonds CPU = 0.003 seconds
  read_data CPU = 0.024 seconds
include 	in.setup
variable	out_freq equal 500
variable	out_freq2 equal 500

timestep        0.0005

neigh_modify    delay 7 every 1

include         in.deepmd
# This is deepMD model

# create groups ###
#group ox type 2
#group hy type 1

mass 2 15.999
mass 1 1.008

pair_style      deepmd ../graph.pb
pair_coeff      * *

bond_style      none
angle_style     none
dihedral_style  none
improper_style  none
neigh_modify exclude none


neighbor        2.0 bin
neigh_modify    every 10 delay 0 check no

thermo          ${out_freq}
thermo          500
thermo_style 	custom step temp pe etotal epair emol press lx ly lz xy xz yz vol pxx pyy pzz pxy pxz pyz

restart 	${out_freq} restart.lmp.${pid} restart2.lmp.${pid}
restart 	500 restart.lmp.${pid} restart2.lmp.${pid}
restart 	500 restart.lmp.0 restart2.lmp.${pid}
restart 	500 restart.lmp.0 restart2.lmp.0


include         in.dump
dump            myDump all atom ${out_freq2} dump.water.${pid}
dump            myDump all atom 500 dump.water.${pid}
dump            myDump all atom 500 dump.water.0
dump            myDump2 all dcd ${out_freq2} dump.dcd
dump            myDump2 all dcd 500 dump.dcd
dump_modify     myDump append yes
dump_modify     myDump2 append yes


timer           timeout 03:55:00 every 1000
New timer settings: style=normal  mode=nosync  timeout=03:55:00

fix             2 all nph aniso ${pressure} ${pressure} ${pressureDamp}
fix             2 all nph aniso 9119.25 ${pressure} ${pressureDamp}
fix             2 all nph aniso 9119.25 9119.25 ${pressureDamp}
fix             2 all nph aniso 9119.25 9119.25 1
fix             3 all temp/csvr ${temperature} ${temperature} ${tempDamp} ${seed}
fix             3 all temp/csvr 275 ${temperature} ${tempDamp} ${seed}
fix             3 all temp/csvr 275 275 ${tempDamp} ${seed}
fix             3 all temp/csvr 275 275 0.1 ${seed}
fix             3 all temp/csvr 275 275 0.1 745823
velocity 	all create ${temperature} ${seed} dist gaussian
velocity 	all create 275 ${seed} dist gaussian
velocity 	all create 275 745823 dist gaussian

run             400000

CITE-CITE-CITE-CITE-CITE-CITE-CITE-CITE-CITE-CITE-CITE-CITE-CITE

Your simulation uses code contributions which should be cited:

- USER-DEEPMD package:

@article{Wang_ComputPhysCommun_2018_v228_p178,
  author = {Wang, Han and Zhang, Linfeng and Han, Jiequn and E, Weinan},
  doi = {10.1016/j.cpc.2018.03.016},
  url = {https://doi.org/10.1016/j.cpc.2018.03.016},
  year = 2018,
  month = {jul},
  publisher = {Elsevier {BV}},
  volume = 228,
  journal = {Comput. Phys. Commun.},
  title = {{DeePMD-kit: A deep learning package for many-body potential energy representation and molecular dynamics}},
  pages = {178--184}
}

CITE-CITE-CITE-CITE-CITE-CITE-CITE-CITE-CITE-CITE-CITE-CITE-CITE

Neighbor list info ...
  update every 10 steps, delay 0 steps, check no
  max neighbors/atom: 2000, page size: 100000
  master list distance cutoff = 8
  ghost atom cutoff = 8
  binsize = 4, bins = 7 7 6
  1 neighbor lists, perpetual/occasional/extra = 1 0 0
  (1) pair deepmd, perpetual
      attributes: full, newton on
      pair build: full/bin
      stencil: full/bin/3d
      bin: standard
Per MPI rank memory allocation (min/avg/max) = 9.089 | 9.089 | 9.089 Mbytes
Step Temp PotEng TotEng E_pair E_mol Press Lx Ly Lz Xy Xz Yz Volume Pxx Pyy Pzz Pxy Pxz Pyz 
       0          275   -333.91511    -265.7013   -333.91511            0    45634.444    24.724405    24.724405    22.792372            0            0            0     13932.89    46301.662    47672.543    42929.126   -805.47373   -390.94108   -356.60797 
     500    251.44289   -309.02388   -246.65341   -309.02388            0    4648.0221     24.84993    24.887911    22.892187            0            0            0    14157.968    6374.9678    6052.7858    1516.3126   -1678.7056    -2016.529    1111.9929 
    1000    277.19525   -308.31888   -239.56054   -308.31888            0     8249.548    24.866349    24.882452    22.868218            0            0            0    14149.383    7905.4453     5812.694    11030.505    375.94292   -1026.0436   -812.28236 
    1500    276.93559   -307.58606   -238.89213   -307.58606            0    14356.352    24.878242     24.76388    22.803582            0            0            0    14048.871    13257.852    16587.873     13223.33    1326.3895   -2029.5646    2618.4784 
    2000    272.88773   -304.71446    -237.0246   -304.71446            0    2675.5879    24.901537    24.911362    22.922611            0            0            0    14219.611    1573.0778    2659.6707    3794.0151   -135.01523    -1380.139     168.1348 
    2500     285.2792   -305.78011   -235.01654   -305.78011            0    9942.5776    24.761979    24.837643    22.860783            0            0            0    14060.049    10555.504    10848.863     8423.365    1590.4314   -857.58356     710.4611 
    3000    274.94618   -304.84581   -236.64535   -304.84581            0    12630.994    24.846901    24.895991    22.917907            0            0            0    14176.748    12284.328    13691.931    11916.721    808.87771   -1127.9874   -2303.8946 
    3500    264.35231   -303.92657   -238.35392   -303.92657            0    9355.7891    24.866988    24.809882    22.861525            0            0            0     14104.35    10656.051    10000.851    7410.4659    1563.7833   -1726.0037    817.89279 
    4000    272.07664   -306.75403   -239.26536   -306.75403            0    7815.0512    24.897701    24.850662     22.84151            0            0            0    14132.598    8430.8666    6704.0967    8310.1903   -621.07937    555.82851   -297.71285 
    4500    273.37816   -306.86561    -239.0541   -306.86561            0    9029.0041    24.870239    24.870967    22.829218            0            0            0    14120.942    8103.4374    7730.1888    11253.386    1298.7539   -1520.8878    3984.4794 
    5000    276.03683    -306.2028   -237.73181    -306.2028            0    7274.9454    24.775221    24.806443    22.938352            0            0            0    14097.569    6808.6293    8374.2187    6641.9882     731.2788   -1334.6135    539.76034 
    5500    270.61934   -306.16808    -239.0409   -306.16808            0    12735.185     24.82054    24.805544    23.013132            0            0            0    14168.886    10871.433    11962.596    15371.526    -1338.336     1588.374   -1060.5915 
    6000    276.84768   -306.10458   -237.43245   -306.10458            0     13692.36     24.76819    24.776282    22.782795            0            0            0    13980.974    15232.054    14814.609    11030.415   -815.52076   -1893.6442   -1010.0685 
    6500    270.13564   -307.32026   -240.31306   -307.32026            0    7336.2586    25.000663    25.009804    22.771168            0            0            0    14237.939    7413.3294    6455.3588    8140.0876    969.45925   -648.06946     1022.802 
    7000    283.10588   -305.95701   -235.73254   -305.95701            0    14296.797    24.815026    24.854667    22.700505            0            0            0    14000.972    14593.463    11062.537    17234.391    -731.7855    72.747608    1652.1967 
    7500    281.96122   -307.82204   -237.88149   -307.82204            0    6690.8167    24.824645    24.897123    22.994157            0            0            0     14211.82    7112.8316    6197.9215    6761.6971    1370.4899   -2581.0137    447.13683 
    8000    273.41746   -305.99267   -238.17141   -305.99267            0    8651.5238    24.773635    24.743416    22.968808            0            0            0     14079.52     9771.692    7964.1132    8218.7662   -125.17143   -426.98884     1046.174 
    8500    273.27316   -307.47508   -239.68962   -307.47508            0    8025.2334     24.92686    24.795839    22.853944            0            0            0    14125.621    8173.0537    7840.2248    8062.4215    1072.8429   -2883.3325   -1291.9988 
    9000    279.39028   -304.61539   -235.31257   -304.61539            0    9369.1714    24.917079     24.91825    22.780212            0            0            0    14144.006    10205.904     9687.543    8214.0674   -1114.9196    558.77183   -735.51968 
    9500    275.51171   -304.82984    -236.4891   -304.82984            0    10993.786     24.75526    24.919986    22.814051            0            0            0    14074.005    9208.7828    12529.083    11243.491    2090.6076   -3103.1015   -514.80758 
   10000    279.08075   -304.68027   -235.45423   -304.68027            0    8768.1056    24.834875    24.886361    22.992889            0            0            0    14210.748    7864.6343    10235.636    8204.0469    739.09476   -494.11147   -169.92577 
   10500    285.19852   -302.97019   -232.22663   -302.97019            0    11120.665    24.929885    24.666083    22.944974            0            0            0    14109.383    11428.566    11697.864    10235.567    1814.0702    2773.5659    347.18581 
   11000    273.48211   -304.44971   -236.61241   -304.44971            0    9316.4634    24.890469    24.862259    22.867388            0            0            0    14151.101    8565.4281    8810.0573    10573.905     939.9598   -1632.1385    1923.2463 
   11500    268.24201   -304.49303   -237.95554   -304.49303            0    8361.2959    24.783183    24.957343    22.784661            0            0            0    14092.823    9022.1277    9695.3045    6366.4555   -2308.6164   -1300.3047    2050.7207 
   12000    278.60261   -305.46225   -236.35482   -305.46225            0    7991.7008    24.837475    24.816615    22.863018            0            0            0    14092.355    6549.1124    7934.0876    9491.9024   -2479.7187   -251.04964    2128.7166 
   12500    275.80276   -303.79338   -235.38045   -303.79338            0    8583.2354    24.928215    24.737132    22.981231            0            0            0    14171.434     9628.196    7531.7902    8589.7199    496.55291   -1844.2872    1347.4172 
   13000     282.6479   -304.84774   -234.73687   -304.84774            0    11492.182    24.799788    24.808632    22.890157            0            0            0    14083.142    11591.686    12544.194    10340.667   -39.305966    382.25184   -2077.8881 
   13500    277.70026   -306.88873   -238.00512   -306.88873            0    8017.7645    24.814941    24.974184    22.853387            0            0            0    14162.996    6952.1908     6463.094    10638.009    1007.2355    554.26238     2296.191 
   14000     262.8275   -304.78365   -239.58923   -304.78365            0    9577.7028    24.833101    24.859812    22.819607            0            0            0    14087.598    10224.868    9134.1651    9374.0755    496.48678    175.76211    2191.9782 
   14500    273.95791   -308.86997   -240.91465   -308.86997            0    9228.6138    24.927739    24.692363    22.892589            0            0            0    14090.956    8517.7471    9296.9748    9871.1195    807.00534    -94.74627     -2743.31 
   15000    272.54388   -304.79503   -237.19046   -304.79503            0    7975.4704    24.883907     24.76879    22.978702            0            0            0    14162.792    9829.1273    6598.5382    7498.7459    195.30471    1919.0768     538.1677 
   15500    276.05422   -305.94654   -237.47123   -305.94654            0    11791.418    24.640693    24.989612    22.834847            0            0            0    14060.816    12513.645     13560.97      9299.64   -2106.3158   -1205.7148    69.505438 
   16000    274.58901   -304.77168   -236.65982   -304.77168            0    11094.289    24.843736    25.013592    22.739391            0            0            0    14130.964    12259.157    10622.922     10400.79    3377.5381    2982.0888    218.48379 
   16500     275.5273   -304.88163   -236.53702   -304.88163            0    7594.5839    25.006731    24.691237    22.791044            0            0            0    14072.265    6503.4995    8515.5498    7764.7023   -516.65635    2263.3724    1338.8095 
   17000    278.08274    -306.9102   -237.93171    -306.9102            0    9264.3982    24.875155    24.706428    22.984092            0            0            0    14125.477    6645.8907    12700.968    8446.3357   -52.096324    113.09234   -1215.3723 
   17500    273.75994   -305.40709   -237.50087   -305.40709            0     11216.58    24.681581    24.912113    23.015417            0            0            0    14151.497    11803.539    9210.3156    12635.884   -410.63319     1275.521   -1095.4861 
   18000    271.25317   -307.42091    -240.1365   -307.42091            0    9775.3761    24.756525    24.856351    22.826963            0            0            0    14046.729    8350.4724    9289.8996    11685.756   -2035.2163    248.04263    -547.6081 
   18500    275.61805   -307.64784   -239.28072   -307.64784            0    10001.849    24.995388     24.83778    22.784208            0            0            0    14145.119     7635.187    11593.316    10777.045    431.36305    3056.6988    829.68954 
   19000    275.42855   -306.63968   -238.31956   -306.63968            0    11088.214    24.913024    24.782905    22.808357            0            0            0     14082.27     9336.039    10668.536    13260.067    420.96134   -1997.7324   -1129.8377 
   19500    271.50217   -305.39893   -238.05275   -305.39893            0    10244.867    24.767927    24.871615    22.972562            0            0            0    14151.519    11776.665    11787.893    7170.0436   -863.73222   -1483.6138    1371.2156 
   20000    271.92073   -307.27188   -239.82188   -307.27188            0    10423.261    24.714518    24.856857    22.945631            0            0            0     14096.08     9802.056    10764.769    10702.957    1059.6309   -146.67256    229.50432 
   20500    278.08185   -308.38334   -239.40507   -308.38334            0    9537.1304    24.864123    24.819715    22.817092            0            0            0    14080.894    8154.6999    9350.2578    11106.433    3086.5877    804.13497    -1524.075 
   21000    270.87548   -305.79832    -238.6076   -305.79832            0     8138.461    24.960853     24.85754    22.781929            0            0            0    14135.398    9020.5132    7362.6765    8032.1933   -470.77609   -141.89044   -2121.9473 
   21500    268.33863   -307.85608   -241.29463   -307.85608            0    9273.3431    24.766512    24.854636     22.83348            0            0            0    14055.437    9656.3574    7037.5463    11126.126   -351.14093   -1276.0593   -1282.0244 
   22000     277.0935   -306.68593   -237.95283   -306.68593            0    9313.2341    24.782946    24.833148    23.046945            0            0            0    14183.979    11638.629    9514.3418    6786.7309    804.88046    1623.9077   -1201.9573 
   22500    278.06043   -306.16508   -237.19213   -306.16508            0    11000.608     24.83732    24.749035    22.952615            0            0            0    14108.966     10963.31    12068.445    9970.0702   -763.40354   -83.917411    1251.3015 
   23000    276.14158   -309.56272   -241.06574   -309.56272            0    6773.6752    24.912504     24.82136     22.78541            0            0            0    14089.637    7010.7961    5415.6155    7894.6139   -571.76002   -669.53653    42.479009 
   23500    273.44661   -306.00478   -238.17629   -306.00478            0    10034.617    24.936204     24.96536    22.774832            0            0            0    14178.273    10844.564    8941.8637    10317.424   -433.87331   -279.60318    908.48858 
   24000    281.57493   -304.75167   -234.90695   -304.75167            0    9568.3825    24.771864    24.789754    22.859714            0            0            0    14037.885    9971.2445     8657.075    10076.828    212.13676    1626.2068    469.26071 
   24500    274.82757   -306.41245   -238.24141   -306.41245            0    8066.6475    24.854081     24.81311    23.073285            0            0            0    14229.458    7845.7627    9636.8288    6717.3509   -4.3230159   -1722.0608   -861.54308 
   25000    285.75943   -304.54612   -233.66343   -304.54612            0    11096.633    24.836621    24.797659    22.821301            0            0            0    14055.412    10982.234    11898.728    10408.939    1336.4725   -851.25176     877.8989 
   25500    275.43122   -304.20258   -235.88181   -304.20258            0    8400.8517    24.881484    24.999179    22.800391            0            0            0    14182.223     7507.564    7238.3225    10456.668    1013.6905   -1084.5927    1584.4802 
   26000    287.98928   -304.38755   -232.95175   -304.38755            0    11644.647    24.783054    24.853684    22.943981            0            0            0    14132.349    18371.177    7240.7088    9322.0542    344.01123    342.65131     1645.647 
   26500    270.13372   -305.08369   -238.07696   -305.08369            0    7786.8611    24.808902    24.750084    23.040084            0            0            0    14147.127      5404.38    11768.368    6187.8348    526.31053    245.51415     276.7379 
   27000    271.50632   -303.64395   -236.29675   -303.64395            0    6299.1049     24.89819    24.820571    22.882026            0            0            0    14140.801    5907.3685    6144.9247    6845.0217   -2552.1221   -1053.3977     1047.374 
   27500    278.75738   -306.61724   -237.47141   -306.61724            0    8732.6402    24.868516    24.936536    22.686694            0            0            0    14068.805    7781.6525    7807.5128    10608.755    195.25961    1618.9999   -767.96235 
   28000    265.71104   -304.76598    -238.8563   -304.76598            0    9136.9447    24.900456    24.945825    22.818381            0            0            0    14173.921     11532.68    6574.5224    9303.6319   -369.88937    -883.6567   -522.57067 
   28500    274.85945    -304.8034   -236.62445    -304.8034            0    9490.1503    24.839313    24.697147      22.9668            0            0            0    14089.217    8402.4636    9910.5121    10157.475    1644.4263   -937.58293    1700.7126 
   29000    268.79536   -305.38272   -238.70797   -305.38272            0     8557.429    24.861095    24.738791    23.030512            0            0            0    14164.535    7660.9258    10240.873    7770.4882    955.56711    692.01688   -806.89973 
   29500    282.17495   -305.79398   -235.80042   -305.79398            0    8740.8582    24.832283    24.952147     22.81809            0            0            0    14138.517    10048.596    8486.8546    7687.1242    1044.4629   -2226.0393   -1419.8173 
   30000    282.99811   -302.89383   -232.69608   -302.89383            0    9367.5323    24.893792    25.012533     22.73272            0            0            0    14154.682     8890.222    6555.8729    12656.502    555.64817   -538.74272    1270.3247 
   30500    278.15044   -303.96917    -234.9739   -303.96917            0    8348.1878    24.949441    24.808648    22.895819            0            0            0     14171.64    8401.5259    8521.7149    8121.3225    716.57556    2114.4748   -1175.2126 
   31000    288.58344   -305.72261   -234.13942   -305.72261            0    12500.027    24.793902    24.755492    22.975139            0            0            0    14101.801    13543.404     12533.62    11423.056    823.22209    536.92334    684.93264 
   31500    277.82312   -304.98559    -236.0715   -304.98559            0    7622.9284    24.747581    24.936245    22.964245            0            0            0    14171.506    9276.6936    7573.1713    6018.9203   -2253.5382   -1515.1569    77.567561 
   32000    278.22435   -306.13583   -237.12222   -306.13583            0     8675.007    24.829483    24.852743    22.819932            0            0            0    14081.741    7529.3907    10332.123    8163.5077   -1722.7281    186.20419   -350.41407 
   32500    277.64625   -304.85355   -235.98334   -304.85355            0    10121.946    25.003063    24.782591    22.838492            0            0            0    14151.659    9456.3891    9761.0145    11148.433    2054.0241    1263.0744   -96.567646 
   33000    275.95603   -304.19734   -235.74639   -304.19734            0    11144.645    24.908708    24.797476    22.899672            0            0            0    14144.511    12910.435    11489.228    9034.2725   -812.27625     393.8294    254.58151 
   33500    272.67729   -306.94444   -239.30678   -306.94444            0    7874.4714    24.678194    24.901834    22.951527            0            0            0    14104.454    7964.7126     8360.374    7298.3274    1734.1946    1685.5854   -26.607992 
   34000    272.59838   -307.31453   -239.69644   -307.31453            0    9006.9875      24.7371    24.897084    22.954726            0            0            0    14137.395    8980.5186     11954.93    6085.5139   -950.08206    111.90773   -2018.0377 
   34500    266.31928   -306.43907   -240.37851   -306.43907            0    9118.7372    25.017225    24.700252    22.770669            0            0            0    14070.719    7866.3551    8436.6562      11053.2    -3207.776   -1355.1461    4239.2445 
   35000    272.62048   -308.76233   -241.13876   -308.76233            0    9204.3006     25.03807    24.774702    22.787913            0            0            0    14135.587    7536.5179     10787.98    9288.4042     364.2982   -874.19774   -450.11374 
   35500    273.69854   -305.95103   -238.06004   -305.95103            0    9065.9273    24.724054    24.941084    22.862514            0            0            0    14098.048     6525.792    10057.013    10614.977    105.90941     1816.857    610.78427 
   36000    271.36729   -306.54442    -239.2317   -306.54442            0    9624.1657    24.732101    24.899442    22.982537            0            0            0    14153.003    11803.361    8090.7425    8978.3938   -2427.4147   -2432.9585   -214.85618 
   36500    271.08539   -306.30573   -239.06294   -306.30573            0    9424.5709    24.836705    24.741181    22.937186            0            0            0    14094.658    9247.3859    11063.046    7963.2804   -520.60188   -2428.8609   -1063.1804 
   37000    269.32951    -306.2558   -239.44856    -306.2558            0    8060.1807    24.892801    24.795205    22.884261            0            0            0    14124.672    7669.5483     9694.023    6816.9707     600.5336    247.70907    651.25049 
   37500    272.40254   -307.01297   -239.44346   -307.01297            0    6627.5526    24.838317    24.871824    22.877352            0            0            0    14133.039    6221.1317    7605.2754    6056.2507    1808.8927   -1171.7365    32.672417 
   38000    273.86955   -304.04527   -236.11187   -304.04527            0    10505.072    24.815498    24.868845     22.87321            0            0            0    14115.807    11663.763    9344.5842     10506.87    709.66988   -235.92084    266.87609 
   38500    271.59654   -304.19545   -236.82587   -304.19545            0    6791.2023    24.901792    24.812657    22.956655            0            0            0    14184.449    7711.0968    8521.9259    4140.5842    2058.8488    1502.7883    330.77186 
   39000    269.91626   -305.46768    -238.5149   -305.46768            0    8372.3776    24.811198    24.789219    22.903024            0            0            0     14086.51    10302.285    7795.3342    7019.5134    1476.7643   -1143.6557    -1645.483 
   39500    282.60132   -305.67263   -235.57331   -305.67263            0    8056.9435    24.804001    24.999744    22.844527            0            0            0    14165.747    7877.7998    6781.6106    9511.4202   -175.14411    354.70473    409.35581 
   40000    275.35059   -307.26409   -238.96332   -307.26409            0    9502.5783    24.804856     24.90529    22.801527            0            0            0    14086.148     12233.07    9346.6717    6927.9935    255.37027    1437.1189    1597.7458 
   40500    269.71211   -307.08422   -240.18207   -307.08422            0    10227.413    24.974678    24.704484    22.909373            0            0            0    14134.774    9614.2791    10481.727    10586.232   -1090.6883    1030.5673   -187.40309 
   41000    269.13594   -306.48376   -239.72454   -306.48376            0    10770.956    24.940375    24.699636    22.974575            0            0            0    14152.756    8168.5304    15068.475    9075.8616    1047.0156   -1386.3758    655.61813 
   41500    271.35199   -304.87147   -237.56255   -304.87147            0    10436.424    24.679417    24.898629    22.823906            0            0            0    14024.917    12871.043    9227.0876    9211.1401   -229.14177    1855.4071     2300.323 
   42000    271.72601   -305.32967   -237.92797   -305.32967            0    5982.7074    24.831253    25.096313    22.855823            0            0            0    14243.129    6615.9888    5560.2011    5771.9323    496.33322    590.21484   -226.21247 
   42500    281.86949   -306.39038   -236.47259   -306.39038            0    9807.8238    24.883482    24.753127    22.796502            0            0            0    14041.368     8598.354    9023.3339    11801.783    1480.5739    1853.7451    622.11543 
   43000    277.56182   -305.82299   -236.97372   -305.82299            0    8625.1673    24.938004    24.737137    22.956611            0            0            0    14161.815    8710.2821    8791.5044    8373.7154    1928.2595    750.03601    1553.4271 
   43500    279.48546   -305.51919   -236.19276   -305.51919            0    10173.228    24.809068    24.848132    22.912589            0            0            0    14124.672    11177.096    10433.157    8909.4309     624.8103    129.85373    642.76014 
   44000    268.04613   -305.51684   -239.02794   -305.51684            0    9380.1146    24.762878     24.91352    22.851776            0            0            0    14097.957    6511.9684    10107.529    11520.846    1396.5418   -1778.5228    2100.9915 
   44500    270.98922   -305.47406   -238.25512   -305.47406            0    9517.5093    24.865661     24.80389    22.867683            0            0            0    14103.989    7295.7032    11521.116    9735.7088   -790.67395    -331.4735    1611.0669 
   45000    274.28888   -308.04388   -240.00646   -308.04388            0    7901.7981    24.918254    24.729397    22.909781            0            0            0    14117.314    8834.1478    7577.1187    7294.1278    1476.6394    -2059.659    407.50247 
   45500    274.98719   -308.47624   -240.26561   -308.47624            0    8009.5686    24.781965     24.82881    22.900354            0            0            0    14090.741    9959.8173    9268.0361    4800.8524    1299.7417    113.22182    235.79391 
   46000    274.86583   -307.05367   -238.87314   -307.05367            0    8256.6753    24.742752    24.948221    22.839245            0            0            0    14098.383    8158.1903    7244.0143    9367.8213   -1801.2116   -758.79626   -61.181797 
   46500     283.8949   -308.11017   -237.68998   -308.11017            0    9239.4139    24.928796    24.924699    22.812942            0            0            0    14174.656    11617.342    8094.5522    8006.3473    7.9830614    2508.3738    444.51257 
   47000     273.9166   -305.27593   -237.33086   -305.27593            0    10774.536    24.959869    24.715365    22.847047            0            0            0    14094.167    10818.528     11354.34     10150.74    -885.3525    1470.8477    732.32138 
   47500    274.78531   -304.08377   -235.92322   -304.08377            0    7084.1491    24.843943    24.831688    22.997996            0            0            0    14187.856    9035.8947    5932.9367    6283.6158   -522.50071   -844.48222   -1438.2191 
   48000    275.65071    -306.2139   -237.83869    -306.2139            0     10456.27    24.649593    24.934661    22.966444            0            0            0    14115.848    11582.869    7268.5284    12517.414    792.30552    2709.8119    792.42597 
   48500    275.88593   -306.06532   -237.63176   -306.06532            0    8078.7957    24.867212    24.885761    22.849582            0            0            0    14140.224    9553.0637    6567.4066    8115.9168    830.22779   -557.17771    51.550516 
   49000    274.21986   -303.44908   -235.42879   -303.44908            0    8455.3912    25.086385     24.74163    22.784208            0            0            0    14141.658    5638.3588    9941.5877    9786.2271   -903.53108    2139.9709   -1531.9853 
   49500    278.69326   -300.76692     -231.637   -300.76692            0     10460.83     24.91636    24.859949    22.834198            0            0            0    14143.946    13203.591    8854.7889    9324.1103   -974.03386    103.44591     304.1248 
   50000    277.54427   -303.27311    -234.4282   -303.27311            0    6956.9502    24.678416    24.977162    22.994599            0            0            0    14173.797    9860.7777    5891.0389    5119.0339    1804.0736   -1252.3264    55.878676 
   50500    277.37527   -305.65713   -236.85414   -305.65713            0    9990.7311    24.715051    24.780925    22.926104            0            0            0    14041.364    8422.3205    11641.155     9908.718   -203.99065   -2260.3293    3063.5562 
   51000    273.75701   -303.59721   -235.69173   -303.59721            0     8560.837    24.992374    24.768428    22.914458            0            0            0    14184.549    9142.1357    9847.5844    6692.7909   -415.19273   -880.41085   -1349.4446 
   51500    284.34329    -307.2554   -236.72399    -307.2554            0    7177.5797    24.904157    24.805335    22.813992            0            0            0    14093.479    6150.9074    9780.8526    5600.9791    767.43757   -1053.2731    2789.4037 
   52000    272.03593   -307.18117    -239.7026   -307.18117            0    10102.192    24.797464     24.90609     22.82798            0            0            0     14098.74    8825.1475    8821.9854    12659.443    1766.5612    881.90182    1700.5533 
   52500    276.16252     -304.305   -235.80282     -304.305            0    7981.0802    24.828808    24.839183    22.938464            0            0            0    14146.777    7543.1941     8706.622    7693.4245   -811.65945     772.9726    375.09297 
   53000    275.46309    -306.9504   -238.62172    -306.9504            0    8483.6263    24.799939    24.763867    22.939351            0            0            0    14088.028    10897.224    6526.4593    8027.1959    1209.6873   -261.04633   -482.79855 
   53500    285.26423   -308.40626   -237.64641   -308.40626            0    9011.8771    24.836429    24.800913    22.966114            0            0            0    14146.348    8975.9451    9415.7013     8643.985    993.58766    2272.7062    343.47734 
   54000    280.13771   -304.96855   -235.48033   -304.96855            0    8917.9205    24.895799     24.81512    22.870332            0            0            0    14129.114     6834.591    8580.8845    11338.286   -1065.3963    2464.3571   -1267.7602 
   54500    268.12985   -306.54001   -240.03034   -306.54001            0    10415.445    24.875439    24.845493    22.769907            0            0            0    14072.771    8962.1936    12049.973    10234.169   -1242.6732   -586.17301    397.58817 
   55000    279.32264   -307.21334    -237.9273   -307.21334            0     10542.81    24.815386    24.868887    22.856121            0            0            0    14105.222     10845.72    10725.672    10057.039    42.252471   -530.19616    392.10469 
   55500    267.03148   -306.04706   -239.80985   -306.04706            0    6113.3338     24.74712    24.850749    22.987785            0            0            0    14137.131     6106.218     6822.578    5411.2054   -815.56849   -1097.5446   -3027.6148 
   56000    273.64379   -303.81309   -235.93569   -303.81309            0    9136.2961    24.796517    24.782536    22.949745            0            0            0     14103.09    10854.278    8283.6258    8270.9842   -517.18484    957.27781    851.65683 
   56500    267.22403   -303.84192   -237.55694   -303.84192            0    10147.975    24.958642    24.870469    22.876069            0            0            0    14199.934    7545.7194    11032.022    11866.185    88.701693    980.15168    301.67347 
   57000    270.07453   -305.03407   -238.04203   -305.03407            0    11561.132    24.779557     24.88679    22.707382            0            0            0     14003.27    13686.096    8686.3067    12310.994    -1148.496    527.82971    1955.3581 
   57500    271.05689   -305.52387   -238.28815   -305.52387            0    9752.8174    24.891008    24.927886    22.906967            0            0            0     14213.32    9802.4033    10064.189    9391.8599    -658.5497   -1131.1587   -552.98197 
   58000    273.12029   -305.52176   -237.77421   -305.52176            0    9917.4096    24.801562     24.67634    22.964179            0            0            0    14054.348    9665.4002    10448.876    9637.9529    462.40273   -1606.5593     1297.899 
   58500    275.23286   -305.20337   -236.93179   -305.20337            0    11419.399    24.817908    24.780375    23.000122            0            0            0    14145.008    10990.762    11134.639    12132.794   -1310.7492   -329.09119   -880.81558 
   59000    280.22285    -306.4256   -236.91626    -306.4256            0    8065.9939    24.827722    24.995878     22.85396            0            0            0    14182.955    8441.8855     7802.445    7953.6512    -1243.638    3213.3575    571.66387 
   59500    279.30675   -306.01041   -236.72831   -306.01041            0    9312.7716    24.845949    24.859639    22.713614            0            0            0    14029.321    9016.7642    9013.3311    9908.2195   -1264.5919    2153.0938   -585.96443 
   60000     271.4056   -306.16106   -238.83884   -306.16106            0    7661.3397    24.965521    24.852541    22.865076            0            0            0    14186.788    5966.3713    9200.7764    7816.8715   -187.19811    2629.0573   -436.05721 
   60500    282.37959   -308.25767   -238.21335   -308.25767            0    10328.097    24.811283    24.791979    22.924023            0            0            0    14101.043    12212.893    8848.5795    9922.8181   -217.50105   -2196.0125   -1172.9229 
   61000    268.98938    -304.8343   -238.11143    -304.8343            0    8126.3937    24.808013    24.874339    22.888723            0            0            0     14124.24    6076.2568    10637.456    7665.4681     1841.517    288.53042   -2412.2958 
   61500    279.00929   -305.30723   -236.09891   -305.30723            0    9452.6155    24.865125    24.878556    22.827264            0            0            0    14121.137    9591.7907    9640.9099    9125.1461   -1610.7286    3214.4716   -163.70249 
   62000     279.5938   -305.62602   -236.27271   -305.62602            0    8821.9517    24.917846    24.792885    22.843609            0            0            0    14112.446    8606.2316    10119.392    7740.2311   -181.36718   -197.66401   -254.15833 
   62500    268.58199   -304.84739   -238.22557   -304.84739            0    8879.6332    24.826305    24.836763    22.924662            0            0            0    14135.463    7363.3681    9223.1029    10052.429    174.67662    530.13991    1246.9159 
   63000    287.20662   -304.76256    -233.5209   -304.76256            0    9426.3057    24.711831    24.877715    22.952595            0            0            0    14110.656    11423.523    7416.4848    9438.9094    1645.1168   -1848.6673    1083.3892 
   63500    266.34807   -305.18261   -239.11492   -305.18261            0    6891.5842    24.958795    24.876141    22.865127            0            0            0    14196.466    8039.0522    5161.9621    7473.7385   -215.92467    760.97612    420.53387 
   64000    282.77499   -304.73228   -234.58988   -304.73228            0    11772.875     25.03468     24.75805    22.634098            0            0            0    14028.837    11768.206    11737.161    11813.257    945.79172    236.44312    1613.3441 
   64500    275.70661    -307.1518   -238.76272    -307.1518            0    7339.9932     24.88181    24.995244    22.868346            0            0            0     14222.44    5697.1548    6274.9691    10047.856   -452.18537    1514.3765   -490.62054 
   65000    272.07816   -307.34802   -239.85897   -307.34802            0    10377.806    24.586198    24.852628    22.978254            0            0            0     14040.44    11726.184    11154.375    8252.8604    104.40898    1056.7852   -660.59497 
   65500    267.09065   -305.57521   -239.32332   -305.57521            0    7025.6283    24.852407    24.773748    22.994452            0            0            0    14157.391    8183.1573    5270.3866     7623.341    420.22845   -1337.1128    567.04278 
   66000    284.27954   -304.34004   -233.82444   -304.34004            0    9400.4334    24.934793    24.813667     22.79972            0            0            0    14106.726    8830.3599    10080.463    9290.4771     98.69978   -906.57678    1988.8569 
   66500    278.93222   -304.29232   -235.10312   -304.29232            0    9221.9757    24.898227    24.896642    22.795201            0            0            0     14130.34    8552.7395    9190.8781    9922.3094   -884.43111   -1794.2438    296.32452 
   67000    273.82015   -307.02808   -239.10694   -307.02808            0    8270.2408    24.837503    24.845135    22.966037            0            0            0    14172.138    10401.686     8079.394    6329.6422     901.0921    3498.4355   -1101.3834 
   67500    274.27511   -306.33424   -238.30024   -306.33424            0     9114.951    24.783378    24.722258    23.018586            0            0            0    14103.512     10324.57    8844.0555     8176.228     649.6419   -1292.9687    45.825422 
   68000    271.43576   -306.55724   -239.22754   -306.55724            0    10273.977     24.84904    24.759317     22.93542            0            0            0    14110.908    11662.088     9712.566    9447.2778    2190.6644    1193.9127    421.40125 
   68500    267.21568   -303.52538   -237.24247   -303.52538            0    9506.0879    24.937686    24.943776    22.734305            0            0            0    14141.648    9305.8766    8066.1539    11146.233   -2020.5088   -1514.6898    -2313.674 
   69000    271.39363   -307.57256   -240.25331   -307.57256            0    9831.0736    24.909718    24.917429    22.685458            0            0            0    14080.549    10076.558    9204.9205    10211.742   -728.80558   -489.61209    1413.9213 
   69500     269.6987    -306.9053   -240.00648    -306.9053            0    9724.4502    24.805448    24.830678     22.91029            0            0            0    14111.274    6766.5498     11059.19    11347.611    91.149464       283.52    850.71106 
   70000     268.7108   -305.56707    -238.9133   -305.56707            0    9719.2166    24.706266    24.816362    23.089764            0            0            0    14156.788    12482.126    7896.2577    8779.2665    2737.4572    1203.7524    940.22059 
   70500    269.77529   -305.78959   -238.87177   -305.78959            0    8691.5753    24.810279    24.776351    22.932622            0            0            0    14096.871    6657.2012    9898.9969    9518.5279    312.52507    729.63353    127.86348 
   71000     270.5989   -306.72879   -239.60667   -306.72879            0     9422.517    25.014106    24.877882    22.735925            0            0            0    14148.521     8075.178    6182.6963    14009.677    1672.3883   -1385.2569    831.57404 
   71500    282.97216   -307.71427   -237.52296   -307.71427            0    8672.9807    24.840824    24.900388    22.758555            0            0            0    14077.217    10814.057    6441.1866    8763.6987    -1164.068   -2904.1687    807.88376 
   72000    283.82493   -304.67626   -234.27342   -304.67626            0    7206.2617    24.763559    24.895763    23.006328            0            0            0    14183.579    9794.1997    6602.0818    5222.5036     8.934937   -43.909898    650.46748 
   72500    278.84672    -307.1744   -238.00641    -307.1744            0    9533.6451     24.85378    24.740685    23.078798            0            0            0    14191.142    9101.4456    12623.706    6875.7839   -353.81746   -1223.8422   -997.22875 
   73000    273.19321   -306.72059   -238.95495   -306.72059            0    10075.708     24.88705    24.695139     22.89262            0            0            0    14069.556    10732.256    9790.3895    9704.4787   -212.68951    121.64183   -820.51996 
   73500    279.97326   -306.02507   -236.57764   -306.02507            0    9011.1157     24.85356     24.99971    22.800112            0            0            0    14166.434    7828.4823    9405.3668    9799.4979   -705.39924    520.99373    2333.3865 
   74000    271.80429   -304.49969   -237.07858   -304.49969            0      7186.28    24.789008    24.924087    22.808622            0            0            0    14092.156    4527.1861    8136.6337    8895.0202    520.40955    2364.9948   -90.761586 
   74500    276.85669   -306.32259   -237.64822   -306.32259            0    10050.267     24.84703    24.756585    22.943591            0            0            0    14113.236    11275.484    9182.5463    9692.7719    1079.9877    9.0026915    2039.3963 
   75000      281.367   -306.28993   -236.49678   -306.28993            0    9452.7198    24.881224    24.781038     22.95576            0            0            0    14154.121    10599.799    8208.1184    9550.2417    791.30931   -688.84346    2932.4274 
   75500    280.51395   -306.79599   -237.21444   -306.79599            0    8989.5064    24.830846     24.85593    22.865542            0            0            0     14112.47    12025.145    6390.9037    8552.4706    878.96737   -87.274261   -1459.7357 
   76000    275.67266   -306.24906   -237.86839   -306.24906            0    11263.601     24.78355    24.918643    22.855825            0            0            0    14115.127    9428.1768      12110.7    12251.927    236.93635     103.3932    -556.1736 
   76500     257.8922   -307.54789   -243.57768   -307.54789            0    8467.9311    24.840045     24.84796    22.892804            0            0            0    14129.998    8957.2818    8295.5955     8150.916     2234.111  -0.10670291    141.21569 
   77000     261.1639   -306.93987    -242.1581   -306.93987            0    8833.9334    24.835161    24.756495    22.862697            0            0            0    14056.707    7037.6624    8404.7113    11059.426    558.58622    1157.5115   -1480.5679 
   77500    266.30664   -305.75699   -239.69957   -305.75699            0    8568.0407     24.88138    24.915083     22.90572            0            0            0    14199.752    9129.3466     9078.964    7495.8116    281.37954   -79.731729   -1360.6622 
   78000    282.51127   -303.96792   -233.89094   -303.96792            0    12479.564    24.845605    24.837082    22.791444            0            0            0    14064.425     11980.69    13457.472     12000.53   -2129.2194     1113.789    803.04801 
   78500    274.61389   -307.44696   -239.32892   -307.44696            0     9546.473    24.941032    24.915307    22.889629            0            0            0    14223.924    10144.159    8798.6055    9696.6549   -691.70562    413.44948   -277.28548 
   79000    274.70088   -307.20687   -239.06726   -307.20687            0    10944.091    24.759601    24.699248    22.879004            0            0            0    13991.507    13600.538    10473.439    8758.2961   -2052.1041   -1761.8198    502.09301 
   79500    270.02473   -305.08997   -238.11027   -305.08997            0    7745.8594    24.913887    24.857423    23.058711            0            0            0    14280.146    11183.503    5800.2694    6253.8056    1665.6143    374.74449   -1344.8343 
   80000    276.87017   -304.90216   -236.22445   -304.90216            0    11156.212    24.790773     24.81094    22.749597            0            0            0    13992.877    11950.163    9342.8849    12175.587   -1422.0852   -1456.2961    2052.3582 
   80500    265.41877   -305.23633   -239.39915   -305.23633            0    4620.0786    24.949004    24.984067    22.773031            0            0            0    14195.058    4495.7332    3484.6013    5879.9014   -427.90446   -296.41721   -202.48272 
   81000    280.17673   -307.25736   -237.75946   -307.25736            0    10351.534    24.864035    24.822941    22.828667            0            0            0    14089.818    11562.524    11107.826    8384.2527    149.28327    1824.2354    2535.2774 
   81500    270.96252   -307.54042   -240.32811   -307.54042            0    9063.8701    24.832756    24.801585    22.960596            0            0            0    14141.241    6755.6843    11831.481     8604.445   -832.30653    762.18995    2141.3946 
   82000     277.4315   -306.85225    -238.0353   -306.85225            0    9152.0724    24.770082     24.82676    22.952015            0            0            0    14114.591    8022.5491    9193.7471    10239.921    1090.6572   -466.18084   -643.67739 
   82500     279.5873   -304.07456   -234.72287   -304.07456            0    9800.5984    24.842034     24.88891    22.895776            0            0            0    14156.256    10786.061    8043.0792    10572.655   -361.41554    346.61226    2815.2584 
   83000    277.18815   -305.73812   -236.98154   -305.73812            0    8530.8065    24.928313    24.874103    22.875032            0            0            0    14184.108    6287.2924     8777.976    10527.151    655.72431   -215.59834   -302.59955 
   83500    279.32474   -306.24423   -236.95766   -306.24423            0    9532.2097    24.838675    24.791698    22.811107            0            0            0    14046.918    6549.3658    11079.651    10967.612    339.45513    1596.2836    33.512223 
   84000    281.90481   -304.43088   -234.50433   -304.43088            0    4832.6368     24.89856    24.944494    22.977436            0            0            0    14270.872    4278.8435    4479.6652    5739.4018   -1320.6216    1214.2378   -388.78495 
   84500    271.22156   -304.35606   -237.07949   -304.35606            0    9762.4818    24.798454    24.810393    22.862072            0            0            0    14066.105    7667.1089    9185.8405    12434.496    -319.7091   -2016.9637    1466.1689 
   85000      269.509   -305.53056   -238.67879   -305.53056            0    8616.2943    24.846688    24.856354    22.911527            0            0            0    14150.115    8022.7944    8771.9338    9054.1547    228.37575   -750.86066    2501.7234 
   85500    279.00595   -304.52131   -235.31383   -304.52131            0    11828.935    24.772756    24.878312    22.902413            0            0            0    14114.857    15802.657    8836.3136    10847.833    1186.0504   -1375.8901    966.31673 
   86000    268.75832   -303.91805   -237.25249   -303.91805            0    8734.3373    24.819105    24.880272     22.92543            0            0            0    14156.593    11787.459    6372.8981    8042.6548    -419.3673   -2054.0865   -575.02314 
   86500    273.28029   -307.15927   -239.37203   -307.15927            0     9685.604    24.919893    24.787864    22.835649            0            0            0     14105.83    6542.5828    11291.901    11222.328   -996.95899    939.24991    1690.3809 
   87000    275.08773   -306.70507   -238.46949   -306.70507            0    13056.534     24.88205    24.822266    22.801485            0            0            0    14082.855    13275.093    12761.721    13132.788     268.5452     495.4102   -573.11702 
   87500     268.6859   -304.81955   -238.17196   -304.81955            0    8448.2946    24.799444    24.977193    22.918772            0            0            0    14196.357    11619.062    6281.3309    7444.4907    170.57476    1396.9984    -1152.787 
   88000    281.77988    -304.9592   -235.06364    -304.9592            0    10027.816    24.668782    24.851007    22.897325            0            0            0    14037.069    13117.458    7875.8991    9090.0893   -841.52921    -1075.909   -709.11946 
   88500    273.31709   -306.64565   -238.84928   -306.64565            0    8161.9713    25.014813     24.75548    22.971324            0            0            0    14225.077    7612.1475    9331.2819    7542.4844   -326.72732    530.00061    1698.6619 
   89000    267.27768   -308.38084   -242.08255   -308.38084            0    9739.6734      24.9418    24.683622    22.838293            0            0            0    14060.486    7668.3501    11192.907    10357.763    225.70377   -2223.7944   -1003.1374 
   89500    265.03667   -307.48545   -241.74304   -307.48545            0    7888.4425    24.708833    25.005567     22.85284            0            0            0    14119.819     9325.721    7509.1688    6830.4378    764.72382    295.17947    792.84909 
   90000    263.39345   -307.25038   -241.91558   -307.25038            0    7131.0825    24.666354     24.95068    22.926857            0            0            0    14110.157    10384.282     3783.763    7225.2026    92.081304    66.926932    959.51039 
   90500    280.06504   -307.16889   -237.69869   -307.16889            0    8624.7997    24.860373    24.722121    22.950963            0            0            0    14105.688    9713.3844    9201.6326    6959.3821   -2375.9964   -68.131985    628.76013 
   91000    276.55724   -306.94647   -238.34638   -306.94647            0    7980.5534     24.98926    24.777708    22.905958            0            0            0    14182.833    6692.2143    10140.664    7108.7822    1174.5053   -1901.2858   -570.79602 
   91500    272.65121    -307.2698   -239.63861    -307.2698            0    13029.644    24.828396    24.874578    22.764702            0            0            0    14059.386    12219.985    12213.099    14655.849   -1560.2099    861.61293    -2506.344 
   92000    276.58256   -306.93037     -238.324   -306.93037            0    6568.8072    24.867229    24.977138    22.843071            0            0            0     14188.11    5488.1173    3410.7122    10807.592   -2025.1025     1268.091    215.86054 
   92500    282.30482   -307.01806   -236.99228   -307.01806            0    10116.053    24.869364    24.799394    22.915327            0            0            0    14132.917    9562.2055      11300.9    9485.0528    1152.5967    1499.1962    1316.7991 
   93000    275.13441   -305.21229   -236.96514   -305.21229            0    8512.8511    24.808864    24.790589    22.956407            0            0            0    14118.795    10207.438    8119.9761    7211.1396    445.61452     -528.555   -877.65878 
   93500    266.62571   -306.05775   -239.92118   -306.05775            0    5825.6731    24.870552    24.868791    22.944878            0            0            0     14191.42     6266.985    5670.9839    5539.0506   -783.58641     1002.608    502.97257 
   94000     276.4666   -307.39778   -238.82018   -307.39778            0     11688.06    24.826202    24.851741    22.744499            0            0            0    14032.772    9468.3287    14261.464    11334.387   -322.53914    601.26046    1613.7843 
   94500    273.05629   -307.46009   -239.72842   -307.46009            0    8812.3864    24.996631    24.937081    22.835997            0            0            0    14234.659     8377.994    8078.0226    9981.1427    856.07745    204.16632   -112.42818 
   95000    279.55343   -308.79145   -239.44816   -308.79145            0    7350.5961    24.738546    24.754347    22.882004            0            0            0    14012.632    7042.1031    7716.6862    7292.9988    2430.3772    1392.1619    230.72713 
   95500    275.16461   -306.53917   -238.28453   -306.53917            0    7233.5483    24.784489    24.835643    23.072245            0            0            0     14201.86    7860.0432    8304.5517      5536.05   -271.60513   -586.98384    1856.8258 
   96000    273.20952   -305.77378    -238.0041   -305.77378            0     10830.72    24.829859    24.761297    22.946239            0            0            0    14107.796    11470.913     11392.23     9629.017   -384.21871    1007.1186    1975.9684 
   96500    273.97778   -306.62071   -238.66046   -306.62071            0    8761.6944    24.911292    24.801241    22.828628            0            0            0    14104.233    9893.0277    9344.7883    7047.2672    1533.0802    862.17386    1331.9687 
   97000    271.52256   -305.16906   -237.81783   -305.16906            0    10326.879    24.920035    24.889715    22.827711            0            0            0    14158.946    10900.269    9656.2512    10424.117    379.51127   -544.06937    1708.1308 
   97500    273.52653   -305.94507   -238.09675   -305.94507            0    10583.955    24.763131    24.815291     22.85109            0            0            0    14042.093     9210.383    11712.161    10829.321   -93.179615     100.1015     -983.865 
   98000    274.58727    -307.4931   -239.38167    -307.4931            0    9354.8674    24.830713    24.893616    22.977976            0            0            0     14203.29    13955.102    6270.1617    7839.3389    1220.8825   -2654.7284    566.75902 
   98500    276.81079   -307.99404   -239.33106   -307.99404            0    9652.9663    24.754823    24.748313    22.845581            0            0            0    13996.119    10354.795    10832.768    7771.3353   -1885.7636    1279.6064    108.84024 
   99000    275.40916   -306.84426   -238.52895   -306.84426            0    8841.4748      24.9591    24.885735    22.880386            0            0            0    14211.593    9345.0545    9105.5293    8073.8405   -712.58259    -182.0057   -469.06815 
   99500    288.28589   -305.45325   -233.94387   -305.45325            0     11392.19    24.860944    24.852072    22.772833            0            0            0    14070.103    10678.946    13981.593    9516.0313   -1363.8177   -614.49157   -2398.2737 
  100000    275.15853    -306.4881   -238.23497    -306.4881            0    8385.0037    24.879572    24.941898    22.916889            0            0            0    14220.932    11182.326    7023.4359    6949.2494   -160.17315     140.9769   -2124.0558 
  100500    273.92263   -305.63075   -237.68418   -305.63075            0    9394.2143    24.793848    24.774944    22.965239            0            0            0     14106.77    8845.9597    10440.917    8895.7657   -244.51707   -988.62452    1026.8662 
  101000    276.39978   -307.06889   -238.50787   -307.06889            0    10620.657    24.833191    24.780156    22.969991            0            0            0    14135.051    10673.038    13185.463    8003.4694    336.37409   -166.10947   -664.41333 
  101500    282.80298    -307.9369   -237.78756    -307.9369            0    6259.6383    24.865301    24.873076    22.902611            0            0            0    14164.727    4676.7224    7315.6988    6786.4938    3835.4628    888.32716   -1669.0414 
  102000    279.47646   -305.76773   -236.44353   -305.76773            0    6971.7147    24.856563    24.836259    22.833875            0            0            0    14096.357    4044.0353     9307.371    7563.7379   -287.13019   -1618.6936    1883.4885 
  102500    274.12784   -307.61722   -239.61975   -307.61722            0     10229.86    24.894681    24.846379    22.906735            0            0            0    14168.793    11075.831    8817.4887    10796.259   -832.03475   -1065.5415    2149.7237 
  103000    266.28072   -305.38059    -239.3296   -305.38059            0    8707.0472    24.848664    24.796477    22.904281            0            0            0    14112.686    6597.7236    10860.657    8662.7605    490.96887   -796.05363    2277.9838 
  103500    273.09854   -306.87638   -239.13423   -306.87638            0    7960.9475    24.816056    24.848283    22.927177            0            0            0    14137.732    10241.274    7639.0932    6002.4755   -1107.8048   -1772.3796    1399.8654 
  104000    274.95067   -305.26285   -237.06127   -305.26285            0    10308.718    24.801701    24.890739    22.930652            0            0            0    14155.841    9268.1694    11144.063    10513.923    516.53937   -1306.1675    725.38985 
  104500    265.63403   -305.34643   -239.45586   -305.34643            0    10305.334    24.853639    24.863073    22.858376            0            0            0    14125.055    11944.292     9274.478    9697.2318   -894.22562    1810.1802    -59.15215 
  105000    270.46877   -303.32131   -236.23147   -303.32131            0     10036.03     24.94139    24.792541    22.881672            0            0            0    14149.121    7150.7526    10894.731    12062.607    805.96645   -802.43698   -672.47724 
  105500    281.88842   -304.22598   -234.30349   -304.22598            0    9246.3492    24.747693    24.842826    22.976726            0            0            0    14126.152    10352.861    9660.4772    7725.7096    674.48166   -110.42453   -2844.2138 
  106000    278.28244   -306.57008   -237.54205   -306.57008            0    5697.5656    24.773057    24.874974    22.983863            0            0            0    14163.326    4825.6498    5714.1604    6552.8867    818.98133    519.32809   -2345.4108 
  106500    276.36948   -304.46023   -235.90672   -304.46023            0    9095.5938    24.985942    24.800804    22.776417            0            0            0    14113.895    8620.8477    9655.5152    9010.4185    -373.8228   -245.11918    392.46682 
  107000    276.19968   -306.62964   -238.11825   -306.62964            0    9689.9349    25.033363    24.836872    22.776896            0            0            0    14161.545    6507.1027     12378.85    10183.852    891.09977    1524.3007   -8.4444365 
  107500    279.16871    -304.3541   -235.10624    -304.3541            0    7699.8288    24.687213     24.91566    22.917488            0            0            0    14096.506    7204.0208    5333.0877    10562.378    -33.73196    1611.4933   -1382.7045 
  108000    282.38292   -306.36593   -236.32079   -306.36593            0    7401.0443    24.690077    24.927665      23.0462            0            0            0    14184.152    6967.3881    5117.8396    10117.905    1802.8597   -798.82729   -1503.1078 
  108500    275.27377    -304.6152   -236.33348    -304.6152            0    7243.5865    24.867306    24.763787    22.939197            0            0            0    14126.156    6656.4174     7073.992    8000.3502     226.8387    1632.7125    2203.6489 
  109000     269.2729   -305.24174   -238.44854   -305.24174            0    11481.099    24.993999    24.843514    22.773921            0            0            0     14141.21    11983.563    12587.894    9871.8398    829.59479   -90.826938    3290.8856 
  109500    274.48221   -305.38735   -237.30198   -305.38735            0    9646.4867    24.884388    24.961408    22.776104            0            0            0    14147.363    7554.8757    10478.825    10905.759   -971.66222    1728.3187   -221.59177 
  110000    271.93692   -304.44497   -236.99096   -304.44497            0    9527.1197    24.744287    24.876617     22.93415            0            0            0    14117.211    11167.735    8635.4299    8778.1939   -2094.4167     -723.175   -2019.5823 
  110500    268.05935   -306.34607   -239.85389   -306.34607            0    7304.6423     24.84564    24.745093    23.042391            0            0            0    14166.638    3955.4758    10074.119    7884.3321   -1511.5209    380.94237   -559.50216 
  111000    274.61466   -306.34102    -238.2228   -306.34102            0    10265.122    24.896191    24.700651    22.934694            0            0            0    14103.739    10623.737    11044.472    9127.1558    529.18685    -1311.246    222.59256 
  111500    273.22652   -305.59356   -237.81966   -305.59356            0    9814.3096    24.899117    24.930152    22.871163            0            0            0    14197.018    12373.309    8412.1864    8657.4332    115.27883    408.62816    1649.0953 
  112000    273.69717    -306.3811   -238.49046    -306.3811            0    10660.866    24.732307    24.979346    22.787691            0            0            0    14078.164    10799.117    9147.8535    12035.626    687.99938    -906.5759    719.53715 
  112500    269.42437   -306.19951   -239.36874   -306.19951            0     10116.87    24.835129    24.883149    22.925526            0            0            0     14167.43    9741.0751    12921.589    7687.9462   -56.174053   -861.55533   -1336.9555 
  113000    271.47115   -305.45883   -238.12035   -305.45883            0    9767.6758    24.928732    24.666629    22.979537            0            0            0    14130.296    10225.919    8264.8097    10812.299    -802.8534   -306.52819    1444.0015 
  113500     272.6227   -305.01428   -237.39016   -305.01428            0     8726.954    24.889119    24.828433    22.929469            0            0            0    14169.445    9704.1929    9603.3282    6873.3408   -985.04842   -1673.7033    2111.3713 
  114000    272.36121   -306.18775    -238.6285   -306.18775            0    9490.6037    24.789504    24.937173    22.852684            0            0            0    14127.076    11600.932    9394.5589    7476.3199    152.41231   -2207.7932    657.61662 
  114500    270.58484   -303.73943    -236.6208   -303.73943            0    9640.1029    24.843862     24.91745    22.842322            0            0            0    14140.441    11281.097    6850.0554    10789.156      1397.82    332.13615   -1060.3742 
  115000    273.81223   -303.53441   -235.61522   -303.53441            0    6219.2656    24.905929    24.777747    22.992565            0            0            0    14189.006     6660.595    4874.7152    7122.4867    -218.6453   -2811.1511    1763.2306 
  115500    277.06688   -306.02713   -237.30063   -306.02713            0    8839.3417    24.787199    24.736962    22.988448            0            0            0    14095.597    6689.9702    10831.202    8996.8524    890.39239   -869.74258    262.36847 
  116000    265.87893   -307.23862   -241.28729   -307.23862            0    5829.7514    24.804999    24.916745    22.925142            0            0            0     14169.11    5182.5397    5767.1561    6539.5584    1257.7016   -1428.5336   -1700.9069 
  116500    274.41622   -304.61545   -236.54645   -304.61545            0    8952.3273     24.82928    24.901722    22.710243            0            0            0    14041.558    9944.0307    7297.1755    9615.7758    77.236055   -621.49323    292.04572 
  117000    266.68142   -306.68557   -240.53518   -306.68557            0    8831.3756    25.057851    24.903115    22.748125            0            0            0    14195.251     8149.307    11193.018    7151.8022    483.13161   -757.31919    1186.1394 
  117500     268.0879   -306.36781   -239.86855   -306.36781            0    9988.6556    24.787613    24.710465    22.914385            0            0            0    14035.368    6474.0194    12297.092    11194.856   -1160.9526   -531.48739    2186.9724 
  118000    269.14049   -307.84634   -241.08599   -307.84634            0     7059.254    24.702762    24.839231    23.143007            0            0            0    14200.494    9387.7043     6986.396    4803.6616    1307.7752    2541.0786    746.02176 
  118500    272.12226    -304.8952   -237.39521    -304.8952            0    7095.8793     24.81479    24.788601    22.907869            0            0            0    14091.179    7540.7357    10060.054    3686.8478    1259.8617   -129.95025    764.61892 
  119000    273.52528   -306.25288   -238.40488   -306.25288            0     8453.928    24.954982    24.864842    22.744752            0            0            0    14113.156     8769.989    6150.3024    10441.492   -181.77531   -1031.8129    570.08139 
  119500    276.25557    -306.3796   -237.85435    -306.3796            0    7600.4936    24.946055    24.907233    22.780078            0            0            0     14154.11    5024.7879    6325.9893    11450.704    1297.6693    -1864.165   -1958.8753 
  120000    272.53036   -304.56983   -236.96862   -304.56983            0    11145.328    24.788756     24.85836    22.909578            0            0            0    14117.061    12465.588    10767.432    10202.964     297.4363    1470.4627    -1120.617 
  120500    278.97516   -306.85359   -237.65374   -306.85359            0    11076.577     24.81322    24.815596    22.961076            0            0            0    14138.393    8912.1785    11118.765    13198.787    1894.1413   -537.89896   -387.95703 
  121000    271.87345   -305.77707    -238.3388   -305.77707            0    7847.0433    24.885887    24.778333    22.901451            0            0            0     14121.74    6570.7802    8967.2086     8003.141   -935.45938     366.9269   -1128.8222 
  121500    275.09477   -307.13765   -238.90033   -307.13765            0    9355.0189    24.894648    24.922061    22.782093            0            0            0    14134.602    8307.5102    10517.735    9239.8114    2495.7271   -537.24455    896.37662 
  122000    271.79204   -304.78708     -237.369   -304.78708            0    8155.1097    24.817281    24.930938    22.814337            0            0            0    14115.643    7374.1148    8418.0497    8673.1647   -668.19301    631.70298   -294.24125 
  122500    273.06583   -304.15554    -236.4215   -304.15554            0    7623.6293     24.85036    24.783459    22.953294            0            0            0    14136.427       9265.2    8310.6617     5295.026    -189.2221   -1120.5332    881.76536 
  123000    274.00603    -306.7335   -238.76625    -306.7335            0    7926.2465    24.881764    24.699367     23.08986            0            0            0    14190.193     9305.187    9575.4307    4898.1219   -977.23964    201.53162   -283.32375 
  123500    272.38869   -305.52378   -237.95771   -305.52378            0    8912.5585    24.738285    24.883716    22.782534            0            0            0    14024.482    9103.7482    8398.6263    9235.3012    651.78946    236.51904   -304.42796 
  124000    265.42161   -303.66741   -237.82953   -303.66741            0    9134.8664    24.820066    25.171497    22.763645            0            0            0    14221.774    8532.9606    9126.0403    9745.5981   -1626.7145   -29.815639    891.67947 
  124500    279.98892   -305.22348   -235.77217   -305.22348            0    11768.533     24.86637    24.746167    22.822639            0            0            0     14043.85    9608.1976      11418.9      14278.5    660.96941   -463.11959     1661.003 
  125000    285.76191   -305.37062   -234.48732   -305.37062            0    9254.8364    24.954883     24.72352    23.005769            0            0            0    14193.928    8911.5175    11223.718     7629.274  -0.94971078    773.46429   -627.38926 
  125500    277.78787   -305.83949   -236.93415   -305.83949            0    8911.2105    24.807016    24.858344    22.937161            0            0            0     14144.46    10736.394    9300.2552    6696.9824    1774.7316   -1222.9765   -345.61918 
  126000    276.62042   -304.43857   -235.82281   -304.43857            0    9284.7339    24.703873    24.946182    22.869831            0            0            0    14093.929    13011.877    6595.7349    8246.5895    2445.0414   -844.84536    659.10805 
  126500    274.60867   -307.50679   -239.39005   -307.50679            0     10601.73    24.882774    24.897983    22.872442            0            0            0    14170.184     7789.252    12340.746    11675.193   -1079.4873   -483.42727    -816.8236 
  127000    277.35287   -306.25876   -237.46132   -306.25876            0     9585.678    24.910801    24.762651    22.863789            0            0            0    14103.699    11332.555    8300.6556    9123.8234    1194.9263    380.47853   -408.89187 
  127500    276.58089   -306.58641   -237.98046   -306.58641            0    9502.9687    24.904552    24.827006    22.915753            0            0            0    14168.935    7614.0074    10197.294    10697.605   -2269.9079   -2383.1695    467.83855 
  128000    275.34062   -306.33546   -238.03716   -306.33546            0    10147.876    24.762223    24.867161    22.846082            0            0            0    14067.845    13150.155    7838.7784    9454.6955    777.66437   -1423.9897   -788.79724 
  128500    273.00059   -305.34213   -237.62428   -305.34213            0    8308.5366    24.838248    24.964284    22.901347            0            0            0    14200.417    7331.5408     9860.307    7733.7621    1738.9666    1370.0007   -339.89379 
  129000    283.09671   -307.18338   -236.96118   -307.18338            0    10545.352    24.915326    24.700037    22.879445            0            0            0    14080.228    11331.586    10015.911    10288.558   -485.81956   -1921.6339   -247.47518 
  129500    281.06069   -306.54305   -236.82589   -306.54305            0    9333.9412    24.963207     24.78867    22.910656            0            0            0    14177.222    7811.2488    12683.682    7506.8927    1049.5715   -725.97883    353.19841 
  130000    274.55683   -305.88658    -237.7827   -305.88658            0    9847.2162    24.747808    24.971759    22.846894            0            0            0    14119.296    14488.214    6227.6029    8825.8314    1927.3449    1650.3322    427.02433 
  130500    275.02294   -304.78789   -236.56839   -304.78789            0    9789.2486    24.689908    24.930554    22.849541            0            0            0    14064.648    12036.748    10623.572    6707.4256    893.73436   -146.92085   -635.41315 
  131000    266.99892   -307.43461   -241.20547   -307.43461            0    10181.227    24.997249    24.754472    22.908786            0            0            0    14175.813    9247.7159    9675.7294    11620.236   -1679.7852    128.60561   -352.38562 
  131500    269.15127    -307.5661   -240.80307    -307.5661            0    10965.286    24.846646    24.694948    22.850107            0            0            0     14020.52    10588.785    11131.729    11175.346    -1506.946    217.95346    1983.4217 
  132000     268.1128   -306.06888   -239.56344   -306.06888            0     8994.232    24.788795    24.995449     22.86956            0            0            0     14170.14    8139.4907    8013.9304    10829.275   -650.07171   -2296.8796    446.77229 
  132500    276.44969   -303.87593   -235.30252   -303.87593            0    9998.0534    24.783555    24.914699    22.818047            0            0            0    14089.569    11623.639    9131.3466    9239.1747    123.20853    397.93144    -1506.877 
  133000    278.45569   -305.36839    -236.2974   -305.36839            0     9364.904    24.905078    24.831929    22.923255            0            0            0    14176.683    8791.7009    9844.2768    9458.7343    325.85177    1490.6558    880.49951 
  133500    277.80806   -307.03073   -238.12038   -307.03073            0    7816.1415    24.878075     24.79496    22.889057            0            0            0    14119.135    5882.9757    10148.566    7416.8833   -459.34034    1264.6359    1035.3887 
  134000    272.23144   -307.10066   -239.57359   -307.10066            0    10503.764    24.797886    24.858309    22.821879            0            0            0    14068.171    9804.2833    10007.747    11699.262    969.16011    2373.1734   -2276.4179 
  134500    275.19132   -304.81421   -236.55295   -304.81421            0    6515.0574    24.799545     24.91558    22.916766            0            0            0    14160.156    7285.1816     4776.078    7483.9127    885.18072    1621.7282    938.13395 
  135000    269.94589   -307.64679   -240.68665   -307.64679            0    7145.7104    24.858412    24.760808    22.848693            0            0            0    14063.699    5944.1111    9160.6617    6332.3583    31.845345    996.14304    147.15742 
  135500    273.13385   -307.04174   -239.29083   -307.04174            0     6435.097    24.975117    24.783682    22.891979            0            0            0     14169.57    3534.4453    8449.6431    7321.2025   -780.78685   -321.03204   -273.62829 
  136000    269.99741   -304.30294   -237.33002   -304.30294            0    10477.895    24.749234    24.865207    22.877734            0            0            0    14078.839    13411.248    7892.7996    10129.636    196.49691     1129.926    -2726.527 
  136500    271.75374   -305.12179   -237.71322   -305.12179            0    11390.241    24.705251    24.955421    22.862038            0            0            0    14095.131    12531.839    11965.247    9673.6364   -436.91125    426.12512    78.594453 
  137000    279.56894   -306.07578   -236.72865   -306.07578            0    7960.7102    24.972838    24.827959    22.898534            0            0            0    14197.654    8104.9691    8650.4927    7126.6689    916.01525    519.83922    1561.9835 
  137500    276.99536   -303.60587   -234.89711   -303.60587            0    9138.0951    24.913446    24.697939      22.8003            0            0            0     14029.27    11009.757    8655.4602    7749.0683    -810.8587    428.17279     -521.562 
  138000    272.71022   -304.27411   -236.62828   -304.27411            0    6859.5643     24.88336    24.950486    22.907648            0            0            0    14222.257    5284.8534    7032.9406    8260.8988   -258.96221   -1402.1429   -431.77283 
  138500    274.94923   -305.75684   -237.55563   -305.75684            0    9374.6892    24.769407    24.832106    22.842252            0            0            0    14049.733    10811.949    9936.7786    7375.3397   -249.32517    -1306.009    869.72746 
  139000    264.41083   -308.10573   -242.51857   -308.10573            0    7619.3152    24.887733    24.800615    22.900277            0            0            0    14134.763    5388.3848    7997.8194    9471.7413    264.31356    1194.9717    1461.3797 
  139500    280.52423   -307.63354   -238.04944   -307.63354            0    11487.393    24.844401    24.788666    22.862551            0            0            0    14080.121     10556.26    11827.592    12078.328   -790.07122   -426.76072   -467.82116 
  140000    282.07153   -306.79803   -236.83012   -306.79803            0    10043.299    24.875719    24.928267    22.857468            0            0            0    14174.111    7378.6953    14705.237    8045.9654    570.85893   -1638.1172    697.35752 
  140500    284.27611   -306.04225    -235.5275   -306.04225            0    8525.6368    24.859016    24.842863    22.839901            0            0            0    14105.218    8241.0085     6000.488    11335.414    1916.1225    3552.5246   -1489.7911 
  141000    277.31367   -307.07419   -238.28648   -307.07419            0    7493.9149    24.932581    24.783628    22.910429            0            0            0    14156.808    7819.1729    8586.9586    6075.6133    356.05644   -2402.0706   -857.78979 
  141500    278.96296   -307.61872    -238.4219   -307.61872            0    8684.1438    24.787354    24.782445    22.910418            0            0            0    14073.669    5552.1612    10730.946    9769.3244    1354.6071   -759.34122     405.3003 
  142000    274.53248   -306.08599   -237.98815   -306.08599            0    8927.0257     24.67839    24.967158    22.926209            0            0            0    14125.967     10778.65    7161.0127    8841.4144    578.24162     1545.552   -1968.1626 
  142500    289.30436   -307.86897   -236.10697   -307.86897            0    9211.7482    24.927341     24.88717    22.868779            0            0            0    14187.127    8211.3533    8573.9827    10849.909    1236.2222   -1132.6595   -1111.7475 
  143000    282.24144    -307.0563   -237.04625    -307.0563            0    10451.561    25.003669    24.692316    22.787954            0            0            0    14069.249    8526.6592    12663.043    10164.981    902.97337   -1779.6025    435.07441 
  143500     267.9573   -303.58539   -237.11853   -303.58539            0     7527.389    24.855584    24.884242      22.9122            0            0            0    14171.479    7975.1336    5359.3039    9247.7294    1074.1024   -1537.0608   -2872.0566 
  144000    275.66489   -305.67455   -237.29581   -305.67455            0    9532.7565    24.699728    24.881347    22.913425            0            0            0    14081.732    10671.073    9302.9656    8624.2312   -123.95157    282.10686   -804.01713 
  144500      280.553   -306.30086   -236.70963   -306.30086            0     8340.624    24.883666    24.845101    22.924979            0            0            0    14173.074    8451.7451    10903.173    5666.9538   -414.10994     -374.965   -436.01339 
  145000    276.18936    -305.7363   -237.22747    -305.7363            0    10538.451    24.986054      24.7518    22.794506            0            0            0    14097.258    5997.1169    13455.147    12163.089    661.16975   -2088.3033     -1012.64 
  145500    273.03057    -305.6299    -237.9046    -305.6299            0    10016.207    24.883323    24.867804    22.813342            0            0            0     14116.75    9141.6475    9384.4563    11522.517   -1211.7943   -2574.0302    127.65193 
  146000    277.49719   -307.23096   -238.39772   -307.23096            0    7907.4581    24.758277    24.994015    22.894811            0            0            0    14167.509    8014.4593    6611.0995    9096.8156   -1785.3828    195.09047    553.67641 
  146500     279.1279   -308.45494    -239.2172   -308.45494            0    11110.455    24.711153    24.756748    22.943938            0            0            0    14036.362    12051.116    10147.913    11132.336    250.31597   -3196.9963    931.23403 
[...]
  365000    277.51027   -305.44883   -236.61235   -305.44883            0    8402.4602    24.910752    24.889676    22.846146            0            0            0     14165.08    6012.7572    10586.892     8607.731    494.18188   -203.44458   -1055.1111 
  365500    275.74308    -304.9364   -236.53827    -304.9364            0    10129.983    24.737716    24.855399    22.850903            0            0            0    14050.239    11570.976    7937.7785    10881.195    2054.2987   -238.56979   -932.63121 
  366000    283.81413   -306.21733   -235.81718   -306.21733            0    8466.5546    24.915314    24.827066    23.001366            0            0            0     14228.05    5329.4321    10462.093    9608.1384   -1633.3364    1082.0971   -1524.4066 
  366500     274.6822   -305.22097   -237.08599   -305.22097            0     11492.08    24.901337    24.732221    22.866481            0            0            0    14082.674    10459.151     13121.24    10895.849    146.15761   -466.60496   -1310.5523 
  367000    276.83407   -307.78225   -239.11349   -307.78225            0    6608.7798     24.84217    24.947771    22.910132            0            0            0     14198.71     6896.642    6141.3306    6788.3669    7.0669903   -1279.6079    1606.4565 
  367500    282.81187    -307.1962   -237.04466    -307.1962            0     10647.76    24.760284    24.857826    22.890698            0            0            0    14088.924    11370.873    10128.902    10443.506   -57.714176   -916.45297   -642.29444 
  368000    276.72607    -305.3645   -236.72254    -305.3645            0    8307.7984    24.910157    24.809177     22.92241            0            0            0    14166.061     8621.364    7473.7863    8828.2448     2141.366    1221.7237   -1652.7118 
  368500    281.69132   -307.82955   -237.95595   -307.82955            0    10175.759    24.839195    24.794614    22.933895            0            0            0    14124.487    8487.9884    11020.045    11019.244   -532.65778    995.50137    2787.9295 
  369000    285.31918    -307.9701   -237.19661    -307.9701            0    8393.7497    24.764797    24.870219    22.905366            0            0            0    14107.551    8491.5054    8337.9779    8351.7658   -1387.5448    1611.5154    487.01172 
  369500     278.5242   -305.93624   -236.84825   -305.93624            0    7911.2156    24.827543    24.941747    22.923102            0            0            0    14194.954    8776.1511    6432.2876    8525.2081    496.44968   -1690.2967   -6.3515903 
  370000    278.32808   -305.42689   -236.38755   -305.42689            0    11607.601    24.909826    24.739586    22.781543            0            0            0    14039.326     11598.57    11130.071    12094.163   -217.30355    1672.8303    211.98889 
  370500    267.07383   -306.90424   -240.65652   -306.90424            0    7268.1647    25.025317    24.821996    22.900449            0            0            0    14225.262    4939.9554    7345.8192    9518.7195    605.31163    1568.9151    236.14179 
  371000    270.26256   -307.06938    -240.0307   -307.06938            0    8313.9751    24.680671    24.839408    22.877705            0            0            0    14025.251    10606.257    5579.9739    8755.6942   -1382.1475     39.38467    -192.5202 
  371500    271.75103   -306.61549   -239.20759   -306.61549            0    8516.4148    24.812618    24.926757    22.920068            0            0            0    14176.019    6786.2566    9753.0626    9009.9251    197.08746   -260.36882   -744.03788 
  372000     276.6759   -305.30921   -236.67969   -305.30921            0    9628.0495     24.95089    24.777709    22.810528            0            0            0    14102.059    9525.1953    10956.688    8402.2657    427.06797    668.61439    302.49488 
  372500    274.24752   -308.01045   -239.98329   -308.01045            0     9633.356    24.961678    24.769947    22.852022            0            0            0    14129.393    10943.193     8558.195    9398.6797   -393.63328   -694.65519     1567.981 
  373000    265.06911   -308.79632   -243.04586   -308.79632            0    8062.5363    24.701602    24.895298    22.928869            0            0            0    14100.193    11013.307    6620.4432    6553.8582   -2277.3111   -1533.9668   -2476.1177 
  373500    280.08856   -307.22293    -237.7469   -307.22293            0    10354.476    24.713195     24.81369    22.945739            0            0            0    14070.914    13127.287    8605.0439    9331.0969   -341.73703   -883.87088    2430.5065 
  374000    271.07019   -304.96469   -237.72567   -304.96469            0     9270.099    24.981476    24.760995    22.929946            0            0            0     14183.69    8076.5521    9955.4747    9778.2702    700.82645   -1310.0221   -846.54136 
  374500    279.87812    -303.6903   -234.26647    -303.6903            0    11393.301    24.913598    24.786489    22.834559            0            0            0    14100.811    10409.414    11607.117    12163.371   -11.063116    2182.9452   -1027.8134 
  375000     276.7346   -305.25178   -236.60771   -305.25178            0    5687.4073    24.857664    24.936342    22.850542            0            0            0    14164.119    6367.1416    8497.8107    2197.2697    1432.8429    1390.6077   -4079.4919 
  375500    273.55259   -305.60551   -237.75073   -305.60551            0    10570.526    24.788774    24.856249    22.866923            0            0            0    14089.591    11328.556    9445.6978    10937.324    775.18307    11.834113   -179.39392 
  376000    279.43127   -304.82334   -235.51036   -304.82334            0    8477.3633    24.883774    24.783908    22.945784            0            0            0    14151.059    10248.743    7571.1547    7612.1923   -2466.3157    1502.4935   -115.61881 
  376500    271.43546   -305.08466   -237.75504   -305.08466            0    9708.8127    24.854107    24.783013    22.924539            0            0            0    14120.591    12335.267    8029.0009    8762.1703   -2338.8973    602.98355    -681.6445 
  377000    270.48634    -307.5818   -240.48761    -307.5818            0    8999.2272    24.766908     24.87098     22.87508            0            0            0    14090.529    9460.0307    11491.102    6046.5488   -1580.3135   -3351.5642    -2413.664 
  377500    274.06774   -308.59994   -240.61738   -308.59994            0    7506.7176    24.868773    24.914871    22.831532            0            0            0    14146.469    8107.0356    7129.9325    7283.1848    2172.2995    255.44031   -207.11959 
  378000    276.32095   -306.08925   -237.54778   -306.08925            0    9100.1895    24.859329    24.794275    22.850962            0            0            0    14084.626    8734.7018    9806.9413    8758.9255   -309.07471   -762.85788   -316.70646 
  378500    276.83844   -306.89583   -238.22599   -306.89583            0      10257.8     24.84666    24.757389    22.978692            0            0            0    14135.077    11862.947    9087.2548    9823.1967    384.87795   -1610.9376     1769.288 
  379000    276.02087   -306.61272   -238.14568   -306.61272            0    8075.4366    24.815843    24.823973    22.933124            0            0            0    14127.443    7698.1672    8080.3249    8447.8178    729.28712    1983.8713   -2362.9454 
  379500    271.23809   -307.99134   -240.71067   -307.99134            0    6865.0411    24.876567    24.913559    22.769171            0            0            0    14111.509    8399.0281    6643.9283    5552.1669   -199.68246    864.15429   -1331.2331 
  380000      268.324   -308.24998   -241.69216   -308.24998            0    8077.4091    24.980404    24.903708    22.704538            0            0            0    14124.599    6156.6274    8707.3944    9368.2056    -96.64159    494.06193     -1470.58 
  380500     276.2654   -305.81123   -237.28354   -305.81123            0    10447.175    24.896249    24.675077     22.88535            0            0            0    14058.857    14180.681    11105.772    6055.0708    38.305466   -728.86959    1519.7439 
  381000    272.85362   -305.51852   -237.83712   -305.51852            0    8648.2522    24.757786    24.772681    23.184298            0            0            0    14219.318    11077.221    8183.2829    6684.2527   -615.88543   -1247.2956    366.27642 
  381500    279.25995   -302.72661   -233.45611   -302.72661            0    9092.7099    24.689305    24.844822    22.962299            0            0            0    14085.107    9643.5343    7788.4937    9846.1016    1329.5669   -1805.4021    1471.8009 
  382000    275.38326   -305.90491   -237.59603   -305.90491            0    8940.7345    24.925999    24.960497    22.717769            0            0            0    14134.208    9250.6235    8771.5843    8799.9958   -1739.0938    1688.5438    1182.7459 
  382500    280.93457   -304.27482   -234.58894   -304.27482            0    8466.6859     25.02379    24.870646    22.709002            0            0            0    14133.125    6068.7064    8410.3709     10920.98    1088.4734   -189.67964   -2387.8387 
  383000    278.28401   -302.89317   -233.86476   -302.89317            0    11350.756     24.82185    24.809835    22.939664            0            0            0    14126.842    12162.189    12079.545    9810.5332   -575.24001   -17.442739    780.35877 
  383500    281.10422   -304.50821   -234.78024   -304.50821            0    10480.496    24.696264    24.802318    23.089254            0            0            0    14142.736    13021.145     9245.054    9175.2879   -1420.1253    55.837937    -92.56168 
  384000    264.00025   -305.88609   -240.40077   -305.88609            0    6917.1049    24.839517    24.811281     22.92185            0            0            0    14126.742    7015.3894    5648.4432     8087.482    144.54903   -253.12481    222.87322 
  384500     269.1943    -306.2489    -239.4752    -306.2489            0    8151.2744     24.94436    24.849861     22.68968            0            0            0    14064.513    6104.6967      8742.77    9606.3564    435.90428   -463.05619    1080.0007 
  385000    269.18266   -307.65253   -240.88171   -307.65253            0    5609.6524    24.904657    24.973825    22.754048            0            0            0    14152.211    4329.4841    4126.1686    8373.3043   -1485.4769    -157.4358    185.86377 
  385500    264.98066   -304.82138   -239.09287   -304.82138            0    8254.6677    24.704885     24.83992    22.914248            0            0            0    14061.727    11683.097    6389.5171    6691.3886    1654.5887   -2170.5873   -648.27231 
  386000    274.71904   -305.30228   -237.15816   -305.30228            0    10322.847    24.823382    24.792339    23.058899            0            0            0    14191.132    9085.9682    13382.607     8499.966   -64.088022   -193.43976     1853.366 
  386500    275.44875   -305.33289   -237.00776   -305.33289            0    10135.941    24.862365    24.743531    22.900706            0            0            0    14088.118    9557.0984    11878.168    8972.5571    153.13301   -793.04118   -757.70574 
  387000    275.92978   -306.51521   -238.07077   -306.51521            0    9334.9766    24.869245    24.922916    22.788613            0            0            0    14124.704    9721.3093    8624.2879    9659.3327     666.7315   -1302.4298    1211.8027 
  387500    272.70173   -306.72953   -239.08581   -306.72953            0    10368.411    24.829016    24.959678    22.784991            0            0            0    14120.411    7795.4653    11688.895    11620.874    359.48031    1831.3134     579.7712 
  388000    268.81724   -306.86782   -240.18765   -306.86782            0    7575.6999    24.803164    24.816158    22.877856            0            0            0    14081.761    6404.3293    8300.7283    8022.0421    1159.0387   -644.69926   -69.100869 
  388500    268.76936   -308.94851   -242.28021   -308.94851            0    8754.3122    24.876052    24.719137    23.008505            0            0            0    14148.264    9717.8503    8556.4216    7988.6648   -167.10663   -819.55802    309.83247 
  389000    270.88343   -307.40002   -240.20733   -307.40002            0     9698.358    24.851085    24.759911    22.864163            0            0            0    14068.564        11025     8357.575    9712.4993    1645.9197   -686.75931   -1356.3509 
  389500    270.36607   -309.32394   -242.25958   -309.32394            0    8121.4197    24.832211    24.986229    22.768534            0            0            0    14127.041    8632.3624    7455.3082    8276.5885    617.09859    -958.1393     1102.105 
  390000    269.55181   -309.28886   -242.42647   -309.28886            0    7643.4662    24.757199    24.941567    22.855832            0            0            0    14113.096    6768.3121    7505.4717    8656.6148   -756.55334   -1002.8068   -53.957216 
  390500    268.02173     -304.048   -237.56515     -304.048            0    10396.529    24.792082     24.57022    23.075974            0            0            0    14056.658    9739.2118    10763.875    10686.501     1741.942      161.351   -225.63461 
  391000    276.83748   -305.98342   -237.31382   -305.98342            0    8030.0733    24.929349    24.732504    23.138447            0            0            0    14266.362    7879.5403    10033.042    6177.6374    2177.9938   -1361.5406   -695.80152 
  391500      275.971   -305.06293   -236.60826   -305.06293            0    10555.537    24.792844    24.839981    22.811646            0            0            0    14048.638    10945.004    8422.1401    12299.468   -1322.2254   -1775.7478    939.05438 
  392000    273.39759    -308.0355   -240.21917    -308.0355            0    6040.9105    24.873996    24.975361    22.847221            0            0            0     14193.54    4483.8264    5522.5486    8116.3563    608.51128   -87.984842   -105.04458 
  392500    276.76172   -305.72635   -237.07554   -305.72635            0    9186.4676    24.826807    24.785216     22.85307            0            0            0    14062.357    10021.591    10861.454    6676.3578    1028.5544   -139.46549    759.36188 
  393000    273.74278   -305.05353   -237.15157   -305.05353            0      9212.12    24.919024    24.812378    22.973917            0            0            0    14204.778    10441.433    10370.072    6824.8553    338.14548   -73.930733    1119.0583 
  393500    273.63737   -305.05661    -237.1808   -305.05661            0    10424.993    24.876965    24.789205    22.844771            0            0            0    14087.918    9013.3885    9826.3501     12435.24    766.82226   -1610.0559   -1821.8301 
  394000    270.86805   -306.96606   -239.77718   -306.96606            0    7168.0476     24.86914    24.926723    22.782925            0            0            0    14123.275    9310.4317    5006.5259    7187.1852   -932.41268    -2144.406    556.44552 
  394500    273.31241   -304.88468   -237.08947   -304.88468            0    10297.982    24.898092    24.890998    22.790319            0            0            0    14124.035    10648.542    8585.8228    11659.579   -1325.4266    757.85661   -453.01492 
  395000    267.35405   -304.60809   -238.29086   -304.60809            0    7823.6889     24.89724    24.734753    22.965294            0            0            0    14142.649     7485.762    7986.3222    7998.9826    276.89954    579.43817    1289.6991 
  395500    269.93715   -306.34051   -239.38254   -306.34051            0    10847.241    24.789531    24.699989    23.014574            0            0            0     14091.85     10746.14    10995.815    10799.766     1086.609    1320.5114    8.8827449 
  396000    274.59036   -308.13818   -240.02598   -308.13818            0    8695.7155    24.759148    24.944716    22.885219            0            0            0    14134.138    9917.0803    8038.9297    8131.1366    1595.5455    996.47672   -1696.4123 
  396500    276.88915   -304.00757   -235.32515   -304.00757            0    8369.1056     24.83956    24.971997     22.72194            0            0            0    14094.269    9000.6967    5908.2372    10198.383    652.06124    1751.7871    2016.8017 
  397000    272.77774     -307.824   -240.16142     -307.824            0    9093.4581    24.993059    24.776415     22.82796            0            0            0    14135.949    7876.1248    7913.0709    11491.179   -371.96168    857.54453    814.65114 
  397500     276.5811   -305.36245   -236.75645   -305.36245            0    8059.5716    24.848857    24.712641     23.03608            0            0            0    14146.016    8502.8232    10262.149    5413.7421    1921.3656    53.534313   -935.27026 
  398000    276.41613   -306.79956   -238.23448   -306.79956            0    9487.5239    24.696796    24.863984    23.000574            0            0            0    14123.749    9187.7518    10130.596    9144.2235   -580.57671    525.18137    1014.2443 
  398500    275.71875   -306.26144   -237.86934   -306.26144            0    9192.2179    24.840677    24.951944    22.868699            0            0            0     14174.55    11154.817     6606.317    9815.5198   -672.16086   -509.22497   -3368.9855 
  399000    273.91815   -309.02107   -241.07561   -309.02107            0    10001.408    24.847297    24.782072    22.728348            0            0            0    13995.377    4590.2382    13375.532    12038.454   -15.288868    1482.6857    308.61588 
  399500     270.7262   -308.64755   -241.49386   -308.64755            0    8601.6772    24.888658    24.877352    22.908359            0            0            0    14184.029    7496.1541     9164.947    9143.9303    1245.4767    1163.1613    270.14345 
  400000    269.41388   -307.13289   -240.30472   -307.13289            0    11421.671    24.721142    24.773773    22.919828            0            0            0    14036.927    8393.1706    14783.538    11088.306    1435.7004   -1304.9213    1875.9825 
Loop time of 4392.41 on 1 procs for 400000 steps with 1920 atoms

Performance: 3.934 ns/day, 6.101 hours/ns, 91.066 timesteps/s
64.2% CPU use with 1 MPI tasks x 1 OpenMP threads

MPI task timing breakdown:
Section |  min time  |  avg time  |  max time  |%varavg| %total
---------------------------------------------------------------
Pair    | 3760.1     | 3760.1     | 3760.1     |   0.0 | 85.61
Bond    | 0.069813   | 0.069813   | 0.069813   |   0.0 |  0.00
Neigh   | 582.08     | 582.08     | 582.08     |   0.0 | 13.25
Comm    | 16.089     | 16.089     | 16.089     |   0.0 |  0.37
Output  | 2.769      | 2.769      | 2.769      |   0.0 |  0.06
Modify  | 28.847     | 28.847     | 28.847     |   0.0 |  0.66
Other   |            | 2.412      |            |       |  0.05

Nlocal:        1920.00 ave        1920 max        1920 min
Histogram: 1 0 0 0 0 0 0 0 0 0
Nghost:        7227.00 ave        7227 max        7227 min
Histogram: 1 0 0 0 0 0 0 0 0 0
Neighs:         0.00000 ave           0 max           0 min
Histogram: 1 0 0 0 0 0 0 0 0 0
FullNghs:      551936.0 ave      551936 max      551936 min
Histogram: 1 0 0 0 0 0 0 0 0 0

Total # of neighbors = 551936
Ave neighs/atom = 287.46667
Ave special neighs/atom = 0.0000000
Neighbor list builds = 40000
Dangerous builds not checked

unfix		3
unfix		2

write_data	data.final.${pid}
write_data	data.final.0
System init for write_data ...

write_restart   restart.lmp.${pid}
write_restart   restart.lmp.0
System init for write_restart ...
Total wall time: 1:13:17
