LAMMPS data file via write_data, version 29 Sep 2021, timestep = 2000000

864 atoms
2 atom types

0.07314490312546695 18.134428096871584 xlo xhi
0.08615503033256289 21.359959969665777 ylo yhi
0.08923660882877016 22.123959391172857 zlo zhi

Masses

1 1.008
2 15.999

Atoms # full

77 0 2 0.5897 1.7045788884899338 0.304970440117276 3.452848548154618 0 0 1
485 0 2 0.5897 3.743123332664598 2.223452942373413 0.604685692421178 0 0 1
78 0 2 0.5897 1.6818730482268434 1.6620946342585203 4.005468295785702 0 0 1
76 0 1 -1.1794 1.278512739680359 0.8328369207975047 4.148258777265644 0 0 1
484 0 1 -1.1794 3.348943491588358 3.0940801806566487 0.3467810350365644 0 0 1
836 0 2 0.5897 3.9425795602760867 0.14840086886916334 1.6051974705160956 1 1 1
242 0 2 0.5897 2.8196124283038695 3.864004261838615 3.4506154418424817 0 0 0
243 0 2 0.5897 3.996765848954277 2.861212489962597 3.6685918047873125 0 0 0
241 0 1 -1.1794 3.185949587513872 3.1616873228221167 4.015337082075311 0 0 0
835 0 1 -1.1794 4.604329030639621 0.7000798177108577 1.125837134169479 1 1 1
837 0 2 0.5897 4.732643498084497 0.4393713337906782 0.1836070636778141 1 1 1
764 0 2 0.5897 5.5683619887894675 1.6959499824570465 2.2596072752976943 0 1 0
763 0 1 -1.1794 5.563497929649175 2.0718243970418473 3.1372517110897955 0 1 0
784 0 1 -1.1794 8.030895649971795 0.8819058908850926 1.2447213807557718 0 1 1
765 0 2 0.5897 6.183302506693123 2.7380627187159035 3.2212152629836646 0 1 0
52 0 1 -1.1794 7.577175131187576 3.9081533219131583 3.7732570416382947 0 0 0
785 0 2 0.5897 8.74819771382213 1.2541993957124562 1.753376200450182 0 1 1
599 0 2 0.5897 9.044414067510296 2.8544299399469284 3.569057053654564 0 1 -1
279 0 2 0.5897 6.075011392147213 0.6981463149647156 4.384472556378212 -1 1 1
786 0 2 0.5897 7.65931123923805 1.6144661059378653 0.7733379060191837 0 1 1
598 0 1 -1.1794 9.761962533137037 2.227147109595886 3.3680235283413373 0 1 -1
600 0 2 0.5897 10.26209037012195 2.7246648499997104 2.7036753768730364 0 1 -1
344 0 2 0.5897 13.220682688257472 2.0168863317892134 3.1693789817589755 0 1 1
707 0 2 0.5897 13.057365015706882 4.16522058176629 3.2889451777947234 -1 1 1
343 0 1 -1.1794 13.397093780231089 2.6395404344848687 2.3643222755738886 0 1 1
852 0 2 0.5897 12.042248016399746 3.4063130578952796 1.4865368504445442 -1 0 1
851 0 2 0.5897 10.872010556803783 3.1642264489091274 0.634784080251291 -1 0 1
606 0 2 0.5897 10.626059448391853 0.4656117224597004 3.532447493109447 -1 1 1
850 0 1 -1.1794 11.182283086151523 3.7938108474362027 1.310598452884718 -1 0 1
280 0 1 -1.1794 17.860595187564098 3.5899995602163814 3.3691768457309856 -1 0 0
345 0 2 0.5897 14.027651054660307 2.2058200633380656 1.7726894328472997 -1 1 1
281 0 2 0.5897 17.659307561524432 3.2999997222067625 2.458678619375823 -1 0 1
295 0 1 -1.1794 17.178001629559382 2.831220500063688 0.498676666470477 0 0 0
781 0 1 -1.1794 14.94487834911677 0.5921288218016729 0.6779910177370407 0 1 1
783 0 2 0.5897 15.739375819304147 0.914862404802647 1.1093100880766984 0 1 1
334 0 1 -1.1794 16.508426088952493 0.9881651784389015 3.4692090999700276 -1 1 0
336 0 2 0.5897 17.135457739484647 1.5590452977561775 3.9312802407538068 -1 1 0
731 0 2 0.5897 16.146102050898616 3.9279090582451217 4.141590270734483 -1 0 0
296 0 2 0.5897 16.491800635132954 3.5544516052926665 0.41732683259463343 0 0 0
335 0 2 0.5897 15.64582799998756 1.2424058489288459 3.8712400637897906 -1 1 0
97 0 1 -1.1794 13.700817386324413 0.1317653870587896 4.334445091766102 -1 1 0
218 0 2 0.5897 3.0212799550003537 4.6256391447522995 1.3877754589195486 0 0 1
64 0 1 -1.1794 0.8267192838791942 6.433185540710926 3.7681967389224797 0 1 1
65 0 2 0.5897 1.5894051199678072 6.103593543664548 3.239462491860672 0 1 1
217 0 1 -1.1794 2.7937337985030286 5.402102952326252 1.9890122370665004 0 0 1
219 0 2 0.5897 3.5472310979548 5.942181772040103 2.2792052788344206 0 0 1
854 0 2 0.5897 1.3980934379777834 6.26377807867276 0.9383018348831074 0 0 0
855 0 2 0.5897 0.3935872424434091 7.3367293855602265 0.8659836856706857 0 0 0
693 0 2 0.5897 0.8252304361490905 8.12216682195518 3.043240205680016 1 0 0
822 0 2 0.5897 3.9848911212418026 7.747385873154411 3.993233843095604 0 1 1
853 0 1 -1.1794 0.7751975760047128 6.651689132807839 0.33449707330818523 0 0 0
821 0 2 0.5897 4.118668711316592 8.330282901320317 2.563045503327613 0 1 1
820 0 1 -1.1794 4.328474238175971 7.542340285256496 3.0890147519681137 0 1 1
53 0 2 0.5897 7.323658622516532 4.6747920543907675 3.3070625214928135 0 0 0
395 0 2 0.5897 7.368892112911515 6.257813822908717 1.0986030976070145 0 0 0
92 0 2 0.5897 6.010428724553546 6.762153670153401 2.855180390406418 0 0 0
91 0 1 -1.1794 6.920142216221449 6.436235295648647 2.87379827721674 0 0 0
93 0 2 0.5897 7.348595197766224 6.846254760855536 3.6380602546018257 0 0 0
394 0 1 -1.1794 7.593144331978515 6.200942590643592 0.13649433538668385 0 0 1
706 0 1 -1.1794 13.031745114316227 4.612548428993389 4.134100792233742 -1 1 1
495 0 2 0.5897 11.57644523360578 7.639468521382404 1.7152291679983651 1 0 0
210 0 2 0.5897 11.593351225310794 5.529884304147093 0.6357338328111034 -1 0 0
494 0 2 0.5897 11.856289007052132 7.702146884226234 3.244723001581048 1 0 1
493 0 1 -1.1794 12.14334536849449 8.095207905917068 2.4061296320454035 1 0 1
708 0 2 0.5897 13.969141484964192 4.413186480991722 4.401381167019366 -1 1 1
282 0 2 0.5897 17.82929854742785 4.550395750029508 3.3514340079051435 -1 0 0
482 0 2 0.5897 13.851146779138645 7.781573578191947 2.374190799073445 0 0 0
483 0 2 0.5897 14.751042849424078 6.749035191397805 1.6893865203165075 0 0 0
481 0 1 -1.1794 14.779963805505604 7.5167673803939845 2.2807979066088944 0 0 0
438 0 2 0.5897 16.09821595390332 7.648171541223366 4.220532506948041 0 0 0
697 0 1 -1.1794 15.554324493089275 5.229624220781115 0.7403041393653311 -1 0 0
720 0 2 0.5897 16.22491189373161 8.471028586907815 1.0954953924785917 0 0 0
698 0 2 0.5897 16.366619921630498 5.764877641568031 0.6220707803633586 -1 0 0
542 0 2 0.5897 1.5918270538590655 12.396182289410788 3.475478777324059 1 0 0
691 0 1 -1.1794 0.854836015620006 8.932713682577443 2.530106471367886 1 0 0
541 0 1 -1.1794 1.0025812901242603 11.686517333242472 3.8290168736981167 1 0 0
543 0 2 0.5897 0.3905336319647579 12.118005502853546 4.424691760174559 1 0 0
692 0 2 0.5897 0.6276856617639747 9.686486242437953 3.0957766648788243 1 0 0
263 0 2 0.5897 2.4401591878599267 9.386001201096661 1.526218926530431 0 0 0
264 0 2 0.5897 3.4213559642923155 10.212819459650191 0.5194613674004774 0 1 0
262 0 1 -1.1794 3.379421184772077 9.49766645986304 1.2634548866956508 0 1 0
645 0 2 0.5897 0.08275385563466794 11.74290154176143 1.833673085614762 1 0 1
766 0 1 -1.1794 6.0310444352183055 12.070784617402177 0.4614941801997443 1 0 0
230 0 2 0.5897 7.671337707761004 9.913958339339642 3.3030566923152005 0 0 0
40 0 1 -1.1794 5.616449856847309 12.325405085937012 3.4712940720439285 0 0 0
257 0 2 0.5897 7.49996549781036 10.996066088898663 0.8252877241903801 0 1 1
256 0 1 -1.1794 8.089552181574605 10.57642859517411 1.491712214930358 0 1 1
41 0 2 0.5897 5.889773510988013 12.14804410885912 2.5658849326137405 0 0 0
229 0 1 -1.1794 7.847966769337983 9.730897056914046 4.234363933284091 0 0 0
258 0 2 0.5897 9.020885739335508 10.311177789568623 1.2355212501247357 0 1 1
431 0 2 0.5897 8.77476999001392 12.762914404099686 1.8318856962170884 0 0 0
42 0 2 0.5897 6.4033749201542465 12.764446891236906 3.7957848139798864 -1 0 0
452 0 2 0.5897 12.259681535506255 10.077509945896827 3.2127629637533754 -1 1 1
453 0 2 0.5897 11.971428345257241 11.515389846908242 3.71842398785488 -1 1 1
451 0 1 -1.1794 12.455628683284303 11.015566194609832 3.0448023495732564 -1 1 1
272 0 2 0.5897 11.581629206519224 10.506073328717727 1.3132582291011692 0 0 0
271 0 1 -1.1794 11.077080051158072 10.408108755960514 0.4634825938572933 0 0 0
643 0 1 -1.1794 17.46001089344381 11.492449319457124 1.1463193949458188 0 0 1
416 0 2 0.5897 14.522431367683815 10.677450555673634 3.1377379391816302 0 0 0
415 0 1 -1.1794 15.384527628912625 10.91687419769771 2.8245339357457997 0 0 0
417 0 2 0.5897 15.690509511704471 11.366923010559582 3.6134449287276036 0 0 0
644 0 2 0.5897 16.649276000791083 11.232065319456366 1.693308535702419 0 0 1
719 0 2 0.5897 17.33184123817246 9.546297622396164 0.8103201974072302 0 0 0
718 0 1 -1.1794 16.990577559415364 8.686491162107123 0.5530023459439868 0 0 0
535 0 1 -1.1794 3.0558409548841845 13.615259717096716 3.4526987250582812 0 0 0
536 0 2 0.5897 3.875414534373964 13.104173804739064 3.5070715946368645 0 0 0
769 0 1 -1.1794 3.3154373127741295 15.767041978883963 1.6375610632298234 0 0 0
771 0 2 0.5897 2.667251556923989 15.617766492107643 0.9520397625823436 0 0 0
222 0 2 0.5897 2.5273398621189065 16.540477464235135 3.0756204816732944 0 -1 0
770 0 2 0.5897 3.8786758431073 16.49234373428596 1.3445547774789224 0 0 0
537 0 2 0.5897 3.325497037641112 14.36182717992524 2.9194000207986788 0 0 0
220 0 1 -1.1794 2.478507630850954 16.907855943366748 4.01389245508299 0 -1 0
221 0 2 0.5897 1.5900888390707677 16.62346670963243 4.414335860459581 0 -1 0
664 0 1 -1.1794 6.167285225820785 14.952803510229296 0.09967595098564658 1 0 0
666 0 2 0.5897 6.246042429744728 15.469844707314598 0.9273765773987338 1 0 0
657 0 2 0.5897 6.035202502950427 16.277303645247457 3.1850711177107285 -1 -1 1
656 0 2 0.5897 7.493360855642908 16.61397483315601 2.553352480622371 -1 -1 1
655 0 1 -1.1794 6.53737572575924 16.454756050843503 2.375238164071628 -1 -1 1
432 0 2 0.5897 8.278396799708771 14.27547298059584 1.8001246112102005 0 0 0
430 0 1 -1.1794 9.017394499436021 13.683364223919174 1.9106230147298973 -1 0 0
383 0 2 0.5897 10.910849066657494 14.012610831966784 2.214796726914488 0 0 0
382 0 1 -1.1794 11.492246112268418 14.73142613887703 2.4491926117129017 0 0 0
384 0 2 0.5897 12.343278420850245 14.313651072377615 2.6785122447435628 0 0 0
152 0 2 0.5897 10.171656499923207 15.954430071828883 2.0199874841175633 0 -1 0
151 0 1 -1.1794 9.369698824020654 16.441154910571502 1.8621532850467262 0 -1 0
566 0 2 0.5897 11.906566246897036 16.751137791666117 1.9862386089675044 0 -1 1
245 0 2 0.5897 12.818053996689175 14.584213095250659 0.1083176405539703 0 0 1
711 0 2 0.5897 17.09024574136586 12.992597991524262 0.1642162717282486 -2 0 1
471 0 2 0.5897 14.499544166564894 12.910339859090275 1.9013789812248114 0 -1 0
469 0 1 -1.1794 14.20590606452876 13.763986437543938 1.6407569785778604 0 -1 0
807 0 2 0.5897 16.48910997570246 15.47169049362878 3.5238523070932186 -1 -1 0
805 0 1 -1.1794 16.034730888594673 15.689030403196902 2.6896662901734048 -1 -1 0
423 0 2 0.5897 16.97799906931889 16.453267935046675 1.1333014628542073 -1 0 1
806 0 2 0.5897 15.68011919165111 16.56097731461901 2.9369789952601733 -1 -1 0
470 0 2 0.5897 14.823250727150318 14.33222994199587 2.083982315187506 0 -1 0
421 0 1 -1.1794 17.194116560941033 16.95274531935781 0.33946867744787007 -1 0 1
772 0 1 -1.1794 2.8215520980456943 20.441676953806585 2.3981891233526107 0 0 0
773 0 2 0.5897 2.3259210147976908 19.88079971415129 1.8035034087648818 0 0 0
774 0 2 0.5897 2.999104952184265 19.984290196342023 3.2086304270234396 0 0 0
211 0 1 -1.1794 0.7439026864807663 19.197070451515092 0.8874582873488035 -1 -1 0
213 0 2 0.5897 0.23720230335112533 19.551999651169403 1.656298688858651 -1 -1 0
478 0 1 -1.1794 4.622548104574521 18.030787499902196 0.2246295445351946 0 -1 0
380 0 2 0.5897 6.514145845295992 19.164028813049505 2.5852684857347388 1 -1 1
480 0 2 0.5897 5.240342192308814 18.63436634613802 0.6631794197871052 0 -1 0
379 0 1 -1.1794 6.421620820041085 19.58977323391926 1.702624517420823 1 -1 1
381 0 2 0.5897 5.896003030447418 20.352459195118495 1.849051506883736 1 -1 1
789 0 2 0.5897 8.535938487295622 19.878860543957074 1.4971532584658975 1 0 0
816 0 2 0.5897 5.802662123803413 18.29148340452166 4.285493905936262 0 0 1
814 0 1 -1.1794 6.565799576301744 18.853577671941093 4.2491398917054495 0 0 1
604 0 1 -1.1794 11.215548681867986 21.02400483606996 3.4002479766703337 -1 0 1
787 0 1 -1.1794 9.449122781713296 19.581344343911468 1.6179711965278378 1 0 0
788 0 2 0.5897 9.864214364361958 20.028639928793808 2.357370806090702 1 0 0
153 0 2 0.5897 9.578355752807056 17.363193168243583 2.1641066747274107 0 0 0
565 0 1 -1.1794 12.227677395475988 17.500099216695144 2.5124648251073722 0 -1 1
567 0 2 0.5897 12.263182026748748 18.16515710474901 1.7937617339470464 0 -1 1
605 0 2 0.5897 11.9473232069617 21.215432796582814 4.007957930717434 -1 0 1
515 0 2 0.5897 10.324444649334282 20.245243653070254 0.25903563068653424 0 -1 0
620 0 2 0.5897 11.874561073056789 17.55759490498289 4.268728290358193 -1 0 0
685 0 1 -1.1794 13.327989247850061 19.56465351599175 0.7722603331137723 -1 -1 0
99 0 2 0.5897 14.189301136956322 20.580381884619403 4.279515660897844 -1 0 0
558 0 2 0.5897 14.210556579740823 18.153419707975413 2.735975415596645 -1 -1 1
422 0 2 0.5897 17.71339196529032 17.65424398313742 0.7126880102822328 -1 0 1
556 0 1 -1.1794 14.989069162343426 18.048270024372858 3.3121202337073288 -1 -1 1
253 0 1 -1.1794 17.215202133133236 19.702308144716923 3.258732401465699 0 0 0
254 0 2 0.5897 16.818179051756093 20.579988289520813 3.455965555935907 0 0 0
255 0 2 0.5897 16.51114319144003 19.03333377477329 3.2563236579394803 0 0 0
687 0 2 0.5897 13.831729608004455 20.425730242688545 0.9233743018390169 -1 -1 0
686 0 2 0.5897 13.76498768709077 18.92925393896402 0.12474246765577063 -1 -1 0
557 0 2 0.5897 14.63428247892698 18.117342131242992 4.227737946456068 -1 -1 1
799 0 1 -1.1794 3.8885823383910427 0.6887269553903002 7.468531137443205 0 1 1
399 0 2 0.5897 2.9302756156087697 2.991288367162603 7.2145950657663445 0 1 0
398 0 2 0.5897 3.0657645458539458 3.27038590450119 5.639907743252679 0 1 0
397 0 1 -1.1794 2.936025535454467 3.69793905035503 6.524007143989964 0 1 0
306 0 2 0.5897 2.0988839061018347 0.3374977289037176 7.076764057140619 1 0 0
305 0 2 0.5897 1.325960209563132 0.3227262746575251 5.56612824333463 1 0 0
801 0 2 0.5897 4.182036482151144 0.14612811647648694 8.240233255773196 0 1 1
800 0 2 0.5897 4.486685674683808 0.5036154141837282 6.756769938053028 0 1 1
160 0 1 -1.1794 2.113132030673819 2.699569053747647 8.824920399698488 0 0 0
162 0 2 0.5897 1.17455292079981 2.8400791080617065 8.855463286056937 0 0 0
16 0 1 -1.1794 7.895132402121309 4.027963623647709 6.535154584410846 0 0 0
17 0 2 0.5897 8.132160653237351 3.1416993478237423 6.889967140014623 0 0 0
456 0 2 0.5897 8.457344330914665 1.2384692312441914 8.182732847055624 -1 1 0
454 0 1 -1.1794 8.444235588561561 1.512027012022005 7.220509483957704 -1 0 0
54 0 2 0.5897 7.415172567063206 4.063209510499185 4.740931896703129 0 0 0
120 0 2 0.5897 4.69436128336616 2.2832502251952804 8.477015182883784 1 0 -1
119 0 2 0.5897 5.591201239113128 3.520087633467398 8.287272340983442 1 0 -1
278 0 2 0.5897 6.904324935760909 0.5231024018867851 5.602501296491759 -1 1 1
277 0 1 -1.1794 6.048484934003547 0.21382878580405343 5.196171148878301 -1 1 1
455 0 2 0.5897 9.165619747727519 1.0922699716288948 6.7285493811273485 -1 0 0
601 0 1 -1.1794 10.800300646252435 2.772035766672607 8.825675812662665 0 0 1
331 0 1 -1.1794 12.645425097367275 3.532338078253706 6.926690816692558 -1 0 0
333 0 2 0.5897 11.91473072090303 3.146386046919768 7.4226105830623395 -1 0 0
332 0 2 0.5897 12.330692624539436 3.874388149297163 6.1019522243427105 -1 0 0
603 0 2 0.5897 10.231060871308502 3.638982703945354 8.714606140218246 0 0 1
791 0 2 0.5897 14.218200646850546 2.2816514059561133 6.732812115713661 0 1 0
790 0 1 -1.1794 14.498347216033421 1.3342337072530455 6.847828914857684 0 1 0
425 0 2 0.5897 17.881774396575437 0.46860793481717977 7.040861098567143 0 0 1
424 0 1 -1.1794 17.09537976524235 0.7624098947877668 7.563299914571221 0 0 1
792 0 2 0.5897 15.503982878274176 1.3067368596380284 6.932888131309384 0 1 0
730 0 1 -1.1794 15.430669495167557 3.900277632898034 4.806177343930741 -1 0 0
98 0 2 0.5897 13.937843203931036 0.5188059977508377 5.163013132349331 -1 1 0
66 0 2 0.5897 1.2041789356492685 6.359184236416927 4.617280927758466 0 1 1
408 0 2 0.5897 3.947371322063752 5.187615326339163 6.873255546393427 1 1 0
407 0 2 0.5897 4.407781626410673 5.907063186506033 8.016105778262386 1 1 0
406 0 1 -1.1794 4.475054543573647 5.967991951883456 7.078748969404655 1 1 0
198 0 2 0.5897 2.5730327538439486 8.578824159404421 8.59030513608564 0 1 1
196 0 1 -1.1794 1.5755882712676 8.519477255887775 8.607128866212381 0 1 1
176 0 2 0.5897 2.1729420796133305 6.4922848598112095 6.837233643154914 1 0 0
175 0 1 -1.1794 1.3356669441157099 5.979947352788994 6.670551769789244 2 0 0
177 0 2 0.5897 1.6581820703087777 5.077874936831772 6.785676973160938 2 0 0
2 0 2 0.5897 0.8302216679534216 6.467908177355679 8.823514899161434 1 0 0
778 0 1 -1.1794 3.292072338756142 8.58020328471393 5.464383306961545 0 0 1
18 0 2 0.5897 7.907024809282574 4.615197804991837 7.311072589478697 0 0 0
633 0 2 0.5897 7.184859875379303 7.300700843444815 6.192552154951097 0 0 -1
632 0 2 0.5897 5.721153204527769 6.850635930235994 5.965655171836426 0 0 -1
631 0 1 -1.1794 6.363155314374363 7.523423665974424 5.802198326648889 0 0 -1
346 0 1 -1.1794 9.084789982560585 7.12773234110411 6.123378555281784 1 1 0
348 0 2 0.5897 8.892893760602586 7.910328041866105 5.6308798514947584 1 1 0
132 0 2 0.5897 13.299698007548015 5.152614255918179 7.856258370216489 0 0 -1
722 0 2 0.5897 12.071359631692555 6.148090038220121 4.693914780898474 0 0 0
721 0 1 -1.1794 11.554303319655315 6.932004463737449 4.919842679628116 0 0 0
723 0 2 0.5897 10.682812042583784 6.60781932068272 5.222029543043885 0 0 0
523 0 1 -1.1794 10.127535721300003 7.84374285174748 8.61277725142244 1 1 1
819 0 2 0.5897 12.46820461691079 7.880449728110568 6.2352943723594025 -1 1 0
347 0 2 0.5897 9.395811694964815 7.605138097458316 6.989854502589905 1 1 0
817 0 1 -1.1794 13.292953225506672 8.337997028250516 6.516700107775536 -1 1 0
131 0 2 0.5897 13.30148546237308 6.631246857985176 7.938215167259749 0 0 0
732 0 2 0.5897 15.763812395148495 4.541462033530344 5.4536558475182515 -1 0 0
130 0 1 -1.1794 13.822108644971427 5.890450591250461 8.187204647419598 0 0 0
436 0 1 -1.1794 16.211991202854676 7.975287842905717 5.0916826239175945 0 0 0
739 0 1 -1.1794 16.30077485537733 5.848929916461422 6.998659944385703 0 2 0
741 0 2 0.5897 15.45992338050564 5.883910003239727 7.485529497143691 0 2 0
437 0 2 0.5897 16.420151832528557 7.190239680832886 5.696660444808656 0 0 0
740 0 2 0.5897 17.029610374836036 5.958378812148683 7.643958579295228 0 2 0
818 0 2 0.5897 13.815610878500527 8.212317862097345 5.701509555901316 -1 1 0
560 0 2 0.5897 15.849617295245556 8.129993219143397 7.996804259977424 0 0 0
559 0 1 -1.1794 16.348426887317334 8.336604872498674 8.853091492978315 0 0 0
197 0 2 0.5897 1.3082709212049328 8.938145369392542 7.7793652167654885 1 1 1
779 0 2 0.5897 2.5309817184809913 9.176524761327597 5.326285419498531 0 0 1
622 0 1 -1.1794 1.361177887531509 11.935278930651467 8.523619810433578 -1 0 1
624 0 2 0.5897 2.1320623127779683 11.92106657247366 7.970468608980108 -1 0 1
780 0 2 0.5897 4.0436217325598545 9.170368170244155 5.548651156686955 0 0 1
247 0 1 -1.1794 0.5231442534111659 9.407023647289295 6.042133857005871 0 0 0
231 0 2 0.5897 6.964967622381751 9.40588968386259 4.538396121362391 0 0 0
95 0 2 0.5897 7.8994407715022446 11.489090591619574 4.826060883547189 0 0 1
94 0 1 -1.1794 7.921573098869192 12.47824426563931 4.818373815947224 0 0 1
96 0 2 0.5897 8.906560393320465 12.598050072262089 4.697699275382054 0 0 1
849 0 2 0.5897 4.921924097625015 8.755808092523043 8.072857120339451 0 1 0
587 0 2 0.5897 7.216980177226754 9.529851703661723 8.566422539428082 0 1 0
44 0 2 0.5897 5.053344317485936 11.501498584892765 6.272637936385634 0 0 0
43 0 1 -1.1794 5.221798121709001 10.736023515243325 5.683728840926365 0 0 0
586 0 1 -1.1794 7.415180600689071 9.839675407823187 7.657915686161622 0 1 0
588 0 2 0.5897 6.645643953618932 9.704742623973651 7.085786246317743 0 1 0
45 0 2 0.5897 5.35984839722831 11.201487205173978 4.809398407933914 1 0 0
501 0 2 0.5897 5.018037843293377 12.365597356376846 8.622898936396258 1 -1 0
104 0 2 0.5897 8.938602054517931 10.523030529403206 7.078943223351847 1 0 0
499 0 1 -1.1794 4.738939493231731 12.768593229024418 7.79063275246754 1 -1 0
319 0 1 -1.1794 10.82869622451155 12.221542923373608 5.048553199956229 0 1 1
321 0 2 0.5897 10.504664996190575 11.76467508083724 5.858992924652001 0 1 1
550 0 1 -1.1794 12.37734794694277 10.528418630694922 8.310508967338533 0 0 0
551 0 2 0.5897 11.43230189340113 10.564549661317326 8.138387636518196 0 0 0
103 0 1 -1.1794 9.75203875428758 11.12004169249853 7.187776438847129 1 0 0
105 0 2 0.5897 9.365849781201444 11.795682412216749 7.7478209172680295 1 0 0
552 0 2 0.5897 12.7696168557546 9.875769104296888 7.6945191356876474 0 0 0
248 0 2 0.5897 18.058437493918547 8.61718520172064 5.878667949788902 -1 0 0
225 0 2 0.5897 13.643343830645712 11.988899150210775 8.746929882781359 0 0 0
249 0 2 0.5897 17.95489840456652 10.090605586802518 5.793870737600725 -1 0 0
464 0 2 0.5897 15.735747155558185 11.85738598160144 5.981569536246884 0 0 0
463 0 1 -1.1794 16.13184788581832 12.098308386667464 5.160068296147413 0 0 0
561 0 2 0.5897 16.34877007885953 9.306530371118349 8.883865585809597 0 0 0
498 0 2 0.5897 17.49034167574266 11.514539064302344 8.65317655137315 0 0 0
223 0 1 -1.1794 14.345382425043722 12.713861362604234 8.89893863828598 0 0 0
810 0 2 0.5897 2.1125376807605822 14.450706246176606 4.948191097055107 0 0 1
808 0 1 -1.1794 1.7207306144537855 14.976710655189892 5.668972131960226 0 0 1
809 0 2 0.5897 2.333745079818103 14.939419436410732 6.442694224416141 0 0 1
75 0 2 0.5897 3.867756917152206 15.756603611319829 7.927164646519667 1 2 1
73 0 1 -1.1794 3.279904168851458 14.982601123284288 8.041917083733656 1 2 1
74 0 2 0.5897 3.7703060186459756 14.17652558628745 7.9392453292718175 1 2 1
393 0 2 0.5897 4.116141168410805 16.07084036465728 4.6708492685430105 0 -1 0
391 0 1 -1.1794 5.071149689828428 15.975260112786552 4.6587467851181374 0 -1 0
114 0 2 0.5897 7.291914921986564 13.73664376334513 5.839445429907773 0 0 0
392 0 2 0.5897 5.18269659499638 15.068916356641575 5.0187217202481 0 -1 0
112 0 1 -1.1794 6.733339785754461 14.139808507064782 6.537924704392066 0 0 0
113 0 2 0.5897 7.207622741273435 14.878481663246115 6.9822436377578825 0 0 0
500 0 2 0.5897 5.55614448452641 13.199582315542793 7.402056888597142 1 -1 0
444 0 2 0.5897 9.029200825566083 15.873406978038929 7.8692234516020125 -1 0 0
320 0 2 0.5897 11.184799685407896 13.062876905759547 5.347824908749217 0 1 1
612 0 2 0.5897 11.708009771700715 15.337513766429595 5.519468059559797 1 0 0
443 0 2 0.5897 9.261209651582028 16.454381928689237 6.55614648368394 -1 0 0
610 0 1 -1.1794 12.002118817310212 14.553780166226455 6.107848565652117 1 0 0
611 0 2 0.5897 11.470605919741383 14.710491945816154 6.886780071953848 1 0 0
442 0 1 -1.1794 9.40941492849445 15.651964025207288 7.019399402023146 -1 0 0
291 0 2 0.5897 13.509293758524224 15.497733700342666 8.675620737480662 1 -1 0
465 0 2 0.5897 16.41296758415394 13.05109979499039 5.189324586602075 0 0 0
329 0 2 0.5897 13.928392932370116 14.962608747293272 6.591820325796961 -1 0 -1
143 0 2 0.5897 17.949721839949422 14.976478168744658 5.496715560330328 0 0 1
142 0 1 -1.1794 17.010184148438334 14.804279220880263 5.211342533828462 0 0 1
144 0 2 0.5897 16.478536248726854 15.086026490058932 5.956273943334063 0 0 1
328 0 1 -1.1794 14.799807714998835 14.761385679774609 6.9605178177306275 -1 0 -1
330 0 2 0.5897 14.597138914605344 13.95289398015842 7.419979151313766 -1 0 -1
304 0 1 -1.1794 1.3771512766977698 21.24034511060107 6.532818079684859 1 -1 0
520 0 1 -1.1794 3.7062453409037546 19.16932676143747 4.906395711552587 0 -1 1
526 0 1 -1.1794 4.0978525613833545 17.609039040826687 7.8282290298363355 0 -1 0
528 0 2 0.5897 3.2328694918663206 18.05433776826818 7.609398694759506 0 -1 0
521 0 2 0.5897 3.034012534472002 18.414238211674366 4.854412537790543 0 -1 1
522 0 2 0.5897 3.4195097597861985 19.795971793779536 5.571834312384472 0 -1 1
146 0 2 0.5897 1.2871392866691564 19.329082417381414 7.0250896716238165 0 0 0
145 0 1 -1.1794 1.530868849724116 18.467521782807427 7.452442403885581 0 0 0
147 0 2 0.5897 1.3462229226900424 17.865915554122612 6.764828796315687 0 0 0
527 0 2 0.5897 4.813331052662299 17.785260667074414 7.234656210729444 0 -1 0
815 0 2 0.5897 6.257671438423154 19.61868128556661 4.7264485698984116 0 0 1
750 0 2 0.5897 8.327076466198633 18.193661182961936 4.512680838991141 0 0 0
748 0 1 -1.1794 8.935161338146699 17.868268954168144 5.221755809971502 0 0 1
62 0 2 0.5897 7.207607784280392 18.20016017582758 6.5992967899528105 0 0 0
61 0 1 -1.1794 6.683443405465688 18.15068582370933 7.36108700740828 0 0 0
63 0 2 0.5897 6.887783642952094 18.980956730611517 7.892145602324817 0 0 0
15 0 2 0.5897 8.763443414911391 20.19835161238211 7.850413600968581 0 0 0
13 0 1 -1.1794 8.175193954719212 19.97072260645613 8.64266327663816 0 0 0
749 0 2 0.5897 9.832945666657029 17.725269422813177 4.891265532188288 0 0 1
798 0 2 0.5897 9.85964393798053 19.55441855246778 5.979243977580984 0 0 -1
621 0 2 0.5897 11.895168031352412 18.047373990628326 5.865998280652357 -1 0 0
619 0 1 -1.1794 11.472551427702403 17.553409608252654 5.148781896941673 -1 0 0
797 0 2 0.5897 10.762058890577888 19.785328086433164 7.144384829137571 0 0 -1
796 0 1 -1.1794 10.023831773705222 20.230969662527997 6.660504283712909 0 0 -1
625 0 1 -1.1794 12.284600732518328 18.381238239375996 7.627292844118135 0 0 1
626 0 2 0.5897 12.631083001674236 19.191442196245376 8.071159844370314 0 0 1
775 0 1 -1.1794 13.548264927879657 20.673415538566648 8.504289083856277 0 0 0
627 0 2 0.5897 12.342002860808499 17.568515641477706 8.172031034568437 0 0 1
372 0 2 0.5897 17.99747593397776 18.534401291649225 5.1995200676559605 -2 0 -1
776 0 2 0.5897 13.686820725411863 21.300969783547984 7.791903794401739 0 0 0
426 0 2 0.5897 16.71332205353736 21.21304238984038 7.875467905077562 0 -1 1
356 0 2 0.5897 14.220290434637537 18.00743618349924 6.684191549797905 -1 -1 0
355 0 1 -1.1794 15.002651048648135 18.3747087208307 6.285770568330881 -1 -1 0
357 0 2 0.5897 15.25275072530311 19.050301268072293 6.916571788391873 -1 -1 0
371 0 2 0.5897 17.045556683441838 17.78410752401196 5.969704652968289 -2 0 -1
370 0 1 -1.1794 17.904739058327124 17.650677336993347 5.521741769349559 -2 0 -1
232 0 1 -1.1794 16.113751760802153 19.759990182353974 8.398545009814143 0 -1 0
233 0 2 0.5897 15.245181360122032 19.99761516755655 8.702431488636632 0 -1 0
161 0 2 0.5897 2.5760640053014385 3.4029331543037964 9.287864351207078 0 0 0
364 0 1 -1.1794 0.6342318712274152 1.1749237742526604 11.760180996239704 1 1 0
704 0 2 0.5897 3.626791016341312 4.225475008768609 12.8735783812271 0 0 0
366 0 2 0.5897 0.5853805308758331 1.870542053843114 12.419254168026834 1 1 0
365 0 2 0.5897 0.4871069600626048 1.6568721122619383 10.956896558679416 1 1 0
60 0 2 0.5897 0.8120372648577338 4.328205075986067 11.85785096091184 1 0 0
589 0 1 -1.1794 4.971004585780011 3.832854721965664 11.546540927261878 0 0 0
488 0 2 0.5897 7.301235158472817 2.4003132161545406 9.846699886075172 0 1 0
118 0 1 -1.1794 5.307713632352025 2.848449049006206 8.909838830881695 1 0 -1
489 0 2 0.5897 7.75651953265565 1.1014775756253858 10.541045082195645 0 1 0
590 0 2 0.5897 4.959113991161914 3.236980744526005 10.75867691868995 0 0 0
487 0 1 -1.1794 8.051809426807504 1.8190892239464687 9.950419418869895 0 1 0
353 0 2 0.5897 7.799531397820858 3.277305011388534 13.04435042549281 0 0 0
591 0 2 0.5897 5.599785071307277 3.3992165314386846 12.104468662428904 0 0 0
555 0 2 0.5897 8.95375068932703 3.239264552890186 11.303720014821863 0 1 -1
602 0 2 0.5897 10.28547744646951 2.296750492683298 9.553578765591705 0 0 1
553 0 1 -1.1794 9.478073064804315 3.5320013332821456 12.048602393106348 0 1 -1
69 0 2 0.5897 12.429143186919998 3.158203670943246 9.7518239488128 0 0 0
67 0 1 -1.1794 12.999691586888952 3.122343212431351 10.51652991100029 -1 0 0
68 0 2 0.5897 12.545504270576647 3.7514424004461557 11.148927467128514 -1 0 0
369 0 2 0.5897 13.048883453139808 1.4037988921464661 11.085813201320374 0 1 0
367 0 1 -1.1794 13.129432273981825 0.4341300831319011 11.152074727550463 0 1 0
101 0 2 0.5897 9.77451351672722 0.15540540377588297 12.628720668385021 0 -1 0
102 0 2 0.5897 11.1609767566228 0.8464465694588633 13.120827811332335 0 -1 0
717 0 2 0.5897 10.666572269487716 2.975657998485852 13.049647005430817 0 0 -1
368 0 2 0.5897 13.990354186961964 0.28690890348163867 11.44379228180431 0 1 0
753 0 2 0.5897 17.24099821185667 2.1344248814528703 8.959596813808728 0 1 1
752 0 2 0.5897 16.95590258645522 3.3682457639800916 9.826768962556462 -1 1 1
751 0 1 -1.1794 17.593994520974704 2.6910636623889093 9.64621367086798 0 1 1
327 0 2 0.5897 16.82781516137035 0.9865789490486555 11.733175394386373 0 1 0
714 0 2 0.5897 15.360074026826638 3.829646278332722 11.814397108509201 0 1 1
713 0 2 0.5897 14.77454203163391 4.016973565475286 10.520397913992488 0 1 1
206 0 2 0.5897 15.126507468708994 2.230697819662464 13.11947084996402 0 0 -1
712 0 1 -1.1794 15.628287375829665 4.1298688681026245 10.967952345134085 0 1 1
325 0 1 -1.1794 15.996785016614004 0.919466126902613 12.195114218367058 0 1 0
207 0 2 0.5897 13.642709062310093 2.625650779724635 13.234751803065443 0 0 -1
205 0 1 -1.1794 14.535946927000934 3.005925659052173 13.268068736076328 0 0 -1
214 0 1 -1.1794 0.4364995533183525 7.533346493987904 12.805505952410169 2 0 0
215 0 2 0.5897 0.4106064380496331 6.660701508778574 12.431484765022084 2 0 0
459 0 2 0.5897 4.064757478531757 5.828267659406812 10.618090548503618 0 1 0
216 0 2 0.5897 0.10255231172743294 8.159351699290639 12.21382730511187 2 0 0
457 0 1 -1.1794 4.525840363729509 6.043523642946026 9.806524652617592 0 1 0
58 0 1 -1.1794 0.9615390400348458 5.066914431605785 11.332967212785867 1 0 0
59 0 2 0.5897 0.27368907586327373 5.138375275978926 10.617633256564154 1 0 0
458 0 2 0.5897 4.676901739012553 6.9679443882614045 9.788621923917907 0 1 0
681 0 2 0.5897 8.64158604706085 5.16033008502692 9.74289560023511 1 -1 1
512 0 2 0.5897 6.3252220425144134 5.476984010068827 10.580468742552377 0 0 1