LAMMPS (29 Sep 2021 - Update 2)
  using 1 OpenMP thread(s) per MPI task
plugin load libdeepmd_lmp.so
Loading plugin: deepmd pair style v2.0 by Han Wang
Loading plugin: compute deeptensor/atom v2.0 by Han Wang
Loading plugin: fix dplr v2.0 by Han Wang
echo both

include		in.partitions
variable        pid world 0
include		in.temp
variable        temperature equal 270
variable        tempDamp equal 0.100
include		in.pressure
variable        pressure equal 0.986923
variable        pressureDamp equal 1.0 # This is 1 ps
include		in.seed
variable        seed world 745823

units           metal
atom_style	full
include		in.box
read_data       water.data
Reading data file ...
  orthogonal box = (0.0000000 0.0000000 0.0000000) to (18.207573 21.446115 22.213196)
  1 by 1 by 1 MPI processor grid
  reading atoms ...
  864 atoms
  reading velocities ...
  864 velocities
Finding 1-2 1-3 1-4 neighbors ...
  special bond factors lj:    0        0        0       
  special bond factors coul:  0        0        0       
     0 = max # of 1-2 neighbors
     0 = max # of 1-3 neighbors
     0 = max # of 1-4 neighbors
     1 = max # of special neighbors
  special bonds CPU = 0.000 seconds
  read_data CPU = 0.026 seconds
include 	in.setup
variable	out_freq equal 500
variable	out_freq2 equal 500

timestep        0.0005

neigh_modify    delay 7 every 1

include         in.deepmd
# This is deepMD model

# create groups ###
#group ox type 2
#group hy type 1

mass 2 15.999
mass 1 1.008

pair_style      deepmd ../graph.pb
pair_coeff      * *

bond_style      none
angle_style     none
dihedral_style  none
improper_style  none
neigh_modify exclude none


neighbor        2.0 bin
neigh_modify    every 10 delay 0 check no

thermo          ${out_freq}
thermo          500
thermo_style 	custom step temp pe etotal epair emol press lx ly lz xy xz yz vol pxx pyy pzz pxy pxz pyz cella cellb cellc cellalpha cellbeta cellgamma


restart 	${out_freq} restart.lmp.${pid} restart2.lmp.${pid}
restart 	500 restart.lmp.${pid} restart2.lmp.${pid}
restart 	500 restart.lmp.0 restart2.lmp.${pid}
restart 	500 restart.lmp.0 restart2.lmp.0


include         in.dump
dump            myDump all atom ${out_freq2} dump.water.${pid}
dump            myDump all atom 500 dump.water.${pid}
dump            myDump all atom 500 dump.water.0
dump            myDump2 all dcd ${out_freq2} dump.dcd
dump            myDump2 all dcd 500 dump.dcd
dump_modify     myDump append yes
dump_modify     myDump2 append yes


timer           timeout 23:50:00 every 1000
New timer settings: style=normal  mode=nosync  timeout=23:50:00

fix             2 all nph iso ${pressure} ${pressure} ${pressureDamp}
fix             2 all nph iso 0.986923 ${pressure} ${pressureDamp}
fix             2 all nph iso 0.986923 0.986923 ${pressureDamp}
fix             2 all nph iso 0.986923 0.986923 1
fix             3 all temp/csvr ${temperature} ${temperature} ${tempDamp} ${seed}
fix             3 all temp/csvr 270 ${temperature} ${tempDamp} ${seed}
fix             3 all temp/csvr 270 270 ${tempDamp} ${seed}
fix             3 all temp/csvr 270 270 0.1 ${seed}
fix             3 all temp/csvr 270 270 0.1 745823
velocity 	all create ${temperature} ${seed} dist gaussian
velocity 	all create 270 ${seed} dist gaussian
velocity 	all create 270 745823 dist gaussian

run             2000000

CITE-CITE-CITE-CITE-CITE-CITE-CITE-CITE-CITE-CITE-CITE-CITE-CITE

Your simulation uses code contributions which should be cited:

- USER-DEEPMD package:

@article{Wang_ComputPhysCommun_2018_v228_p178,
  author = {Wang, Han and Zhang, Linfeng and Han, Jiequn and E, Weinan},
  doi = {10.1016/j.cpc.2018.03.016},
  url = {https://doi.org/10.1016/j.cpc.2018.03.016},
  year = 2018,
  month = {jul},
  publisher = {Elsevier {BV}},
  volume = 228,
  journal = {Comput. Phys. Commun.},
  title = {{DeePMD-kit: A deep learning package for many-body potential energy representation and molecular dynamics}},
  pages = {178--184}
}

CITE-CITE-CITE-CITE-CITE-CITE-CITE-CITE-CITE-CITE-CITE-CITE-CITE

Neighbor list info ...
  update every 10 steps, delay 0 steps, check no
  max neighbors/atom: 2000, page size: 100000
  master list distance cutoff = 8
  ghost atom cutoff = 8
  binsize = 4, bins = 5 6 6
  1 neighbor lists, perpetual/occasional/extra = 1 0 0
  (1) pair deepmd, perpetual
      attributes: full, newton on
      pair build: full/bin
      stencil: full/bin/3d
      bin: standard
Per MPI rank memory allocation (min/avg/max) = 7.215 | 7.215 | 7.215 Mbytes
Step Temp PotEng TotEng E_pair E_mol Press Lx Ly Lz Xy Xz Yz Volume Pxx Pyy Pzz Pxy Pxz Pyz Cella Cellb Cellc CellAlpha CellBeta CellGamma 
       0          270    -134.9383    -104.8194    -134.9383            0    24699.997    18.207573    21.446115    22.213196            0            0            0    8673.8466    24566.994    25484.632    24048.365    1101.0544   -264.16926   -872.69259    18.207573    21.446115    22.213196           90           90           90 
     500    261.07601   -127.01225   -97.888826   -127.01225            0   -3579.3447    18.386145    21.656449    22.431053            0            0            0    8931.5656   -1237.0803   -5601.4299   -3899.5239    986.92183   -1337.9818   -557.58972    18.386145    21.656449    22.431053           90           90           90 
    1000    272.65604    -124.8681   -94.452912    -124.8681            0    1639.9708    18.456432    21.739238    22.516803            0            0            0    9034.3891   -485.83389    2738.8151    2666.9312   -1154.4785    879.87506   -1313.2607    18.456432    21.739238    22.516803           90           90           90 
    1500    262.86471    -125.6254   -96.302448    -125.6254            0    1775.3679    18.418197    21.694202    22.470157            0            0            0    8978.3575    1799.4329    705.63477     2821.036    470.12279   -86.506411    1355.6333    18.418197    21.694202    22.470157           90           90           90 
    2000    263.70853   -123.30335   -93.886263   -123.30335            0    302.89118    18.391848    21.663166    22.438011            0            0            0    8939.8791    1761.6448    214.50919   -1067.4805    227.87557    507.10076     2543.592    18.391848    21.663166    22.438011           90           90           90 
    2500    276.34729   -123.35815   -92.531198   -123.35815            0   -52.450835    18.416405    21.692092    22.467971            0            0            0    8975.7375   -143.94686    781.62044   -795.02608     916.3917   -587.94717   -2724.5999    18.416405    21.692092    22.467971           90           90           90 
    3000     283.4125   -123.83853    -92.22344   -123.83853            0   -114.06627    18.378316    21.647227    22.421502            0            0            0    8920.1609   -1457.3635    259.33559    855.82907    -2010.997    757.94143   -32.768905    18.378316    21.647227    22.421502           90           90           90 
    3500    265.87273   -124.08046   -94.421954   -124.08046            0   -344.16374    18.304689    21.560505    22.331678            0            0            0     8813.383   -1158.9745    1405.3329   -1278.8496    796.73341    1075.8256    512.80148    18.304689    21.560505    22.331678           90           90           90 
    4000    255.35841    -123.0463   -94.560684    -123.0463            0    2148.8192    18.315825    21.573621    22.345263            0            0            0    8829.4772    1044.5271    983.23858     4418.692    327.45204    242.48035   -837.23194    18.315825    21.573621    22.345263           90           90           90 
    4500    270.83647   -123.59491   -93.382699   -123.59491            0    716.49683    18.355202    21.620002    22.393303            0            0            0    8886.5469    1633.1664    160.79568    355.52846    155.53636    1239.4537    134.20518    18.355202    21.620002    22.393303           90           90           90 
    5000     262.0035   -122.77067   -93.543782   -122.77067            0   -1523.9713    18.363006    21.629194    22.402823            0            0            0    8897.8864   -981.88981   -2805.0872   -784.93704    1322.3872   -1428.7167   -1135.1248    18.363006    21.629194    22.402823           90           90           90 
    5500    268.29614    -124.8849   -94.956059    -124.8849            0    639.63882    18.301285    21.556495    22.327524            0            0            0    8808.4659   -1128.4139    1376.6686    1670.6618    586.61268     597.0379   -253.49103    18.301285    21.556495    22.327524           90           90           90 
    6000    258.48021   -122.84699   -94.013137   -122.84699            0   -122.16295     18.28924    21.542307    22.312829            0            0            0    8791.0855   -812.66933    1205.2657   -759.08521      -859.06   -870.46754   -143.52252     18.28924    21.542307    22.312829           90           90           90 
    6500    265.35324   -124.66149   -95.060938   -124.66149            0    506.96837    18.323632    21.582817    22.354788            0            0            0    8840.7734   -660.45091    1355.9191    825.43693   -893.69807     -1098.82    780.04167    18.323632    21.582817    22.354788           90           90           90 
    7000    283.43059   -124.48936   -92.872249   -124.48936            0   -1328.4632    18.246582    21.492062    22.260787            0            0            0     8729.716   -1800.6147   -1150.5952   -1034.1797    950.64793    87.498354   -228.13624    18.246582    21.492062    22.260787           90           90           90 
    7500    277.31808   -124.80412   -93.868875   -124.80412            0    1294.2325    18.281812    21.533558    22.303767            0            0            0    8780.3787    799.00519     924.5992     2159.093   -480.46011    687.19124   -2470.3826    18.281812    21.533558    22.303767           90           90           90 
    8000    268.98303   -122.92242   -92.916955   -122.92242            0   -717.44053    18.387626    21.658193     22.43286            0            0            0    8933.7241    1881.1043    89.274259   -4122.7001   -403.22391   -1551.1187    1126.1744    18.387626    21.658193     22.43286           90           90           90 
    8500    273.41388    -123.5549   -93.055167    -123.5549            0   -399.37579    18.147537    21.375401    22.139953            0            0            0    8588.3288     484.2781   -687.72773   -994.67775    3141.6407     1935.478   -2867.8021    18.147537    21.375401    22.139953           90           90           90 
    9000    270.00558   -121.58102   -91.461489   -121.58102            0    1408.5098    18.210056    21.449039    22.216225            0            0            0    8677.3954    3113.4533    1308.3497   -196.27359    1898.0676    1832.3454   -635.16739    18.210056    21.449039    22.216225           90           90           90 
    9500     272.7841   -121.18757   -90.758092   -121.18757            0   -1337.1004    18.324218    21.583508    22.355503            0            0            0    8841.6217   -3259.6001   -464.12336   -287.57763    898.04589   -158.42543   -1984.2892    18.324218    21.583508    22.355503           90           90           90 
   10000    280.02006   -121.45888   -90.222225   -121.45888            0    1051.8533    18.194211    21.430376    22.196894            0            0            0    8654.7643   -640.84484    3576.4209    219.98391    -418.9414    1209.8994    449.42279    18.194211    21.430376    22.196894           90           90           90 
   10500    284.14924    -120.8544    -89.15712    -120.8544            0    1017.6358    18.185342     21.41993    22.186074            0            0            0    8642.1138    838.36195    382.57135    1831.9742   -205.90774    3224.7793   -1863.7034    18.185342     21.41993    22.186074           90           90           90 
   11000    275.50564   -121.20189   -90.468819   -121.20189            0   -1142.2115    18.417099    21.692909    22.468817            0            0            0    8976.7517   -318.78418   -754.76179   -2353.0885    541.74864   -2043.5379   -528.02553    18.417099    21.692909    22.468817           90           90           90 
   11500    275.39905   -122.35763   -91.636451   -122.35763            0   -736.07429    18.217599    21.457924    22.225427            0            0            0    8688.1829   -2585.5098    1300.4127   -923.12576   -1078.5309   -138.11563   -38.547017    18.217599    21.457924    22.225427           90           90           90 
   12000    280.82886    -122.3831   -91.056213    -122.3831            0    2273.4174    18.066432     21.27987    22.041004            0            0            0    8473.6933    712.99448    2962.0722    3145.1856    1012.7613   -1006.6596    1641.7304    18.066432     21.27987    22.041004           90           90           90 
   12500    275.96747   -121.49298   -90.708392   -121.49298            0   -2586.7152    18.167913    21.399401    22.164811            0            0            0    8617.2898   -3465.2463   -3722.1199   -572.77944    1216.9626    1024.8215   -1710.4347    18.167913    21.399401    22.164811           90           90           90 
   13000    283.20879    -121.9583   -90.365937    -121.9583            0    2623.1938    18.126174    21.350238    22.113889            0            0            0    8558.0338   -145.70403    6087.2222    1928.0633    258.13415   -1024.7338   -923.81601    18.126174    21.350238    22.113889           90           90           90 
   13500    265.64237   -121.97635   -92.343547   -121.97635            0    980.05982    18.079184     21.29489    22.056562            0            0            0    8491.6489    654.13991    2413.7781   -127.73854    2100.6598    137.49749   -186.54628    18.079184     21.29489    22.056562           90           90           90 
   14000      270.694   -122.71337   -92.517047   -122.71337            0   -1935.1474    18.126806    21.350982    22.114661            0            0            0    8558.9293   -540.12946   -2222.1787   -3043.1342   -370.60822   -2272.1738    574.30909    18.126806    21.350982    22.114661           90           90           90 
   14500    271.82946   -124.35812   -94.035135   -124.35812            0   -923.05888    17.916228    21.102949    21.857755            0            0            0    8264.0945    1275.9887   -3283.3713   -761.79399   -229.42007   -646.74356    1056.0323    17.916228    21.102949    21.857755           90           90           90 
   15000     281.6545   -124.95572    -93.53674   -124.95572            0    955.12364    17.948532    21.140999    21.897167            0            0            0    8308.8775    759.61494   -946.72617    3052.4821   -667.67232    1979.8763    1563.7632    17.948532    21.140999    21.897167           90           90           90 
   15500    266.06266   -122.55551   -92.875817   -122.55551            0   -2869.1974    18.085003    21.301743     22.06366            0            0            0    8499.8505   -5948.6689   -357.22222    -2301.701   -867.52289   -925.07681    100.91948    18.085003    21.301743     22.06366           90           90           90 
   16000    266.65869   -122.43084   -92.684661   -122.43084            0    3075.5885    17.970718    21.167131    21.924234            0            0            0    8339.7275    4675.7903    1474.5261     3076.449    712.33365    1154.9961   -97.760381    17.970718    21.167131    21.924234           90           90           90 
   16500    272.69156   -123.72334   -93.304182   -123.72334            0    315.13527    17.959934    21.154428    21.911076            0            0            0    8324.7219   -2404.0334    1469.5687    1879.8705   -510.34974   -1558.9161    672.76547    17.959934    21.154428    21.911076           90           90           90 
   17000    269.93955   -123.20956   -93.097397   -123.20956            0     1237.003    18.058455    21.270474    22.031272            0            0            0    8462.4738    2305.8725   -1077.5776     2482.714   -922.09226    198.30629   -572.34315    18.058455    21.270474    22.031272           90           90           90 
   17500    279.93362   -123.92609   -92.699069   -123.92609            0    912.54529    18.036913      21.2451    22.004991            0            0            0    8432.2251   -1300.8309    5747.5908    -1709.124    2111.9988    2408.0195    1427.8913    18.036913      21.2451    22.004991           90           90           90 
   18000    267.78218   -124.51254    -94.64103   -124.51254            0   -89.928482    18.064978    21.278157    22.039231            0            0            0    8471.6477    374.61755   -52.976642   -591.42635    568.83496   -2293.5108    -2083.377    18.064978    21.278157    22.039231           90           90           90 
   18500    273.69553   -124.44731   -93.916162   -124.44731            0    1100.6088    18.032225    21.239578    21.999272            0            0            0    8425.6522    -1676.352    1298.7555    3679.4229   -2518.7295    1088.9577    1026.8453    18.032225    21.239578    21.999272           90           90           90 
   19000    262.12494    -122.9275   -93.687072    -122.9275            0    2014.0851    18.095483    21.314088    22.076446            0            0            0    8514.6359    1762.3844    994.36482    3285.5062    983.85629   -422.87084    406.77039    18.095483    21.314088    22.076446           90           90           90 
   19500    274.37335   -122.91193   -92.305165   -122.91193            0    578.14572    18.082108    21.298334    22.060129            0            0            0    8495.7699    2078.2488    1541.9239   -1885.7356    1359.7977    -189.8968   -822.71058    18.082108    21.298334    22.060129           90           90           90 
   20000     260.3657   -123.00148   -93.957298   -123.00148            0    -2486.578    18.039091    21.247666    22.007649            0            0            0    8435.2803   -4560.7481    1071.3407   -3970.3266    2092.6845   -2588.9201   -1078.9983    18.039091    21.247666    22.007649           90           90           90 
   20500    267.05769   -123.83643   -94.045745   -123.83643            0    2358.3765    17.911527    21.097411     21.85202            0            0            0     8257.591    4592.7752   -1067.5724    3549.9266   -447.38909   -89.126457   -2039.8866    17.911527    21.097411     21.85202           90           90           90 
   21000    257.99988   -123.19731    -94.41704   -123.19731            0    3989.5272    17.993105      21.1935    21.951545            0            0            0    8370.9334    2015.0513    5591.8983    4361.6321   -1234.5078   -1717.9289     272.4749    17.993105      21.1935    21.951545           90           90           90 
   21500    260.89372   -124.71444   -95.611358   -124.71444            0    124.54147       18.072    21.286428    22.047798            0            0            0    8481.5307    554.82992    1123.1882   -1304.3937   -293.21548     -147.442   -2193.9564       18.072    21.286428    22.047798           90           90           90 
   22000    272.97119   -124.49407   -94.043726   -124.49407            0   -923.49795    18.102399    21.322234    22.084884            0            0            0    8524.4031   -454.07837    1290.6895   -3607.1049    730.91882    774.90985    184.49443    18.102399    21.322234    22.084884           90           90           90 
   22500    265.34102   -123.76071   -94.161524   -123.76071            0    522.43416    18.031697    21.238957    21.998628            0            0            0    8424.9123    2598.4239   -2864.0364     1832.915   -2714.8303    691.34906    3048.2345    18.031697    21.238957    21.998628           90           90           90 
   23000    270.90444   -124.51928   -94.299481   -124.51928            0    1.3897396    18.017098    21.221761    21.980817            0            0            0    8404.4653   -151.38243   -561.38251    716.93416    1808.2136   -101.77111   -89.654707    18.017098    21.221761    21.980817           90           90           90 
   23500    271.80082   -123.16337   -92.843575   -123.16337            0   -371.45723    18.019294    21.224347    21.983496            0            0            0    8407.5381    2021.8327   -4874.4544      1738.25    753.55515   -189.53133   -161.62412    18.019294    21.224347    21.983496           90           90           90 
   24000      280.697   -122.43626   -91.124084   -122.43626            0   -956.02924     18.02801    21.234614     21.99413            0            0            0    8419.7454     1783.486   -1296.9574   -3354.6163   -204.16709    167.63745      1099.05     18.02801    21.234614     21.99413           90           90           90 
   24500    265.23112   -121.73488   -92.147951   -121.73488            0    740.01815    18.064234     21.27728    22.038322            0            0            0    8470.6004   -409.16356    109.27344    2519.9446   -917.61446   -625.76832    1234.3848    18.064234     21.27728    22.038322           90           90           90 
   25000    282.56965   -122.20388    -90.68281   -122.20388            0    241.73279    18.164092    21.394901     22.16015            0            0            0    8611.8541   -2655.6995    1975.9349    1404.9629     1053.024   -1243.8809   -1686.3864    18.164092    21.394901     22.16015           90           90           90 
   25500    279.00348   -122.22421   -91.100951   -122.22421            0    1478.6543    18.144021     21.37126    22.135663            0            0            0     8583.338    4037.8957    1191.3076   -793.24028     596.3503    911.60622    245.36519    18.144021     21.37126    22.135663           90           90           90 
   26000    284.19503   -123.77974   -92.077359   -123.77974            0    2602.8302    17.994043    21.194605     21.95269            0            0            0    8372.2426    3117.7839    411.18396    4279.5229    918.61874   -688.06184   -425.12647    17.994043    21.194605     21.95269           90           90           90 
   26500    274.92769   -123.65815   -92.989556   -123.65815            0    189.49361    17.995606    21.196446    21.954597            0            0            0    8374.4248    2610.8803    333.05061   -2375.4501    20.616151    803.96594    1320.5814    17.995606    21.196446    21.954597           90           90           90 
   27000    274.11253   -121.62059   -91.042928   -121.62059            0    -326.3011    18.052473    21.263428    22.023974            0            0            0    8454.0666   -1321.4663   -317.71578     660.2788   -92.477924   -1749.0603    1876.4589    18.052473    21.263428    22.023974           90           90           90 
   27500    272.21667   -122.96915   -92.602973   -122.96915            0    410.21608    18.121024    21.344171    22.107606            0            0            0     8550.741   -2747.4446     1250.579    2727.5138    2290.1388    299.92476   -205.64405    18.121024    21.344171    22.107606           90           90           90 
   28000    266.24429   -123.61499   -93.915039   -123.61499            0    3239.8861     18.16162    21.391989    22.157134            0            0            0    8608.3382    4911.4802    4003.7077    804.47048    618.91755   -777.67288   -444.46111     18.16162    21.391989    22.157134           90           90           90 
   28500    269.62629   -122.11607   -92.038848   -122.11607            0   -224.36954    18.138643    21.364925    22.129102            0            0            0    8575.7077     1890.914    440.68967   -3004.7123   -213.63607   -315.37728    301.99654    18.138643    21.364925    22.129102           90           90           90 
   29000    266.62659   -122.53584   -92.793238   -122.53584            0   -853.08507    18.239228      21.4834    22.251815            0            0            0    8719.1652   -1011.7097    446.50871   -1994.0542    2008.8662    580.06358   -489.63681    18.239228      21.4834    22.251815           90           90           90 
   29500    281.67464   -122.16538   -90.744153   -122.16538            0   -2687.7989     18.28638     21.53894    22.309341            0            0            0    8786.9632   -5306.9972   -920.31894   -1836.0807    1655.0257    1428.1703   -1613.9399     18.28638     21.53894    22.309341           90           90           90 
   30000    281.46798    -121.1853   -89.787124    -121.1853            0   -780.01351    18.068811    21.282672    22.043907            0            0            0    8477.0414    2353.7117    202.96973    -4896.722   -651.84089   -1905.0721    48.907784    18.068811    21.282672    22.043907           90           90           90 
   30500    272.76495   -121.24462    -90.81728   -121.24462            0   -1283.7049    18.076907    21.292207    22.053783            0            0            0    8488.4406   -9.0545918   -1634.8944   -2207.1657    107.22264    838.74903   -2907.5872    18.076907    21.292207    22.053783           90           90           90 
   31000    278.40974   -122.45858   -91.401551   -122.45858            0    456.80667    18.108497    21.329416    22.092323            0            0            0    8533.0201    786.70777    1393.1515   -809.43925    701.90069    -1750.969   -850.30068    18.108497    21.329416    22.092323           90           90           90 
   31500    266.62469   -122.19787   -92.455486   -122.19787            0   -1146.5247    18.034908    21.242739    22.002546            0            0            0    8429.4139   -3273.7423   -2018.7716    1852.9399   -2397.6027    435.74277   -1098.5933    18.034908    21.242739    22.002546           90           90           90 
   32000    274.21933   -123.75494   -93.165364   -123.75494            0   -500.50131    18.090215    21.307883     22.07002            0            0            0    8507.2021   -168.53235    1278.6511   -2611.6227    1183.4188    -1281.781    274.75188    18.090215    21.307883     22.07002           90           90           90 
   32500    261.90443   -122.31023   -93.094401   -122.31023            0    902.47931    18.071974    21.286397    22.047766            0            0            0    8481.4938   -618.27821    2676.4589    649.25726   -614.82309   -768.55809   -654.46957    18.071974    21.286397    22.047766           90           90           90 
   33000    281.96816   -124.50399   -93.050019   -124.50399            0    3336.0597    18.065046    21.278237    22.039313            0            0            0    8471.7428    2791.0516    3326.3505     3890.777    589.75607    250.02427   -2473.2941    18.065046    21.278237    22.039313           90           90           90 
   33500    263.52193   -122.42933   -93.033066   -122.42933            0   -504.77366    18.136119    21.361952    22.126022            0            0            0    8572.1277     990.7834   -3255.1701    750.06577   -53.349974    1316.9206   -324.43719    18.136119    21.361952    22.126022           90           90           90 
   34000    265.27717   -124.87213   -95.280061   -124.87213            0    3079.2772    18.040952    21.249857    22.009919            0            0            0    8437.8908    4507.0189    1011.7298    3719.0828    1130.7467    159.72921    157.07156    18.040952    21.249857    22.009919           90           90           90 
   34500    261.78452   -125.68107   -96.478614   -125.68107            0   -1804.2274    18.115322    21.337455     22.10065            0            0            0     8542.672   -1686.1924   -3659.6873   -66.802472    2185.3447   -1051.0546   -1640.4689    18.115322    21.337455     22.10065           90           90           90 
   35000    256.58893    -125.1944   -96.571515    -125.1944            0   -2049.0659     18.06097    21.273436    22.034341            0            0            0    8466.0098    -2813.839   -2382.1042   -951.25456    1019.6948   -283.46971    222.02818     18.06097    21.273436    22.034341           90           90           90 
   35500    265.97668   -124.95412   -95.284018   -124.95412            0    1294.9575    17.987392    21.186771    21.944576            0            0            0    8362.9633   -886.51228    4519.4543    251.93056   -371.23831    133.68566    1262.7012    17.987392    21.186771    21.944576           90           90           90 
   36000     265.7037   -124.34564   -94.705997   -124.34564            0   -1798.5392    18.045575    21.255302    22.015558            0            0            0    8444.3789   -3130.2032   -1647.2897   -618.12471   -1461.0494   -1396.1966    2551.8848    18.045575    21.255302    22.015558           90           90           90 
   36500    271.85593    -123.6699   -93.343964    -123.6699            0   -464.07538    18.036299    21.244377    22.004242            0            0            0    8431.3637   -136.66085     630.1444   -1885.7097    595.19945    801.51213     4006.955    18.036299    21.244377    22.004242           90           90           90 
   37000     268.2663   -123.75148   -93.825967   -123.75148            0   -680.23907     18.06628    21.279691    22.040819            0            0            0    8473.4796   -989.21047    846.61469   -1898.1214    557.75487   -144.85761   -800.68716     18.06628    21.279691    22.040819           90           90           90 
   37500    270.20097   -124.28013   -94.138808   -124.28013            0   -1931.0492    18.141364     21.36813    22.132422            0            0            0    8579.5676   -2791.6833   -2889.0767   -112.38762    2259.6165     1044.932   -920.10294    18.141364     21.36813    22.132422           90           90           90 
   38000    280.75329   -124.83174   -93.513288   -124.83174            0    2040.5953    18.049669    21.260125    22.020553            0            0            0    8450.1276    3557.6203    1361.8316    1202.3338   -1042.8646   -3054.5968   -1840.0969    18.049669    21.260125    22.020553           90           90           90 
   38500     276.5307   -124.41969    -93.57227   -124.41969            0    383.95559    18.174402    21.407044    22.172727            0            0            0    8626.5259   -2050.0249    1992.8231    1209.0686   -283.27914     1792.966   -197.49691    18.174402    21.407044    22.172727           90           90           90 
   39000    266.39925   -123.27685   -93.559614   -123.27685            0     1236.837    18.118577    21.341289    22.104621            0            0            0    8547.2773    -376.5731    3540.7255     546.3586    27.878186    513.10997   -1122.2887    18.118577    21.341289    22.104621           90           90           90 
   39500    273.93365   -124.39421   -93.836496   -124.39421            0    1207.9294    17.961967    21.156824    21.913557            0            0            0    8327.5499    911.28457    2637.3203    75.183257   -202.48151   -384.45608    2307.0096    17.961967    21.156824    21.913557           90           90           90 
   40000    263.37736   -123.45028   -94.070143   -123.45028            0    1638.4129    18.056035    21.267623     22.02832            0            0            0    8459.0717    1807.4635    1547.7487    1560.0265    391.39032    1096.4993     174.3675    18.056035    21.267623     22.02832           90           90           90 
   40500    266.43654   -124.13923   -94.417829   -124.13923            0   -502.59509    18.068118    21.281855    22.043061            0            0            0    8476.0651   -573.67384    56.382714   -990.49414   -896.02769    2560.8535    627.01798    18.068118    21.281855    22.043061           90           90           90 
   41000    263.95118   -122.93162   -93.487468   -122.93162            0   -463.84487    18.073202    21.287844    22.049264            0            0            0    8483.2228   -207.39166    335.29309   -1519.4361     324.9297   -1256.3387   -2803.1034    18.073202    21.287844    22.049264           90           90           90 
   41500    263.96957   -122.48304   -93.036841   -122.48304            0   -304.23997     18.08654    21.303554    22.065536            0            0            0    8502.0185    413.43072    607.18972   -1933.3403    112.67754   -1154.6257    1535.1033     18.08654    21.303554    22.065536           90           90           90 
   42000    272.51397   -123.84282    -93.44348   -123.84282            0   -2297.6929    18.156386    21.385823    22.150748            0            0            0    8600.8974   -3277.1913   -2636.9361    -978.9513    473.58243   -49.322045    2644.1508    18.156386    21.385823    22.150748           90           90           90 
   42500    270.57549   -123.70645    -93.52335   -123.70645            0    1518.2759    18.114515    21.336505    22.099666            0            0            0    8541.5307   -981.77413    876.18829    4660.4136    1282.6014   -1803.2914    -2781.018    18.114515    21.336505    22.099666           90           90           90 
   43000    277.58271   -123.75191   -92.787139   -123.75191            0   -2179.4614    18.043273    21.252592    22.012751            0            0            0    8441.1484   -1638.0017   -1581.0737   -3319.3089    1192.0453   -240.30948   -465.35765    18.043273    21.252592    22.012751           90           90           90 
   43500    273.09142   -124.22202   -93.758265   -124.22202            0    1814.3536    18.084694     21.30138    22.063284            0            0            0    8499.4153    6783.0639   -281.18391   -1058.8192   -933.73918    197.89633    950.56641    18.084694     21.30138    22.063284           90           90           90 
   44000    275.85888    -124.5905   -93.818032    -124.5905            0    1121.8901    18.105647    21.326059    22.088846            0            0            0    8528.9915    4490.3401    2444.2807   -3568.9504    1530.3749   -1235.1231     1219.888    18.105647    21.326059    22.088846           90           90           90 
   44500    273.51606    -125.0077    -94.49657    -125.0077            0   -4593.1683    18.125924    21.349943    22.113585            0            0            0    8557.6798   -1906.0756   -6027.9532    -5845.476   -914.57798    1814.3532   -552.91535    18.125924    21.349943    22.113585           90           90           90 
   45000    269.14053   -125.71714   -95.694111   -125.71714            0    790.75872     18.06587    21.279208    22.040319            0            0            0    8472.9025    103.28963    2565.9888   -297.00224    777.89791    2102.2582   -1638.1541     18.06587    21.279208    22.040319           90           90           90 
   45500    261.96001   -124.15062   -94.928584   -124.15062            0    410.75247    18.049692    21.260152    22.020582            0            0            0    8450.1606    685.53565   -471.33369    1018.0555   -678.31425    959.86662   -1827.2553    18.049692    21.260152    22.020582           90           90           90 
   46000    275.40808   -124.33209   -93.609908   -124.33209            0    -997.4921    18.069619    21.283624    22.044893            0            0            0    8478.1785   -1210.6438   -1756.4888   -25.343742    461.27294   -1199.5302   -1070.2265    18.069619    21.283624    22.044893           90           90           90 
   46500     273.5632   -124.24643   -93.730045   -124.24643            0    1091.4632    18.050403    21.260989    22.021449            0            0            0    8451.1584    5631.1902   -3062.6215    705.82076    1150.1075    -361.3387    2535.2641    18.050403    21.260989    22.021449           90           90           90 
   47000    274.55128   -124.27058   -93.643968   -124.27058            0   -1738.9739    18.079272    21.294993    22.056669            0            0            0    8491.7723   -777.77726   -277.74204   -4161.4024    277.31696    1933.6686    3176.5191    18.079272    21.294993    22.056669           90           90           90 
   47500    277.00582   -123.91757   -93.017158   -123.91757            0   -3372.3829    18.028118    21.234741    21.994261            0            0            0     8419.896   -3245.0061   -6535.3369   -336.80583   -778.37518     609.3104   -559.83226    18.028118    21.234741    21.994261           90           90           90 
   48000     279.1578   -123.26027     -92.1198   -123.26027            0   -595.77889    18.133765    21.359178     22.12315            0            0            0    8568.7896    1245.0796   -3581.0076    548.59133    3524.5081   -1959.0892    506.44556    18.133765    21.359178     22.12315           90           90           90 
   48500    268.60017   -122.63288   -92.670131   -122.63288            0    574.56176    18.079896    21.295728     22.05743            0            0            0    8492.6523    398.83297    2396.8095   -1071.9572   -2168.2069    538.49289   -1719.7838    18.079896    21.295728     22.05743           90           90           90 
   49000    289.14245   -124.60823   -92.353959   -124.60823            0   -902.05485    17.984414    21.183263    21.940942            0            0            0     8358.809     914.0104   -2527.6331   -1092.5419    897.38273   -1246.7022     1096.517    17.984414    21.183263    21.940942           90           90           90 
   49500     287.8503   -121.21422   -89.104089   -121.21422            0    2216.6302    18.053745    21.264926    22.025527            0            0            0    8455.8545    4089.0166    3495.4212   -934.54723    623.42331   -816.49009    1451.4149    18.053745    21.264926    22.025527           90           90           90 
   50000    277.59233   -121.44491   -90.479066   -121.44491            0   -2744.2552    18.089306    21.306812    22.068911            0            0            0    8505.9199   -7030.2273   -1264.6579    62.119593    -243.9934   -81.832286    1978.9103    18.089306    21.306812    22.068911           90           90           90 
   50500    270.95085    -123.3558   -93.130829    -123.3558            0    2170.8998    17.984981    21.183931    21.941635            0            0            0    8359.6007    2369.4559    2922.4879    1220.7555    1957.1046   -1318.6847   -825.04094    17.984981    21.183931    21.941635           90           90           90 
   51000    273.40381   -123.45933   -92.960722   -123.45933            0   -1041.2191    17.959765     21.15423    21.910871            0            0            0    8324.4878   -3158.0478     577.5297   -543.13909   -831.93902    1594.4639   -868.82299    17.959765     21.15423    21.910871           90           90           90 
   51500    268.37002   -124.45296   -94.515881   -124.45296            0    698.88608     18.11866    21.341387    22.104722            0            0            0    8547.3949    723.64938    2138.9938   -765.98499   -2219.6811    1265.8473    273.68764     18.11866    21.341387    22.104722           90           90           90 
   52000    259.72734   -125.31468   -96.341708   -125.31468            0   -2568.3507    18.120732    21.343828    22.107251            0            0            0    8550.3286   -3346.0364    699.51869   -5058.5344   -739.83341   -622.40142    515.09353    18.120732    21.343828    22.107251           90           90           90 
   52500    274.88364   -123.61047   -92.946784   -123.61047            0    1313.1446    18.080171    21.296052    22.057766            0            0            0      8493.04    2071.7503    861.10281    1006.5806   -1405.3807   -858.29587   -1558.7878    18.080171    21.296052    22.057766           90           90           90 
   53000    263.95685   -123.47152    -94.02674   -123.47152            0   -3478.8353    18.124866    21.348697    22.112294            0            0            0    8556.1813   -5785.9578   -452.24629    -4198.302   -86.886716     964.7639   -580.84384    18.124866    21.348697    22.112294           90           90           90 
   53500    267.11529   -123.91291   -94.115795   -123.91291            0     1704.325    18.098466    21.317601    22.080086            0            0            0    8518.8478     2848.904   -141.96988     2406.041    191.94422      -327.34   -2120.4647    18.098466    21.317601    22.080086           90           90           90 
   54000    278.05721   -123.65127   -92.633567   -123.65127            0    657.92665    18.103205    21.323183    22.085867            0            0            0    8525.5411   -688.21183   -87.456824    2749.4486    917.92268   -1333.2093    1134.1833    18.103205    21.323183    22.085867           90           90           90 
   54500    262.70702    -125.1491   -95.843734    -125.1491            0   -2594.4878    18.055772    21.267314    22.027999            0            0            0    8458.7026   -4269.6641   -2395.3604   -1118.4388   -616.84172   -84.778778     500.2425    18.055772    21.267314    22.027999           90           90           90 
   55000    272.96792   -124.95815   -94.508165   -124.95815            0   -704.51408    18.097044    21.315926     22.07835            0            0            0    8516.8393   -125.52712   -2041.8029    53.787753   -282.43446    125.49649    182.16137    18.097044    21.315926     22.07835           90           90           90 
   55500      257.564    -123.5942   -94.862544    -123.5942            0   -1946.8339    18.122717    21.346166    22.109672            0            0            0    8553.1387   -1110.6285   -3021.2168   -1708.6563   -903.80722   -1794.6665    15.566241    18.122717    21.346166    22.109672           90           90           90 
   56000    278.62121   -123.73213   -92.651513   -123.73213            0   -2755.9186    18.078146    21.293667    22.055295            0            0            0    8490.1863    124.41437   -2996.8259   -5395.3442   -3461.5004   -134.79618   -132.80402    18.078146    21.293667    22.055295           90           90           90 
   56500    271.07326    -122.7234   -92.484774    -122.7234            0    1092.5643    18.109995    21.331181    22.094151            0            0            0    8535.1385   -35.896434    2654.8725    658.71673   -1672.8004    1362.9966    1548.9782    18.109995    21.331181    22.094151           90           90           90 
   57000    276.97225   -124.30557   -93.408896   -124.30557            0    -2032.104    18.155343    21.384595    22.149475            0            0            0    8599.4153   -2193.4543   -1202.1124   -2700.7453   -215.88416    -903.3142   -42.615668    18.155343    21.384595    22.149475           90           90           90 
   57500    266.56213   -123.21978   -93.484372   -123.21978            0    -1484.315     18.09394     21.31227    22.074563            0            0            0    8512.4576    -1885.364   -2424.3829     -143.198    2858.8569   -2226.4711    1902.5207     18.09394     21.31227    22.074563           90           90           90 
   58000    273.82781   -124.17949   -93.633585   -124.17949            0    547.21673    18.077313    21.292686    22.054279            0            0            0     8489.013    3726.1075   -211.20068   -1873.2566   -456.03501   -2848.6427     -945.928    18.077313    21.292686    22.054279           90           90           90 
   58500    262.54497   -124.08217   -94.794885   -124.08217            0   -1780.5599    18.117347    21.339841     22.10312            0            0            0    8545.5369   -224.84419   -2917.0905    -2199.745    248.59216    -543.4285   -1183.7765    18.117347    21.339841     22.10312           90           90           90 
   59000    267.45849   -123.45857   -93.623174   -123.45857            0   -1144.3163    18.135878    21.361667    22.125728            0            0            0    8571.7853     4472.623   -3376.6887   -4528.8833    908.68566    237.70985    1235.1996    18.135878    21.361667    22.125728           90           90           90 
   59500    272.22465   -124.54192   -94.174855   -124.54192            0    783.66315    18.031328    21.238521    21.998177            0            0            0    8424.3942   -1488.6458    1963.5395    1876.0957   -2343.8273   -286.85282    1668.7741    18.031328    21.238521    21.998177           90           90           90 
   60000    269.62443   -124.69845   -94.621435   -124.69845            0    190.88408    18.002222    21.204239    21.962669            0            0            0    8383.6652    1258.9785    1682.6718    -2368.998    1525.6594    -280.3803    867.01757    18.002222    21.204239    21.962669           90           90           90 
   60500    268.69848   -124.73226   -94.758536   -124.73226            0    900.54849    18.078424    21.293994    22.055634            0            0            0    8490.5778    1508.7031    64.356327     1128.586   -1505.7132    -2094.533    935.94247    18.078424    21.293994    22.055634           90           90           90 
   61000    263.56106   -123.24895   -93.848319   -123.24895            0   -641.90433    18.057874    21.269789    22.030563            0            0            0    8461.6565   -1850.5465    1688.8602   -1764.0268    1046.6761    1597.8969    262.03924    18.057874    21.269789    22.030563           90           90           90 
   61500    277.93835   -124.02315   -93.018714   -124.02315            0   -4061.5576    18.090386    21.308084    22.070228            0            0            0    8507.4435   -7750.0258   -798.14088   -3636.5062   -2354.3837    -137.0196   -2036.3954    18.090386    21.308084    22.070228           90           90           90 
   62000    271.70998   -122.75526   -92.445601   -122.75526            0    1977.4607    18.042243    21.251378    22.011494            0            0            0    8439.7026    3680.6514   -1146.2786    3398.0092    1105.1622    1677.6272   -379.50954    18.042243    21.251378    22.011494           90           90           90 
   62500    272.44204   -123.73382   -93.342504   -123.73382            0   -928.08466     18.01193    21.215674    21.974512            0            0            0    8397.2355   -2282.0948    -94.47916   -407.68007    1662.3731    2412.1281    1316.0192     18.01193    21.215674    21.974512           90           90           90 
   63000    277.74482    -122.4541   -91.471252    -122.4541            0    1535.1694    18.084259    21.300868    22.062754            0            0            0    8498.8025    3363.1984   -1026.3579    2268.6677   -621.61966   -1859.8145    2447.0837    18.084259    21.300868    22.062754           90           90           90 
   63500    259.88361   -122.49462   -93.504216   -122.49462            0    322.36654    18.124446    21.348203    22.111781            0            0            0    8555.5866   -1602.7401    877.47146    1692.3682   -1127.9221   -225.84259    492.67709    18.124446    21.348203    22.111781           90           90           90 
   64000    270.32297   -122.12663   -91.971692   -122.12663            0   -654.70622    18.130158     21.35493    22.118749            0            0            0    8563.6773   -998.35655   -1318.7716     353.0095    446.35587   -2265.0388    1964.6712    18.130158     21.35493    22.118749           90           90           90 
   64500    273.32527     -122.389   -91.899153     -122.389            0    2696.8904    18.056029    21.267616    22.028312            0            0            0    8459.0632   -945.08688    4666.9546    4368.8034    2589.9045   -1016.7879   -2972.5715    18.056029    21.267616    22.028312           90           90           90 
   65000    257.64745   -123.71009   -94.969125   -123.71009            0   -2665.8603    18.049477    21.259899    22.020319            0            0            0    8449.8586   -3310.8266   -2348.8955   -2337.8589     87.87009    2271.7074    2880.0468    18.049477    21.259899    22.020319           90           90           90 
   65500     268.3502   -124.07173   -94.136863   -124.07173            0    1920.1757    18.063627    21.276565    22.037582            0            0            0    8469.7465    2404.5848    2461.4745    894.46783     3009.557    23.298824    -1345.485    18.063627    21.276565    22.037582           90           90           90 
   66000     279.9902   -123.09889   -91.865563   -123.09889            0    -1553.109    17.986864    21.186149    21.943932            0            0            0    8362.2265   -2183.7692   -1192.0991   -1283.4587   -597.42988    786.47071   -866.52201    17.986864    21.186149    21.943932           90           90           90 
   66500     269.8579   -122.64432   -92.541267   -122.64432            0   -1213.7796    17.991933     21.19212    21.950116            0            0            0    8369.2981    28.204228   -3731.6095    62.066486   -224.17134    340.06268   -979.65231    17.991933     21.19212    21.950116           90           90           90 
   67000    266.42736   -123.73219   -94.011813   -123.73219            0   -590.01917     18.09091    21.308702    22.070868            0            0            0    8508.1832     532.7584   -1776.7043   -526.11162   -486.12707   -2441.4772    -88.18584     18.09091    21.308702    22.070868           90           90           90 
   67500    263.29868   -123.01155   -93.640181   -123.01155            0    1214.3031    18.052907    21.263939    22.024504            0            0            0    8454.6764    1002.4354    162.77585     2477.698    1199.8506    -1168.076   -838.42026    18.052907    21.263939    22.024504           90           90           90 
   68000    265.26318    -123.0474   -93.456893    -123.0474            0    468.78471    18.060537    21.272926    22.033813            0            0            0    8465.4014    321.71611    1217.0849   -132.44684   -2471.4484   -2275.4683   -767.31802    18.060537    21.272926    22.033813           90           90           90 
   68500    285.13117   -124.76524   -92.958433   -124.76524            0    382.35982    18.131259    21.356227    22.120093            0            0            0    8565.2376   -2285.1038    3002.6718    429.51151    94.814438    -405.8371    698.67285    18.131259    21.356227    22.120093           90           90           90 
   69000    273.24604   -125.21805    -94.73704   -125.21805            0    226.03923    18.130085    21.354845    22.118661            0            0            0    8563.5747    1811.5784   -980.62595   -152.83473    1367.8747    488.08403   -491.14855    18.130085    21.354845    22.118661           90           90           90 
   69500    275.34397   -125.86919   -95.154153   -125.86919            0   -128.70777    18.038473    21.246937    22.006894            0            0            0    8434.4127    730.32619    -242.9957   -873.45379    1452.5919    1803.7173     509.0958    18.038473    21.246937    22.006894           90           90           90 
   70000    262.53572   -123.27415   -93.987893   -123.27415            0   -1279.6029    18.122404    21.345798     22.10929            0            0            0    8552.6955   -1240.8525    1903.2146   -4501.1709   -57.737407   -3024.9099   -2119.7931    18.122404    21.345798     22.10929           90           90           90 
   70500    264.72979   -123.68706   -94.156056   -123.68706            0    448.80763    18.146529    21.374213    22.138722            0            0            0    8586.8966    2831.5052   -351.64914   -1133.4331    228.97678    558.23737    1304.4402    18.146529    21.374213    22.138722           90           90           90 
   71000    268.58904   -125.15813   -95.196617   -125.15813            0    1571.1962    17.998986    21.200427     21.95872            0            0            0    8379.1442    1956.9486    2239.3475    517.29245    223.12618    820.84128    342.30536    17.998986    21.200427     21.95872           90           90           90 
   71500    264.66577   -124.67568   -95.151814   -124.67568            0   -2417.4193    18.134059    21.359526     22.12351            0            0            0    8569.2076   -4084.5918   -1303.0469   -1864.6193    298.15804   -536.76169    699.76231    18.134059    21.359526     22.12351           90           90           90 
   72000    288.55063   -122.90062   -90.712363   -122.90062            0   -551.25665    18.175194    21.407977    22.173694            0            0            0    8627.6539    2970.6163   -4137.8374    -486.5488   -961.56379    139.35481    -80.18091    18.175194    21.407977    22.173694           90           90           90 
   72500    273.68973   -123.28231   -92.751804   -123.28231            0    1825.5943    18.157564    21.387211    22.152185            0            0            0    8602.5713    1568.1793    2978.8013    929.80241    1408.2317   -194.77383     832.2448    18.157564    21.387211    22.152185           90           90           90 
   73000    277.01491   -125.34617   -94.444739   -125.34617            0   -3221.0194    18.142242    21.369164    22.133493            0            0            0    8580.8131   -5458.8105   -2183.1673   -2021.0802   -1011.0072    2063.1648   -158.56049    18.142242    21.369164    22.133493           90           90           90 
   73500    281.82774   -125.41742   -93.979109   -125.41742            0    3396.4571    18.035345    21.243253    22.003078            0            0            0    8430.0255    2357.4444    3001.4782    4830.4486    418.36457    2508.8037   -1863.1863    18.035345    21.243253    22.003078           90           90           90 
   74000     272.5247   -125.26136   -94.860816   -125.26136            0   -1916.5667    18.174049    21.406628    22.172296            0            0            0     8626.023   -4326.5896    -1990.054    566.94361    40.646009    979.26014    585.37539    18.174049    21.406628    22.172296           90           90           90 
   74500    275.03474   -124.66366   -93.983116   -124.66366            0    2194.1036    18.133095     21.35839    22.122333            0            0            0    8567.8406       1515.7    2903.6698    2162.9411   -47.678227    504.69826   -886.27639    18.133095     21.35839    22.122333           90           90           90 
   75000    271.57182   -123.67751   -93.383262   -123.67751            0    621.34096    18.119566    21.342454    22.105827            0            0            0     8548.677   -492.61401    1206.4504    1150.1865   -848.96551    70.115094   -1637.4269    18.119566    21.342454    22.105827           90           90           90 
   75500     261.5996    -123.5374   -94.355573    -123.5374            0    2173.5903    18.173292    21.405737    22.171374            0            0            0    8624.9461    2631.5629     2720.134    1169.0741    372.69017    1610.2445    -396.3792    18.173292    21.405737    22.171374           90           90           90 
   76000     267.4363    -123.4551    -93.62218    -123.4551            0    1664.6293    18.117923    21.340519    22.103823            0            0            0    8546.3524   -383.99446    3253.7718    2124.1106   -154.62823    957.89883    92.188355    18.117923    21.340519    22.103823           90           90           90 
   76500    255.68478   -126.37168   -97.849659   -126.37168            0    313.39871    18.122315    21.345692    22.109181            0            0            0    8552.5687    856.70877    457.37322   -373.88588    848.69236    1165.5524    2022.8248    18.122315    21.345692    22.109181           90           90           90 
   77000    259.21502   -126.14523   -97.229402   -126.14523            0    1323.7995    18.051699    21.262516     22.02303            0            0            0    8452.9788    1688.1371     1405.079    878.18257   -1626.2529   -1719.1415    1045.6276    18.051699    21.262516     22.02303           90           90           90 
   77500    260.68205   -123.90317   -94.823691   -123.90317            0   -85.873293    18.121071    21.344227    22.107664            0            0            0    8550.8076   -2381.4056    2751.3793   -627.59354       1509.9   -1357.7032   -1658.0406    18.121071    21.344227    22.107664           90           90           90 
   78000    271.61869   -121.69933   -91.399853   -121.69933            0   -233.37384    18.296608    21.550987    22.321819            0            0            0    8801.7155     -321.487   -1499.1517    1120.5172    1998.9019     2847.156    9.1678482    18.296608    21.550987    22.321819           90           90           90 
   78500    262.79006   -124.03806   -94.723434   -124.03806            0   -1842.9218    18.187457    21.422421    22.188654            0            0            0     8645.129   -1492.6364   -1309.9039   -2726.2251   -967.62772   -1735.0725   -1291.4964    18.187457    21.422421    22.188654           90           90           90 
   79000    263.55568   -124.20578   -94.805747   -124.20578            0    876.57905    17.964692    21.160033    21.916881            0            0            0    8331.3399    1293.1632   -404.19919    1740.7731   -121.93179    2092.4989    -4481.246    17.964692    21.160033    21.916881           90           90           90 
   79500    280.06849   -123.62481   -92.382745   -123.62481            0    1901.4871    18.056991     21.26875    22.029487            0            0            0     8460.416    1822.3205      1262.24    2619.9008   -3389.3981    662.42105   -1295.4609    18.056991     21.26875    22.029487           90           90           90 
   80000    261.67651   -120.89504   -91.704636   -120.89504            0   -811.00347    18.176787    21.409853    22.175637            0            0            0    8629.9222   -1066.9772   -3325.2287    1959.1955    3132.5006    1695.0841   -940.37631    18.176787    21.409853    22.175637           90           90           90 
   80500    285.00634   -124.55135   -92.758467   -124.55135            0   -1521.4896    18.036445    21.244548     22.00442            0            0            0    8431.5681   -418.66051    370.33031   -4516.1386   -836.32575    1333.4039    4567.8194    18.036445    21.244548     22.00442           90           90           90 
   81000    262.09251   -122.80687   -93.570053   -122.80687            0    1296.0595     17.96376    21.158936    21.915745            0            0            0    8330.0442    4080.7238    543.55688   -736.10214     2053.028   -246.08708   -1382.1305     17.96376    21.158936    21.915745           90           90           90 
   81500    260.78987    -122.3782   -93.286693    -122.3782            0    -1372.118     17.97185    21.168465    21.925615            0            0            0    8341.3036   -4525.0947   -3983.6564    4392.3972   -1697.8839    1725.7199    1088.6555     17.97185    21.168465    21.925615           90           90           90 
   82000    265.67484   -123.23759   -93.601165   -123.23759            0    1133.1879     18.01081    21.214354    21.973146            0            0            0    8395.6691    550.63991   -2170.2889    5019.2126   -948.05118   -797.42928   -1877.3625     18.01081    21.214354    21.973146           90           90           90 
   82500     275.0153   -122.04056   -91.362186   -122.04056            0    703.60776    18.084327    21.300948    22.062837            0            0            0    8498.8985   -1801.9196    1579.3531    2333.3898   -965.92769   -80.416933    32.731155    18.084327    21.300948    22.062837           90           90           90 
   83000    271.12634   -121.25991    -91.01536   -121.25991            0   -1217.7234    18.130922     21.35583    22.119681            0            0            0      8564.76   -1855.1105   -2649.2761    851.21647    -1238.776    2694.0828     -1716.16    18.130922     21.35583    22.119681           90           90           90 
   83500     258.7669   -121.45093   -92.585097   -121.45093            0    2385.6402    18.002922    21.205063    21.963522            0            0            0    8384.6427    2907.4036    746.01541    3503.5016   -413.25141   -4037.2853    566.89301    18.002922    21.205063    21.963522           90           90           90 
   84000    281.26404   -121.93812   -90.562689   -121.93812            0   -70.479163    18.086907    21.303986    22.065983            0            0            0    8502.5355   -1387.2593    55.390649    1120.4311    442.19702    434.53064    89.130256    18.086907    21.303986    22.065983           90           90           90 
   84500    284.93537   -123.99885   -92.213882   -123.99885            0    1333.5666    18.133802    21.359223    22.123196            0            0            0    8568.8429    808.34558    1363.7941    1828.5601    1253.2736   -347.78434    480.31937    18.133802    21.359223    22.123196           90           90           90 
   85000    276.68316   -124.95869   -94.094267   -124.95869            0   -1737.3895    18.124609    21.348394     22.11198            0            0            0    8555.8166   -1628.5872   -899.73134     -2683.85   -2757.7613    2604.5376    1143.4906    18.124609    21.348394     22.11198           90           90           90 
   85500    283.45798   -124.10392   -92.483752   -124.10392            0   -36.244905    18.119556    21.342443    22.105815            0            0            0    8548.6634    967.73932   -2608.4479    1531.9738    16.078864   -220.63152   -30.143437    18.119556    21.342443    22.105815           90           90           90 
   86000    270.14781   -123.92804   -93.792646   -123.92804            0   -1986.5687    18.137471    21.363544    22.127671            0            0            0    8574.0443   -1088.1057   -1321.4723    -3550.128   -341.53949    1584.0765   -12.412022    18.137471    21.363544    22.127671           90           90           90 
   86500    262.88828   -123.46926   -94.143674   -123.46926            0    702.05236    18.122276    21.345646    22.109134            0            0            0    8552.5136    461.72696   -133.52723    1777.9573   -2862.3746   -123.38013    344.08498    18.122276    21.345646    22.109134           90           90           90 
   87000    256.16915    -123.5845   -95.008447    -123.5845            0    1400.2077     18.05865    21.270703     22.03151            0            0            0    8462.7472     2576.347   -803.74223    2428.0184   -746.05714   -1357.5354    1663.2447     18.05865    21.270703     22.03151           90           90           90 
   87500    269.54186   -123.98388   -93.916081   -123.98388            0   -1556.4262    18.108301    21.329186    22.092085            0            0            0    8532.7436   -3309.8145    930.67787    -2290.142   -694.03056   -907.71639    1793.2456    18.108301    21.329186    22.092085           90           90           90 
   88000    271.56129   -123.99481   -93.701735   -123.99481            0   -3618.7703    18.145039    21.372458    22.136905            0            0            0     8584.782   -1708.6928   -4242.1706   -4905.4475   -1322.4823    68.010966    614.52311    18.145039    21.372458    22.136905           90           90           90 
   88500    269.24656   -126.04558   -96.010725   -126.04558            0    3501.9217    18.090906    21.308697    22.070863            0            0            0     8508.177    4113.7312    3596.2041    2795.8298   -1863.0094    728.46324    253.11604    18.090906    21.308697    22.070863           90           90           90 
   89000    262.32542    -127.1336   -97.870809    -127.1336            0    603.40924    18.175888    21.408794     22.17454            0            0            0    8628.6425    225.30375    1521.8628    63.061208   -335.93939   -1822.3065   -247.28697    18.175888    21.408794     22.17454           90           90           90 
   89500    261.37711   -127.35621   -98.199197   -127.35621            0    1451.9233    18.216502    21.456632    22.224089            0            0            0    8686.6134    2100.7683    1271.7044    983.29727   -501.62847    1262.2327    1603.2325    18.216502    21.456632    22.224089           90           90           90 
   90000    265.02908   -128.40086   -98.836462   -128.40086            0    2945.5183    18.114051    21.335959    22.099099            0            0            0    8540.8741    3003.6129    1291.8803    4541.0617    710.62003   -1879.9739    1069.0899    18.114051    21.335959    22.099099           90           90           90 
   90500    267.48794   -126.46822   -96.629537   -126.46822            0   -524.12303    18.113447    21.335247    22.098362            0            0            0    8540.0195   -1477.7973    352.54764    -447.1194    961.00696    1055.9169    338.84378    18.113447    21.335247    22.098362           90           90           90 
   91000    267.41182   -126.11873   -96.288539   -126.11873            0   -2201.5174    18.209448    21.448324    22.215484            0            0            0    8676.5267   -1889.0504   -4986.9451    271.44335    1056.1222    18.298981   -540.42655    18.209448    21.448324    22.215484           90           90           90 
   91500    261.03423   -126.72714   -97.608374   -126.72714            0   -32.280072    18.086572    21.303592    22.065576            0            0            0     8502.064    428.27256   -273.70056   -251.41222   -1241.5627   -852.02743    1052.5413    18.086572    21.303592    22.065576           90           90           90 
   92000    265.67823   -125.58305   -95.946247   -125.58305            0    190.92558    18.042503    21.251685    22.011811            0            0            0    8440.0679   -11.660471    2203.6798   -1619.2426   -990.76639    1276.4356    817.62645    18.042503    21.251685    22.011811           90           90           90 
   92500    268.07136   -125.46299   -95.559227   -125.46299            0    -713.4141    18.211702    21.450979    22.218234            0            0            0    8679.7494     -460.895   -811.80962   -867.53767    511.79845      1285.25    2297.4509    18.211702    21.450979    22.218234           90           90           90 
   93000    267.81169   -124.61979   -94.744988   -124.61979            0    1168.5035     18.27261    21.522719     22.29254            0            0            0    8767.1267   -198.21322    3439.0832    264.64042    338.60054    1055.6628   -805.85112     18.27261    21.522719     22.29254           90           90           90 
   93500    264.74402   -124.51995   -94.987361   -124.51995            0    390.51809    18.243354     21.48826    22.256849            0            0            0    8725.0839    1938.3353    1523.7267   -2290.5077   -1828.0979    1130.5936   -1399.3435    18.243354     21.48826    22.256849           90           90           90 
   94000    261.06841   -125.08589   -95.963315   -125.08589            0    2709.5325    18.126111    21.350164    22.113813            0            0            0    8557.9448    3574.3067    2815.7563    1738.5346   -1377.1853    1711.0158   -2614.1763    18.126111    21.350164    22.113813           90           90           90 
   94500    268.01513    -125.9546   -96.057105    -125.9546            0   -982.37872    18.194664     21.43091    22.197447            0            0            0     8655.411   -1077.9827   -2740.4997    871.34616   -882.60926    1319.0532    25.559867    18.194664     21.43091    22.197447           90           90           90 
   95000     251.7396   -125.35928   -97.277347   -125.35928            0    2294.8183    18.175085    21.407848     22.17356            0            0            0    8627.4983    3367.0924   -713.41591    4230.7783    774.17055    406.28268   -2340.5151    18.175085    21.407848     22.17356           90           90           90 
   95500    264.69786   -124.15952   -94.632076   -124.15952            0    1534.6702    18.105562    21.325959    22.088743            0            0            0    8528.8715    4042.7483   -1448.1663    2009.4286    761.89206    405.22411     4836.337    18.105562    21.325959    22.088743           90           90           90 
   96000     268.1563   -122.92982   -93.016581   -122.92982            0    489.75947    18.167449    21.398854    22.164245            0            0            0     8616.629     1097.076   -754.24189    1126.4443    751.62969   -1124.0863   -1018.3171    18.167449    21.398854    22.164245           90           90           90 
   96500    274.23732   -123.40403   -92.812442   -123.40403            0   -3983.6362    18.168092    21.399611    22.165029            0            0            0    8617.5437   -3407.3347   -3724.9258   -4818.6481    729.89331     2007.669   -704.80678    18.168092    21.399611    22.165029           90           90           90 
   97000    269.44963    -124.4083   -94.350784    -124.4083            0    3214.1572    17.994457    21.195093    21.953195            0            0            0    8372.8212    3378.3799    396.35703    5867.7347   -1160.6226    687.54708   -998.43203    17.994457    21.195093    21.953195           90           90           90 
   97500    273.17962   -125.54459   -95.070995   -125.54459            0   -3000.0512    18.122426    21.345823    22.109317            0            0            0     8552.726   -6096.9292   -1352.2361   -1550.9882    125.42914   -527.15093    1677.7755    18.122426    21.345823    22.109317           90           90           90 
   98000    263.97635   -124.75963    -95.31267   -124.75963            0   -1466.7912    18.256379    21.503602    22.272739            0            0            0     8743.785   -663.11122   -804.04585   -2933.2166   -623.01462    3986.7495   -341.48824    18.256379    21.503602    22.272739           90           90           90 
   98500     265.2177   -124.14843   -94.562994   -124.14843            0   -78.808885    18.230518    21.473142    22.241189            0            0            0    8706.6806   -1146.7802    2473.8988   -1563.5453   -1009.1971   -931.81733    1922.9489    18.230518    21.473142    22.241189           90           90           90 
   99000    274.84527   -125.88019   -95.220784   -125.88019            0   -2151.8139    18.205378     21.44353    22.210518            0            0            0    8670.7101    -2808.867   -2196.4266   -1450.1481   -213.31732   -1286.9638    1063.9896    18.205378     21.44353    22.210518           90           90           90 
   99500    273.93642   -123.49023    -92.93221   -123.49023            0    457.55561    18.188817    21.424023    22.190314            0            0            0    8647.0687    4562.0059   -3119.1345   -70.204564   -1629.3576    2711.2266    770.22811    18.188817    21.424023    22.190314           90           90           90 
  100000    281.85172    -126.0221   -94.581119    -126.0221            0    99.951224    18.157912    21.387621     22.15261            0            0            0     8603.067    1522.1198   -907.45576   -314.81041   -1942.4956   -640.89084    2146.9631    18.157912    21.387621     22.15261           90           90           90 
  100500    267.23762   -123.72281   -93.912055   -123.72281            0    93.430908    18.145769    21.373318    22.137795            0            0            0    8585.8184    1577.1509   -1094.0016   -202.85658    1506.9235    -994.3402    2272.7759    18.145769    21.373318    22.137795           90           90           90 
  101000    264.04754   -124.69257   -95.237669   -124.69257            0   -3307.3528       18.147    21.374768    22.139297            0            0            0    8587.5657   -4627.4762   -2986.5993   -2307.9828   -80.373221   -394.44427   -382.71696       18.147    21.374768    22.139297           90           90           90 
  101500    264.47285   -124.59348   -95.091136   -124.59348            0    994.29998    18.108255    21.329132    22.092028            0            0            0    8532.6784    2213.7911    46.832861    722.27597   -1496.9076    208.39798    296.03765    18.108255    21.329132    22.092028           90           90           90 
  102000     267.0006   -124.85466    -95.07034   -124.85466            0   -1097.6388    18.079466    21.295222    22.056906            0            0            0    8492.0467   -1932.1549   -231.35883   -1129.4027   -2287.6757    1672.3552    1989.5251    18.079466    21.295222    22.056906           90           90           90 
  102500    259.79708   -125.11182   -96.131065   -125.11182            0    -7.674952    18.135785    21.361559    22.125615            0            0            0    8571.6547   -2655.3892    3182.6485   -550.28416   -726.68035   -1131.5117   -1639.9441    18.135785    21.361559    22.125615           90           90           90 
  103000    265.49745   -123.61151    -93.99487   -123.61151            0   -4361.9594    18.306657    21.562823    22.334078            0            0            0    8816.2252   -3671.1864   -6000.9362   -3413.7558    1058.1429    965.37545     2530.495    18.306657    21.562823    22.334078           90           90           90 
  103500    268.94599   -125.42288   -95.421548   -125.42288            0    1168.3742    18.173304    21.405751    22.171388            0            0            0     8624.963   -1283.3065    3990.2631    798.16599   -660.29832    320.49279   -3466.9276    18.173304    21.405751    22.171388           90           90           90 
  104000    275.39246   -124.64974   -93.929298   -124.64974            0   -1763.3454    18.200443    21.437717    22.204497            0            0            0    8663.6606   -3357.5713   -1417.5328   -514.93206   -2326.2814    -299.6307    2566.9942    18.200443    21.437717    22.204497           90           90           90 
  104500    264.47327   -124.31349   -94.811102   -124.31349            0   -783.89242     18.13598    21.361787    22.125852            0            0            0    8571.9299     -671.242    501.22509   -2181.6604   -1775.6728    849.81658     1508.749     18.13598    21.361787    22.125852           90           90           90 
  105000    269.06226   -123.15906   -93.144759   -123.15906            0    716.16246    18.129134    21.353724      22.1175            0            0            0    8562.2265     3609.394    886.29695   -2347.2036    1176.2036    995.88547    1039.2177    18.129134    21.353724      22.1175           90           90           90 
  105500    275.75748   -124.02841   -93.267252   -124.02841            0    2470.1621    18.223905    21.465352    22.233121            0            0            0    8697.2086    1891.1974    2852.1237    2667.1652    736.01092   -1697.8326   -953.82363    18.223905    21.465352    22.233121           90           90           90 
  106000    269.54734   -123.97057   -93.902162   -123.97057            0   -4076.7973    18.314076    21.571561    22.343129            0            0            0    8826.9481   -2384.3183   -3769.9479   -6076.1258   -385.67005    -706.7746    607.48278    18.314076    21.571561    22.343129           90           90           90 
  106500    257.36035   -122.92017   -94.211238   -122.92017            0    2323.4575    18.164265    21.395104    22.160361            0            0            0    8612.1002    2629.0274    2227.4302    2113.9149   -925.65483   -3115.9793   -1312.3064    18.164265    21.395104    22.160361           90           90           90 
  107000    271.70499   -124.73926   -94.430163   -124.73926            0   -667.21284    18.172281    21.404546     22.17014            0            0            0    8623.5063    852.02071   -1164.8443   -1688.8149     11.57302    2053.2025   -1389.2565    18.172281    21.404546     22.17014           90           90           90 
  107500    255.59253   -122.46896   -93.957229   -122.46896            0   -208.17954    18.144267    21.371549    22.135963            0            0            0    8583.6864   -1994.3727     1757.209   -387.37497   -1366.3259   -707.77943   -831.36444    18.144267    21.371549    22.135963           90           90           90 
  108000    270.12625   -123.66723   -93.534236   -123.66723            0    2678.8775    18.161168    21.391456    22.156582            0            0            0    8607.6951    2355.5682    3774.7709    1906.2936   -443.38365   -109.44317   -1711.7953    18.161168    21.391456    22.156582           90           90           90 
  108500    282.71824   -124.44874   -92.911093   -124.44874            0    70.196365     18.10662    21.327205    22.090033            0            0            0    8530.3664    2422.6739   -441.77422   -1770.3106   -1462.2274   -568.19517   -1401.1567     18.10662    21.327205    22.090033           90           90           90 
  109000    266.61718   -123.96758   -94.226029   -123.96758            0   -925.73649    18.055855    21.267412    22.028101            0            0            0    8458.8196   -990.18983   -1646.6549   -140.36469   -715.88935   -1050.5077    1510.1826    18.055855    21.267412    22.028101           90           90           90 
  109500    266.11299   -123.39677   -93.711468   -123.39677            0   -1036.9481    18.071636    21.285999    22.047353            0            0            0    8481.0178   -2502.9881    433.31243   -1041.1687   -2109.0725    1094.6412    182.36089    18.071636    21.285999    22.047353           90           90           90 
  110000    267.61037   -124.24023   -94.387893   -124.24023            0    1168.7726    18.114485     21.33647    22.099629            0            0            0     8541.488    1305.0332    -798.1413     2999.426   -1881.4059    684.49554   -294.40645    18.114485     21.33647    22.099629           90           90           90 
  110500    255.35713   -123.94161   -95.456141   -123.94161            0    711.03097    18.088228    21.305542    22.067595            0            0            0    8504.3987   -1329.9298    2269.3278    1193.6949   -2382.3229    2733.2922   -32.183289    18.088228    21.305542    22.067595           90           90           90 
  111000    269.37164   -123.93412   -93.885312   -123.93412            0    645.43883    18.087511    21.304697     22.06672            0            0            0    8503.3871    1724.6023   -474.89049    686.60466    2001.3148   -513.66379    824.50934    18.087511    21.304697     22.06672           90           90           90 
  111500    260.50376   -123.78514   -94.725554   -123.78514            0    774.74914    18.140441    21.367042    22.131295            0            0            0    8578.2573    280.67927    1179.0378    864.53032   -2960.4934   -1520.7269    2323.7663    18.140441    21.367042    22.131295           90           90           90 
[...]
 1973500    265.61465   -125.00771   -95.377992   -125.00771            0   -1741.6086    18.131765    21.356823     22.12071            0            0            0     8565.955   -1984.0445   -2050.8729   -1189.9083    2378.4092    -627.5675   -1249.1543    18.131765    21.356823     22.12071           90           90           90 
 1974000    272.61678   -125.24424   -94.833426   -125.24424            0    1811.9261    18.130492    21.355324    22.119157            0            0            0    8564.1513    2997.3955    4135.7303   -1697.3474    1139.0889   -75.569028   -359.92873    18.130492    21.355324    22.119157           90           90           90 
 1974500    270.27102   -125.91965   -95.770508   -125.91965            0    1673.7725    18.067311    21.280905    22.042076            0            0            0    8474.9295    705.35782    3830.5206    485.43894    2027.0008    1692.7626    680.03036    18.067311    21.280905    22.042076           90           90           90 
 1975000    251.36986   -124.07198   -96.031292   -124.07198            0   -657.85303    18.067856    21.281547    22.042742            0            0            0    8475.6973     1371.218   -4.7211743   -3340.0559   -4299.2028   -3754.9421    2581.3652    18.067856    21.281547    22.042742           90           90           90 
 1975500    265.04526   -125.10833   -95.542127   -125.10833            0   -3076.3886    18.042261    21.251399    22.011515            0            0            0    8439.7274   -6954.8552   -3288.2294    1013.9188    2120.0178    1463.1039   -548.47041    18.042261    21.251399    22.011515           90           90           90 
 1976000    263.33099   -124.21927   -94.844299   -124.21927            0    1216.2105    18.081009    21.297039    22.058788            0            0            0    8494.2204    3530.2613    907.08876   -788.71846   -1743.1002    -366.7597   -1757.0248    18.081009    21.297039    22.058788           90           90           90 
 1976500    281.04193   -125.51997   -94.169321   -125.51997            0   -1366.1242    18.021142    21.226524    21.985751            0            0            0    8410.1259   -2672.5374    -2083.098    657.26276   -1728.9937    622.68807   -853.05118    18.021142    21.226524    21.985751           90           90           90 
 1977000    268.29631   -124.67799   -94.749134   -124.67799            0     1017.098    18.072558    21.287085    22.048478            0            0            0    8482.3156    3026.3653   -869.38561    894.31429   -1173.9525   -1407.4105    1007.6333    18.072558    21.287085    22.048478           90           90           90 
 1977500    271.19976   -125.13487   -94.882124   -125.13487            0    709.78506    18.054757    21.266118    22.026761            0            0            0    8457.2763    83.430494     209.7064    1836.2183    588.32547    619.70178   -680.06414    18.054757    21.266118    22.026761           90           90           90 
 1978000    275.75855    -125.3404   -94.579122    -125.3404            0    -1632.627    18.116095    21.338366    22.101593            0            0            0    8543.7653    1453.4854    -5369.632   -981.73423   -3827.2235    1932.8053   -143.19215    18.116095    21.338366    22.101593           90           90           90 
 1978500    268.64373   -124.38909   -94.421475   -124.38909            0    1411.4236    18.147976    21.375918    22.140488            0            0            0    8588.9515     233.1907    3219.2788    781.80147    81.617293   -22.312423   -471.82188    18.147976    21.375918    22.140488           90           90           90 
 1979000    276.74218   -126.51354    -95.64253   -126.51354            0   -1506.7813    18.050153    21.260695    22.021144            0            0            0    8450.8078    1921.2009    -4133.817   -2307.7278   -332.48863    576.12834    1473.9281    18.050153    21.260695    22.021144           90           90           90 
 1979500    282.39969    -124.4264   -92.924287    -124.4264            0   -848.66473    18.042583    21.251779    22.011909            0            0            0      8440.18   -1110.8767   -930.67876   -504.43872   -925.49296    1237.5159    1970.7118    18.042583    21.251779    22.011909           90           90           90 
 1980000    266.43493   -123.64036   -93.919145   -123.64036            0    -596.7809    18.120603    21.343676    22.107093            0            0            0    8550.1451   -796.41438   -559.38917   -434.53916   -1189.0777   -1003.8963   -259.48002    18.120603    21.343676    22.107093           90           90           90 
 1980500    273.84578   -123.71837   -93.170462   -123.71837            0   -1788.8141     18.09947    21.318784    22.081311            0            0            0    8520.2661    -3407.535   -1237.4202   -721.48703   -2945.9815    2737.9837    420.80001     18.09947    21.318784    22.081311           90           90           90 
 1981000    281.61493   -123.71172    -92.29715   -123.71172            0    2287.4154    17.991206    21.191263    21.949228            0            0            0    8368.2831    976.19773     3147.665    2738.3834    921.58973    582.79722    1442.2119    17.991206    21.191263    21.949228           90           90           90 
 1981500    273.04627   -124.45073   -93.992005   -124.45073            0   -682.86687    18.067916    21.281618    22.042815            0            0            0    8475.7816   -3242.2808   -1593.7625    2787.4426    1907.8823   -2733.5832    1031.7348    18.067916    21.281618    22.042815           90           90           90 
 1982000    275.08326   -122.93284   -92.246886   -122.93284            0    1049.1411    18.141234    21.367977    22.132263            0            0            0    8579.3831   -1557.6334     1846.898    2858.1588    399.91181    -2036.027    1257.6333    18.141234    21.367977    22.132263           90           90           90 
 1982500    266.44997     -124.909   -95.186103     -124.909            0    -1569.479    18.167128    21.398476    22.163853            0            0            0    8616.1724   -1361.0162   -1555.2016   -1792.2193   -560.65119   -2266.8243    -287.1371    18.167128    21.398476    22.163853           90           90           90 
 1983000    268.60129   -124.36605   -94.403174   -124.36605            0    799.94528    18.070907    21.285141    22.046464            0            0            0    8479.9915    525.70972    -178.9151    2053.0412    3076.2221   -15.212736    968.74968    18.070907    21.285141    22.046464           90           90           90 
 1983500    268.54679   -124.72421   -94.767412   -124.72421            0   -912.66883    18.089639    21.307204    22.069317            0            0            0    8506.3894   -146.57884   -852.05243   -1739.3752   -2955.7504    2192.9385    1435.3756    18.089639    21.307204    22.069317           90           90           90 
 1984000    260.70846   -123.38728   -94.304863   -123.38728            0    204.66006    18.112931     21.33464    22.097733            0            0            0    8539.2904   -1781.9909    696.90781    1699.0633    3233.0395   -1346.1872    3686.9715    18.112931     21.33464    22.097733           90           90           90 
 1984500    293.80414   -125.62854   -92.854241   -125.62854            0    2371.6847    18.056502    21.268173     22.02889            0            0            0    8459.7284     2021.385    5078.0325     15.63668    1457.8944     715.2159     1193.634    18.056502    21.268173     22.02889           90           90           90 
 1985000     281.0918   -123.32447   -91.968261   -123.32447            0    2650.5107    17.930489    21.119747    21.875154            0            0            0    8283.8448   -604.54342    1659.4568    6896.6189    874.92626     863.1777    1476.5433    17.930489    21.119747    21.875154           90           90           90 
 1985500     274.3574   -124.49606   -93.891075   -124.49606            0     1070.794    17.945699    21.137663    21.893711            0            0            0    8304.9444    1964.0439     1351.732   -103.39388    1332.1311   -574.73116    -1746.301    17.945699    21.137663    21.893711           90           90           90 
 1986000    263.71771    -123.8835   -94.465397    -123.8835            0   -737.68931    18.023729    21.229571    21.988907            0            0            0    8413.7482    554.62759    949.72019   -3717.4157    2739.9559    1052.5585    591.67168    18.023729    21.229571    21.988907           90           90           90 
 1986500    275.45386   -123.61239   -92.885099   -123.61239            0   -2591.3531    17.987221     21.18657    21.944367            0            0            0    8362.7243   -834.68263   -6480.4884   -458.88811    1527.5212    578.42951    1369.7471    17.987221     21.18657    21.944367           90           90           90 
 1987000    273.12238   -125.00465    -94.53744   -125.00465            0   -1242.2693    17.991274    21.191344    21.949312            0            0            0    8368.3787   -1475.4703   -907.55201   -1343.7857   -2343.3071    652.16823   -562.46759    17.991274    21.191344    21.949312           90           90           90 
 1987500    268.78564   -125.33996   -95.356521   -125.33996            0   -3408.2844    18.082377     21.29865    22.060457            0            0            0    8496.1485   -2812.8427   -5999.1202   -1412.8903    1359.6815   -653.19235    2472.5645    18.082377     21.29865    22.060457           90           90           90 
 1988000    289.44637   -122.34132   -90.053145   -122.34132            0    952.61627    18.091304    21.309166    22.071349            0            0            0    8508.7391    1877.0055    2335.5372   -1354.6939   -657.33616   -1223.3056    114.38617    18.091304    21.309166    22.071349           90           90           90 
 1988500    276.34409   -122.92757   -92.100975   -122.92757            0    -1634.551    18.174548    21.407216    22.172905            0            0            0    8626.7339   -2276.5223   -4518.2967     1891.166    602.25216   -1517.6523     899.8329    18.174548    21.407216    22.172905           90           90           90 
 1989000    265.65856   -124.26501   -94.630394   -124.26501            0    374.84388    18.147137    21.374929    22.139464            0            0            0    8587.7597     325.4968   -1793.7961     2592.831    -378.9389    -466.2569   -14.383424    18.147137    21.374929    22.139464           90           90           90 
 1989500    266.90391   -124.95498   -95.181443   -124.95498            0    1059.9995    18.136423    21.362309    22.126393            0            0            0    8572.5582    218.93643    1487.9129    1473.1491    2060.4643   -859.94284    1481.9079    18.136423    21.362309    22.126393           90           90           90 
 1990000    261.03468    -123.0779   -93.959087    -123.0779            0   -2518.8805    18.099917    21.319311    22.081856            0            0            0    8520.8974   -2374.3209   -2543.7042   -2638.6165    3028.0257   -61.333805   -278.54912    18.099917    21.319311    22.081856           90           90           90 
 1990500    269.83659   -124.37346   -94.272783   -124.37346            0   -2275.5643     18.09481    21.313295    22.075625            0            0            0    8513.6858   -2939.6427   -3328.4963    -558.5539    1293.2951   -2235.3824    1130.0942     18.09481    21.313295    22.075625           90           90           90 
 1991000    254.89465   -125.54642   -97.112542   -125.54642            0   -1197.8998    18.019766    21.224903    21.984072            0            0            0    8408.1995    -2359.073   -1613.3968    378.77044    2119.0484   -917.09974   -1490.5441    18.019766    21.224903    21.984072           90           90           90 
 1991500    275.88777   -124.43938   -93.663685   -124.43938            0    861.29816    17.965505     21.16099    21.917873            0            0            0    8332.4711    2973.8667   -1706.5092     1316.537    606.50347   -597.47757    2658.5828    17.965505     21.16099    21.917873           90           90           90 
 1992000    266.82262   -124.26996   -94.505495   -124.26996            0    1231.1237    18.009313    21.212591    21.971319            0            0            0    8393.5754     1250.379     1744.817    698.17509    1728.8112    693.17094    1040.3178    18.009313    21.212591    21.971319           90           90           90 
 1992500    257.78481   -122.92035   -94.164062   -122.92035            0   -1081.1478    17.982741    21.181293    21.938901            0            0            0    8356.4771   -588.97166   -114.67628   -2539.7953    648.56172   -1053.0851   -86.226932    17.982741    21.181293    21.938901           90           90           90 
 1993000     273.1248   -124.45035    -93.98287   -124.45035            0   -983.97914    17.942121    21.133448    21.889345            0            0            0    8299.9775   -1199.0788   -936.03253   -816.82613   -691.91257    1088.2599    1609.3055    17.942121    21.133448    21.889345           90           90           90 
 1993500    263.35954   -123.61255   -94.234402   -123.61255            0    1157.8144    17.929251    21.118288    21.873644            0            0            0    8282.1289    1057.2077    150.63456    2265.6009   -37.344451   -671.08641    276.45227    17.929251    21.118288    21.873644           90           90           90 
 1994000    260.55777   -123.54624   -94.480629   -123.54624            0     278.8038    17.986883    21.186172    21.943955            0            0            0    8362.2529    995.98789   -447.52351    287.94703    706.41624   -532.73162    1520.8951    17.986883    21.186172    21.943955           90           90           90 
 1994500     268.8555   -125.23537   -95.244135   -125.23537            0   -1155.5801    18.040553    21.249387    22.009432            0            0            0    8437.3309   -3102.7902   -1106.7044    742.75421    1484.5267    3013.3605    686.91405    18.040553    21.249387    22.009432           90           90           90 
 1995000    273.54402   -126.17794    -95.66369   -126.17794            0    1135.0909    17.970759    21.167179    21.924283            0            0            0    8339.7838    1384.1489    422.48834    1598.6355   -1116.4263    572.80379   -1299.7598    17.970759    21.167179    21.924283           90           90           90 
 1995500    255.44577   -125.30355   -96.808192   -125.30355            0   -1117.0193    17.938139    21.128757    21.884487            0            0            0    8294.4517    -621.1446   -1199.0873    -1530.826    1777.3452    888.16811    -2205.292    17.938139    21.128757    21.884487           90           90           90 
 1996000    263.62861   -124.37446    -94.96629   -124.37446            0    2662.5012    18.015507    21.219887    21.978876            0            0            0    8402.2394    1717.7422    1739.4878    4530.2737    491.15403    946.60729    635.33622    18.015507    21.219887    21.978876           90           90           90 
 1996500    276.57296    -125.0144   -94.162268    -125.0144            0   -1220.6835    18.065549    21.278829    22.039927            0            0            0    8472.4503    920.39914   -4138.6487     -443.801   -921.21699   -108.71806   -2437.7419    18.065549    21.278829    22.039927           90           90           90 
 1997000    260.02988   -123.51506   -94.508336   -123.51506            0    -109.3604    18.043073    21.252356    22.012507            0            0            0    8440.8678   -74.411045    2456.2715   -2709.9416    681.98711    835.11605   -11.224421    18.043073    21.252356    22.012507           90           90           90 
 1997500    275.39943   -124.40656   -93.685337   -124.40656            0    153.43675    18.055474    21.266962    22.027635            0            0            0    8458.2829     3752.455   -2896.7118   -395.43292   -22.177469    1846.4823   -983.92305    18.055474    21.266962    22.027635           90           90           90 
 1998000    268.46995   -123.92709   -93.978861   -123.92709            0    -420.9879    18.138264    21.364478    22.128639            0            0            0    8575.1697   -2131.0265    3211.4201   -2343.3572    2157.0489    1730.0102    828.02419    18.138264    21.364478    22.128639           90           90           90 
 1998500    262.94319   -123.35265   -94.020941   -123.35265            0   -514.97125    18.075706    21.290793    22.052318            0            0            0    8486.7485   -1750.5162   -1042.5956    1248.1981   -41.943526   -1009.4104   -241.80593    18.075706    21.290793    22.052318           90           90           90 
 1999000    263.18173   -125.12471   -95.766397   -125.12471            0    1521.4502    17.975994    21.173346    21.930671            0            0            0    8347.0752    1774.9061     2690.655    98.789552    369.40236    1337.8569   -1113.2528    17.975994    21.173346    21.930671           90           90           90 
 1999500    267.82143   -124.17172    -94.29584   -124.17172            0   -1767.8332    18.032464     21.23986    21.999564            0            0            0    8425.9873   -3379.0392   -1793.8923    -130.5681   -564.92349   -544.02069    665.24677    18.032464     21.23986    21.999564           90           90           90 
 2000000    273.96622   -122.90899   -92.347648   -122.90899            0    2076.8577    18.061283    21.273805    22.034723            0            0            0    8466.4504    2766.1621    2402.3783    1062.0329    1674.9988    421.08358   -1275.0094    18.061283    21.273805    22.034723           90           90           90 
Loop time of 10901.5 on 1 procs for 2000000 steps with 864 atoms

Performance: 7.925 ns/day, 3.028 hours/ns, 183.460 timesteps/s
73.4% CPU use with 1 MPI tasks x 1 OpenMP threads

MPI task timing breakdown:
Section |  min time  |  avg time  |  max time  |%varavg| %total
---------------------------------------------------------------
Pair    | 9494.5     | 9494.5     | 9494.5     |   0.0 | 87.09
Bond    | 0.36644    | 0.36644    | 0.36644    |   0.0 |  0.00
Neigh   | 1276.5     | 1276.5     | 1276.5     |   0.0 | 11.71
Comm    | 44.138     | 44.138     | 44.138     |   0.0 |  0.40
Output  | 15.081     | 15.081     | 15.081     |   0.0 |  0.14
Modify  | 62.519     | 62.519     | 62.519     |   0.0 |  0.57
Other   |            | 8.39       |            |       |  0.08

Nlocal:        864.000 ave         864 max         864 min
Histogram: 1 0 0 0 0 0 0 0 0 0
Nghost:        4140.00 ave        4140 max        4140 min
Histogram: 1 0 0 0 0 0 0 0 0 0
Neighs:         0.00000 ave           0 max           0 min
Histogram: 1 0 0 0 0 0 0 0 0 0
FullNghs:      188788.0 ave      188788 max      188788 min
Histogram: 1 0 0 0 0 0 0 0 0 0

Total # of neighbors = 188788
Ave neighs/atom = 218.50463
Ave special neighs/atom = 0.0000000
Neighbor list builds = 200000
Dangerous builds not checked

unfix		3
unfix		2

write_data	data.final.${pid}
write_data	data.final.0
System init for write_data ...

write_restart   restart.lmp.${pid}
write_restart   restart.lmp.0
System init for write_restart ...
Unloading pair style deepmd
Unloading compute style deepmd
Unloading fix style deepmd
Total wall time: 3:01:46
