LAMMPS data file via write_data, version 29 Sep 2021, timestep = 1000000

864 atoms
2 atom types

0.4991389863071749 17.708434013693015 xlo xhi
0.5879197684021893 20.85819523159671 ylo yhi
0.6089483828552158 21.604247617145113 zlo zhi

Masses

1 1.008
2 15.999

Atoms # full

516 0 2 0.5897 1.4556461675789278 1.7261838701307766 3.5870958546856264 0 1 0
514 0 1 -1.1794 1.0931568591678102 2.5210479421902376 4.092944532047625 0 1 0
662 0 2 0.5897 3.8850620151046975 3.551320185390068 2.972673342993763 0 0 0
661 0 1 -1.1794 4.639968559066511 3.2112170562084708 2.4426875924381295 0 0 0
198 0 2 0.5897 1.7579586400673317 3.9594571113062758 3.374553489408487 0 0 0
196 0 1 -1.1794 2.4198327404710054 4.622026211462857 3.13985487823415 0 0 0
530 0 2 0.5897 1.1268540255444832 3.2584640716255198 0.7242602337856924 0 0 0
663 0 2 0.5897 4.848614308350508 2.3338403483848453 2.85079214375142 0 0 0
847 0 1 -1.1794 5.725085820160137 1.0361180633916207 3.6733072164061853 0 1 0
525 0 2 0.5897 8.59703570746538 3.735498905217887 2.047497505568262 0 1 1
849 0 2 0.5897 6.520996972649525 0.8819328305515759 3.028461854145248 0 1 0
32 0 2 0.5897 7.519312674514107 1.8110256912625646 1.2240141788186039 0 1 1
234 0 2 0.5897 8.132036174982913 4.023843813336519 4.302696875591838 0 0 1
185 0 2 0.5897 6.316177737353332 3.857963677676467 2.7276312503720552 0 0 0
817 0 1 -1.1794 8.368080392892825 0.9939841765659017 2.7871616887898156 0 1 0
184 0 1 -1.1794 7.135534008207114 4.357271413534841 2.857470787982302 0 0 0
44 0 2 0.5897 5.0188195712050865 1.156994291884714 0.7779300667097302 0 1 0
31 0 1 -1.1794 6.689945833027748 1.8516615435078922 0.7046661602985508 0 1 1
818 0 2 0.5897 9.189451795323338 1.5680951250651096 2.745383530739005 0 1 0
523 0 1 -1.1794 9.525185459703037 3.390302671391902 1.787249516322503 0 1 1
282 0 2 0.5897 10.75863252686229 1.8109832835803925 3.7415404734966833 0 0 0
146 0 2 0.5897 12.309620880210046 0.9879067318825507 2.333270844610522 0 1 0
264 0 2 0.5897 10.956767180315003 4.248790056839997 2.6259217624854707 0 1 0
145 0 1 -1.1794 11.440690236583102 0.7003419933466263 2.7330735703446614 0 1 0
524 0 2 0.5897 9.80197895476352 3.9181915763608255 1.0105054951650252 0 1 1
263 0 2 0.5897 12.425619282805954 4.562630326650304 2.9251067849436287 0 0 0
280 0 1 -1.1794 10.494382714435325 2.032046106627032 4.637360645987277 0 0 0
281 0 2 0.5897 9.758761494829868 2.6057286568000544 4.698201498659102 0 0 1
148 0 1 -1.1794 13.954208475744002 3.812326766196973 2.5009766823867707 -1 0 0
150 0 2 0.5897 13.895833151939083 3.24659727357915 1.6857307105750177 -1 0 0
531 0 2 0.5897 17.203101163502232 4.07845327269066 1.5156354874626388 -1 0 0
515 0 2 0.5897 17.330521671402515 2.453663133319157 4.063212300224391 -1 1 0
403 0 1 -1.1794 15.590964867402851 1.991167399448148 4.031913230306988 0 1 1
153 0 2 0.5897 15.94639748954406 1.168512102731098 2.450066648732856 0 1 0
404 0 2 0.5897 14.961277909871091 2.6150644082093555 3.62911804324183 0 1 1
149 0 2 0.5897 14.734011495671144 4.41122407085952 2.293413653825973 -1 0 0
151 0 1 -1.1794 16.260157878928332 1.0239443762369378 1.5107134082497367 0 0 0
680 0 2 0.5897 14.471320357943808 1.2224570209819479 1.0566747862816475 -1 1 1
152 0 2 0.5897 16.60707773385218 1.8802492903334198 1.3025911338825291 0 0 0
529 0 1 -1.1794 17.386415222111346 3.3828976919041702 0.8507526019684852 -1 0 0
679 0 1 -1.1794 13.532725510669035 1.4162346581321377 1.0957309742374057 -1 0 1
405 0 2 0.5897 15.068832826122328 1.249042903592065 4.433086326778589 0 1 1
207 0 2 0.5897 3.8284661874236274 6.782849129524683 3.203075686979782 0 0 0
197 0 2 0.5897 2.0766483141485104 5.100871371277191 2.4067480961561833 1 0 0
205 0 1 -1.1794 3.6968779291812264 6.741100944155973 4.190476827673689 0 0 0
80 0 2 0.5897 0.8699897220864412 6.559040213898061 0.9791319532021185 0 0 0
829 0 1 -1.1794 4.253493229630646 6.773373282245557 1.2710265263360456 0 0 1
830 0 2 0.5897 3.347416972269319 6.406906968863948 1.1819941733582664 0 0 1
79 0 1 -1.1794 1.6347040558724406 6.046043769020581 0.7487080775070747 0 0 0
562 0 1 -1.1794 0.6730774235055208 8.100682281907636 4.327306007770481 0 0 0
206 0 2 0.5897 2.9698664577735276 6.12503022033617 4.381494027560849 0 0 0
831 0 2 0.5897 4.849559135463839 6.09758056136917 0.8800875011655711 0 0 1
558 0 2 0.5897 6.656730043109929 7.664823460953846 2.828591347065251 0 0 0
186 0 2 0.5897 6.995836686691107 5.303096151985984 2.8228388032136444 0 0 0
557 0 2 0.5897 8.262230424486468 7.201525468820907 2.641596538704897 0 0 0
556 0 1 -1.1794 7.299472403548621 7.040853569027911 2.4697755164497224 0 0 0
735 0 2 0.5897 7.308177418321819 6.99940200466743 0.8326196815170736 0 0 0
262 0 1 -1.1794 11.504928974114758 4.969859139954086 2.9500471490033573 0 1 0
466 0 1 -1.1794 10.328261766636263 7.437107367741302 2.3303181679438962 0 0 0
468 0 2 0.5897 11.045462464532282 6.754343821250197 2.417709962227594 0 0 0
467 0 2 0.5897 10.580817641795567 8.074047065121848 2.9872514021323435 0 0 0
297 0 2 0.5897 10.76666746739465 8.437328094394323 0.9244492126069931 0 0 0
479 0 2 0.5897 10.810575537591658 5.539701920497254 4.661991029569713 0 0 0
292 0 1 -1.1794 16.32946582646425 5.227882965440108 2.5948920556336867 -1 0 0
349 0 1 -1.1794 13.55191033369845 7.1684394894061905 3.230039725144154 0 0 0
294 0 2 0.5897 16.367552665125444 5.105602941184447 3.5905563502968283 -1 0 0
351 0 2 0.5897 13.618955268063752 7.4454840712191155 2.327248391738302 0 0 0
341 0 2 0.5897 17.41053952182922 7.89765521053621 2.507212521804555 0 0 1
340 0 1 -1.1794 16.949662347017423 7.63382441172203 1.6793255164339806 0 0 0
293 0 2 0.5897 16.17929701677837 6.166468261425896 2.4059042649146924 -1 0 0
350 0 2 0.5897 14.05840142340751 7.814780222584274 3.750344289042364 0 0 0
342 0 2 0.5897 16.497202108918632 8.446818416962877 1.3641975463013432 0 0 0
99 0 2 0.5897 13.816488109099597 5.729072601314164 4.238511236641884 0 0 0
564 0 2 0.5897 17.14912877668541 8.613888364395473 4.6569732340464745 -1 0 0
672 0 2 0.5897 2.3192675322422964 8.824689643444861 3.4779644227101296 0 0 1
671 0 2 0.5897 2.7964416639088867 10.253753473065908 3.1209965049829598 0 0 1
670 0 1 -1.1794 2.944818046362094 9.33436962635601 2.957655524785465 0 0 1
654 0 2 0.5897 3.24245195687065 9.327240592469273 1.0872168509710507 0 0 0
635 0 2 0.5897 3.082011231853393 12.226342353157792 2.5331436756375005 1 0 1
284 0 2 0.5897 0.8383466130218358 11.645351281170342 3.140986631626971 1 0 1
130 0 1 -1.1794 4.520191592029839 12.195137221180715 0.9933589233651519 1 0 1
687 0 2 0.5897 4.6108121642621684 9.103891741270008 3.516004736268758 0 0 0
636 0 2 0.5897 3.1712896137477053 12.08655636913198 4.073883449247154 1 0 1
634 0 1 -1.1794 2.5336142449721066 12.093186645558582 3.3040395547916406 1 0 1
686 0 2 0.5897 6.0880400900646165 9.616341758366554 4.034721550844392 0 0 0
685 0 1 -1.1794 5.637352666694541 9.12398906979891 3.3793755043564797 0 0 0
798 0 2 0.5897 7.608588389772083 11.036970858396725 1.9196897315015582 0 0 0
598 0 1 -1.1794 8.619959868949248 11.649138287902412 3.258264268035515 0 0 0
796 0 1 -1.1794 6.889319303109515 10.71062069290573 1.350717588233118 0 0 0
797 0 2 0.5897 6.502215387713977 10.070955562479208 1.9132426825044921 0 0 0
131 0 2 0.5897 5.420644723317312 12.006050830982334 1.1824753251054412 1 0 1
600 0 2 0.5897 8.057077372180139 12.29990877890304 3.7102903266790452 0 0 0
72 0 2 0.5897 8.467339594880038 10.038505235247474 4.6400619413754365 0 0 0
498 0 2 0.5897 11.71913003811309 9.967210199504082 3.888436530385602 0 0 0
496 0 1 -1.1794 11.192152926134208 9.329404018581279 4.333776550068173 0 0 0
599 0 2 0.5897 9.559113302493067 11.930196154731087 3.436642974226622 0 0 0
843 0 2 0.5897 11.06905781160471 11.823522046049172 1.75171222318633 0 0 0
841 0 1 -1.1794 11.249913001182282 12.032607241880465 2.690668203412069 0 0 0
291 0 2 0.5897 12.654843859901353 11.62609757103723 3.4711406682939 0 0 0
289 0 1 -1.1794 13.3692294573542 11.243551314598983 4.062177827728009 0 -1 0
283 0 1 -1.1794 17.081962337551573 11.714440130564077 3.0899531931515694 0 0 1
285 0 2 0.5897 16.808701155138884 10.981658960843857 2.556820751788634 0 0 1
290 0 2 0.5897 13.619772889635001 11.970982472818863 4.607168196538864 0 -1 0
204 0 2 0.5897 15.07503316841175 10.29243559946954 0.6504288089459536 0 0 1
202 0 1 -1.1794 15.97083146915071 10.083026587180735 0.9401203569026305 0 0 1
569 0 2 0.5897 14.560710785875854 9.78721921300353 4.598750003887782 0 0 0
216 0 2 0.5897 16.612044055485555 11.918966872615709 4.797552489575142 0 0 0
568 0 1 -1.1794 15.11492623871517 8.948777783438656 4.644198147671575 0 0 0
839 0 2 0.5897 1.344193822117322 13.781144261275223 3.298260381555737 1 0 1
838 0 1 -1.1794 0.8184051110602034 14.403857028712293 3.78204934986804 1 0 1
650 0 2 0.5897 4.012775212618305 15.845820894548782 1.0835252348706632 0 0 0
651 0 2 0.5897 3.3041040746285524 16.1934675677524 2.360543466141631 0 0 0
649 0 1 -1.1794 4.229346106373988 16.02961617140052 2.010291477476031 0 0 0
137 0 2 0.5897 1.3138704644180044 15.210389811050144 0.760682555369011 0 0 0
840 0 2 0.5897 1.4860003981650092 15.030010853987296 4.1473925822718085 1 0 1
13 0 1 -1.1794 2.91782255281304 16.04857713837334 4.763861494855856 1 0 0
132 0 2 0.5897 4.584450307891384 13.100796260306259 0.6113345104581521 1 0 0
4 0 1 -1.1794 6.745879748230363 14.449496831496282 1.6875886709610914 0 0 0
5 0 2 0.5897 6.678847884865288 13.870605268009445 2.4276112061400994 0 0 0
6 0 2 0.5897 5.990187406101413 15.049187114681242 1.6833146332727849 0 0 0
120 0 2 0.5897 8.296978108333187 15.308654091691166 1.9029768610333386 0 -1 0
700 0 1 -1.1794 6.771768135327868 13.606554531211826 4.224376214368615 0 0 0
702 0 2 0.5897 5.992051158865647 13.422961438973493 4.775944831126317 0 0 0
701 0 2 0.5897 7.149275541690212 14.351301389806752 4.6755327013141965 0 0 0
119 0 2 0.5897 9.092469809431606 15.66911228243831 3.144176223529434 0 -1 0
328 0 1 -1.1794 8.685756240537712 15.395426552825766 4.776656768535133 0 0 0
842 0 2 0.5897 11.429003201838901 12.975971393156533 2.672156521503473 0 0 0
118 0 1 -1.1794 9.127090225273985 15.725089346879262 2.1685078091559125 0 -1 0
86 0 2 0.5897 12.517035902055992 15.337023222767616 2.333340016549035 0 0 0
85 0 1 -1.1794 11.791213800592855 14.786472128870475 2.657986406604638 0 0 0
87 0 2 0.5897 10.987419228146853 15.140404072157345 2.267444977162112 0 0 0
8 0 2 0.5897 12.783406254780026 13.63214480260819 1.2206019014076475 0 0 1
771 0 2 0.5897 12.368566258793653 16.226149308882206 4.134747302928663 0 0 0
495 0 2 0.5897 16.049061276576307 13.228511605043185 2.3372627263246915 0 0 0
27 0 2 0.5897 14.558949753596455 16.071764482774753 3.5298821973107177 0 0 0
26 0 2 0.5897 14.811227745201043 15.60843987276272 2.1806752822416873 0 0 0
107 0 2 0.5897 16.177136761351434 14.81676386849521 4.523289614262717 -1 0 0
493 0 1 -1.1794 15.74385804734407 14.021646144175358 1.859541150310674 0 0 1
494 0 2 0.5897 14.904500500107835 13.819376324781564 1.4263027475936338 0 0 1
138 0 2 0.5897 17.43428068464275 14.187143086210913 1.1043856859981545 -1 0 0
25 0 1 -1.1794 14.232938292630081 16.27767336570647 2.6161793409643437 0 0 0
356 0 2 0.5897 2.6968000805317347 20.465292523768397 1.9434025999570845 0 -1 0
355 0 1 -1.1794 2.413705966072831 20.34024876488327 2.886586668196697 0 -1 0
357 0 2 0.5897 1.6385818547102116 19.748168849611552 2.8246370603898434 0 -1 0
740 0 2 0.5897 1.1537300579661693 17.64119790490929 1.0947848820310477 1 0 1
743 0 2 0.5897 3.3064848813162384 19.094720180333965 3.8318678377475237 0 0 0
742 0 1 -1.1794 3.833615954969573 18.77190765977673 4.511563527666729 0 0 0
15 0 2 0.5897 3.2502907343639817 16.967379435858767 4.591552605583814 1 0 0
848 0 2 0.5897 5.1749240765951825 20.4991339850828 3.673437771231991 0 -1 0
819 0 2 0.5897 8.564590279833979 20.368144166107747 2.437557365893083 0 0 0
854 0 2 0.5897 5.013126288023656 17.877955292888295 1.7156256050662546 0 0 0
52 0 1 -1.1794 6.453722150991304 17.758967371709097 3.731405152313919 0 -1 0
853 0 1 -1.1794 5.562137841203366 18.569824702828335 1.3932980838083024 0 0 0
585 0 2 0.5897 8.67636863967142 17.803324570683536 1.6967882400967762 0 0 1
584 0 2 0.5897 7.514286901749065 18.584351033030202 2.1505310620215585 0 0 1
583 0 1 -1.1794 8.382175228599142 18.699573401259137 1.7260443875459819 0 0 1
53 0 2 0.5897 5.506963271577451 17.724774619633948 4.046436218591074 0 -1 0
54 0 2 0.5897 6.99897851771982 17.10736662805145 4.13956032631072 0 -1 0
855 0 2 0.5897 4.9883814885138085 19.14486019806293 0.870419144070061 0 0 0
147 0 2 0.5897 11.04163546236674 20.550161206656767 1.9630649972817191 0 0 0
37 0 1 -1.1794 10.40981983045086 18.440628185905616 3.9108566773004476 0 0 0
39 0 2 0.5897 10.431116305813552 19.41126006262793 3.6847783780130334 0 0 0
546 0 2 0.5897 12.115006775499252 18.286537650074933 1.8766652299297402 0 0 0
38 0 2 0.5897 9.693775598325464 18.31013980003737 4.506659438113962 0 0 0
544 0 1 -1.1794 11.585617306564261 17.639970191942062 1.4305950097593634 0 0 0
545 0 2 0.5897 10.94372753944904 17.38972159064201 2.089871492477355 0 0 1
696 0 2 0.5897 9.344673420917758 19.5082571003798 0.7712483202028713 0 0 0
430 0 1 -1.1794 17.39349750106296 18.657533216133032 2.3167586062919625 -1 0 0
192 0 2 0.5897 13.561346183508121 19.842457742690463 3.829779494275347 0 0 0
373 0 1 -1.1794 13.86343709312228 19.039237069991614 2.141327283705932 0 0 0
432 0 2 0.5897 17.040089358128128 19.41486282856235 1.7761328874897437 0 0 0
431 0 2 0.5897 17.002830467215 18.733418507698822 3.2548942526094846 0 0 0
374 0 2 0.5897 14.112821763750802 18.122035448043825 2.285252773295819 0 0 0
375 0 2 0.5897 13.97027164117913 19.092322715227454 1.1919194041748922 0 0 0
751 0 1 -1.1794 16.49371565667537 18.95231547837436 4.754329469592703 0 0 1
752 0 2 0.5897 15.537381518880059 19.268440994353917 4.690474577297755 -1 0 1
190 0 1 -1.1794 13.969683639490993 20.112626342487467 4.673337659172961 0 -1 0
165 0 2 0.5897 2.121303113815224 2.916367277501427 5.727269452338702 0 0 0
164 0 2 0.5897 3.478114773702292 3.1075925480959086 6.468089489362438 0 0 0
163 0 1 -1.1794 2.543592558339953 3.4673115639754033 6.434497024640509 0 0 0
336 0 2 0.5897 0.9642450806633038 2.8997707800008645 8.19051212473555 0 1 0
579 0 2 0.5897 4.688581798984081 3.8406203523914444 8.498374303602734 0 0 0
335 0 2 0.5897 1.8418019808123103 3.875830124366164 8.922518930487936 0 1 0
312 0 2 0.5897 5.589214315186534 3.0762060373177404 6.613842339661709 0 0 0
232 0 1 -1.1794 8.57872737662647 3.884987908865312 5.184156008223228 0 0 1
311 0 2 0.5897 5.697811899323019 2.523251760435549 5.151101298443452 0 0 0
310 0 1 -1.1794 5.612968200918525 3.2971362471410033 5.673917912744037 0 0 0
233 0 2 0.5897 7.9103666938470445 3.539035462389139 5.744053063885836 0 0 1
666 0 2 0.5897 8.81119014267363 2.1746622683955206 8.115839875094151 0 1 0
664 0 1 -1.1794 8.818417911975784 1.2420974881768134 7.794035040752721 0 1 0
437 0 2 0.5897 7.622830232881288 0.7323868047407045 6.608714746970348 0 0 0
370 0 1 -1.1794 7.982465901061145 4.036521189574563 8.558375224202816 0 0 0
372 0 2 0.5897 7.015838645915657 3.8805398226023784 8.656784032161825 0 0 0
577 0 1 -1.1794 5.359024333790326 3.135420072181833 8.317016547393115 0 0 0
578 0 2 0.5897 5.018078221514476 2.3309274023829643 8.744654935948784 0 0 0
665 0 2 0.5897 9.618179275768263 0.8620593269629724 8.143737649617329 0 1 0
225 0 2 0.5897 11.759418365380242 3.047872482794324 5.585096460544229 0 0 0
223 0 1 -1.1794 12.407825222419852 3.403823926207005 6.282186707540613 0 0 0
224 0 2 0.5897 13.054319675865601 3.9855949779712287 5.859979603454263 0 0 0
60 0 2 0.5897 11.182733586608961 0.7390744308184897 5.867367102884999 0 0 0
212 0 2 0.5897 11.681533914323273 4.568855848610692 7.685582016974852 0 0 0
59 0 2 0.5897 11.70563484227359 0.6360299544538058 7.3835802435734665 0 0 0
102 0 2 0.5897 13.466584065841001 2.18457058809524 7.476914015196069 0 0 0
158 0 2 0.5897 17.430330066115594 1.0998324115173173 6.561952251689021 0 1 0
100 0 1 -1.1794 14.213520202907658 1.8441845582690173 7.983382084407416 0 0 0
767 0 2 0.5897 16.593831112983935 3.3057892897672665 6.361778969344767 -1 1 0
766 0 1 -1.1794 16.624210724892258 2.611519450083347 7.01273871029252 0 1 0
768 0 2 0.5897 15.738376187311294 2.5446003604940994 7.391861960667164 0 1 0
101 0 2 0.5897 14.402479041231917 0.847140103992229 7.8771436924270795 0 0 0
563 0 2 0.5897 1.0598475384096546 7.586662139820142 5.079730545513069 1 0 0
501 0 2 0.5897 1.8964353622104702 5.0171659213111015 6.494979945957304 1 0 0
783 0 2 0.5897 3.2331833677856165 8.254923530468439 5.419104830926575 0 0 0
500 0 2 0.5897 1.5766524763117795 6.4188008210987615 7.11672947672358 1 0 0
499 0 1 -1.1794 1.7009093971067348 5.941322974131732 6.274812002925917 1 0 0
727 0 1 -1.1794 2.16899223296162 7.542551689682945 8.384562676614841 0 0 0
728 0 2 0.5897 2.858402153144773 8.202439996292483 8.254018798065477 0 0 0
731 0 2 0.5897 3.113713268292346 5.968453951183122 8.92227496346687 0 0 0
623 0 2 0.5897 4.992965185819811 6.230069962447422 4.9618793486949455 0 1 0
586 0 1 -1.1794 6.187724698521852 7.3360282533184895 8.092095601996181 0 0 0
624 0 2 0.5897 5.799378126192225 4.998527238111783 5.534654631363185 0 1 0
371 0 2 0.5897 8.162991302602451 4.851322105733054 8.078493015457944 0 0 0
587 0 2 0.5897 5.934865530388895 6.924747493634702 7.22058198800186 0 0 0
622 0 1 -1.1794 5.768027057504089 5.999331964345504 5.527249616386334 0 1 0
276 0 2 0.5897 7.467046136045128 6.654558092816972 5.263503849501179 0 0 0
274 0 1 -1.1794 8.244396862194366 7.126698601801753 5.63498064418555 0 0 0
483 0 2 0.5897 8.81155320108717 7.057748322909389 7.286927997259312 0 0 0
588 0 2 0.5897 5.974642767404431 6.616629594114161 8.710099294195528 0 0 0
288 0 2 0.5897 5.156044945910711 8.673016328840145 8.594068950322459 0 0 0
275 0 2 0.5897 9.042943824310868 6.729507060957202 5.29726289447962 0 0 0
482 0 2 0.5897 8.95164274632463 7.064544172419642 8.843688378297195 0 0 0
211 0 1 -1.1794 11.451341971713779 4.8792867921265115 8.544955761129877 0 0 0
213 0 2 0.5897 10.731960087843387 5.496974319804666 8.366788710615648 0 0 0
478 0 1 -1.1794 10.505213611984932 5.925683235340059 5.4800732277409665 0 0 0
480 0 2 0.5897 10.04337668487983 5.211576787530263 5.887207348999221 0 0 0
862 0 1 -1.1794 12.332763804546387 7.720559266975569 6.329102809508973 0 0 0
863 0 2 0.5897 11.503995995718011 7.2815513182010045 6.39246716562244 0 0 0
864 0 2 0.5897 12.466538686800119 8.299365715320134 7.134849394927564 0 0 0
481 0 1 -1.1794 9.39967027562264 6.80268844511341 8.026938986565192 0 0 0
98 0 2 0.5897 13.46934787270218 6.275809116724636 5.584717377381634 0 0 0
271 0 1 -1.1794 16.43555438405249 4.866078244383167 5.266811613928819 0 0 0
97 0 1 -1.1794 13.907024773072957 5.536251116512517 5.204237640329919 0 0 0
272 0 2 0.5897 15.570630189249487 5.272602505709937 5.493821713324525 0 0 0
273 0 2 0.5897 17.141306656429187 5.3027946260284 5.803853887316017 0 0 0
408 0 2 0.5897 16.279500230662382 7.635519616605039 7.692869049592377 0 0 0
580 0 1 -1.1794 16.785355769688415 5.789197873841555 8.348353153550411 0 0 0
582 0 2 0.5897 16.562769689376033 4.908446861983434 7.934991336227414 0 0 0
406 0 1 -1.1794 15.843083184827416 8.430368200809536 7.385081259050312 0 0 0
781 0 1 -1.1794 3.245499184434715 9.124322702638864 5.9515993377420875 0 0 0
782 0 2 0.5897 2.351073901463314 9.570925177275372 5.832932319565742 0 0 0
241 0 1 -1.1794 0.9213916358539145 10.23828299977734 6.832698501445455 0 0 0
246 0 2 0.5897 1.7275705137968767 10.832664426648037 8.034798894413953 0 0 1
57 0 2 0.5897 2.9678553236058836 12.678602676407223 8.248161079769375 0 0 0
707 0 2 0.5897 4.731798078619364 11.877221922293566 5.810373776733618 0 0 1
706 0 1 -1.1794 4.38665969313945 12.672446850887928 5.431685424732654 0 0 1
244 0 1 -1.1794 2.2341862288507692 11.033518265670457 8.885718864066009 1 0 1
70 0 1 -1.1794 7.816318043482671 9.682340733380238 5.2803013542917485 0 0 0
23 0 2 0.5897 4.942423124680163 9.98978253792404 6.592917770367435 0 0 0
71 0 2 0.5897 8.070879459937736 8.753531884013286 5.3227119223815835 0 0 0
24 0 2 0.5897 6.357731156221289 10.226859505471877 6.252121938129358 0 0 0
22 0 1 -1.1794 5.641785480487446 10.648419639222197 6.67253896784029 0 0 0
254 0 2 0.5897 7.408573192715042 12.088766436682263 7.231469192191908 0 0 0
253 0 1 -1.1794 8.345304229334925 12.117640931417304 7.408761597107817 0 0 0
255 0 2 0.5897 8.804427951145218 11.368849218282245 6.980433800617915 0 0 0
497 0 2 0.5897 11.80270152818932 8.83623877776003 4.900441279716819 0 0 0
140 0 2 0.5897 10.604643056294252 10.274069128736672 5.734701222226443 0 0 0
139 0 1 -1.1794 10.497906180331976 10.77335895670553 6.572119554027388 0 0 0
141 0 2 0.5897 11.164968903665901 10.431438651634814 7.191735182857715 0 0 0
307 0 1 -1.1794 12.98206996634637 9.528415266865185 8.28607117840652 0 0 0
309 0 2 0.5897 12.473799238759224 9.982072664535604 8.963597494030003 0 0 0
462 0 2 0.5897 10.513893441367275 12.525561624578145 5.941099416296555 0 0 0
308 0 2 0.5897 13.595511128786075 10.162086418691281 7.88175177560241 0 0 0
242 0 2 0.5897 17.582915567277738 10.87198600485372 6.342499210434605 -1 0 0
243 0 2 0.5897 17.52914046364463 9.53295600654916 7.151582690619692 -1 0 0
407 0 2 0.5897 15.722634194771251 8.9294135161402 8.20514474785301 0 0 0
570 0 2 0.5897 15.081046633138728 8.74208280336124 5.585517686675291 0 0 0
214 0 1 -1.1794 16.475381359857103 12.139533145162643 5.714508954022548 0 0 0
415 0 1 -1.1794 14.583825455383998 11.68620343505599 7.631793316313142 0 0 1
417 0 2 0.5897 15.296305636206126 11.702915257234384 6.958965987880578 0 0 1
416 0 2 0.5897 14.971484059340884 11.992375823955218 8.451771464165653 0 0 1
708 0 2 0.5897 4.015409337977486 13.184560635965106 6.157732918476428 0 0 1
14 0 2 0.5897 3.712259204446899 15.616953069416882 5.1308063459801 0 0 0
55 0 1 -1.1794 3.1292668682936475 13.519107360760069 7.757245716366255 0 0 0
618 0 2 0.5897 1.4600850643064933 13.66267835250408 7.316595551869009 0 0 0
56 0 2 0.5897 3.386162364924728 14.261327967022499 8.358037707941795 0 0 0
617 0 2 0.5897 0.5441745547963555 14.790287195585602 6.652413488729126 0 0 0
616 0 1 -1.1794 0.5215124446614543 13.975912488155501 7.222371305697616 0 0 0
441 0 2 0.5897 1.3864290458840878 16.50949012478385 5.895784619082469 1 0 1
754 0 1 -1.1794 5.458441085041269 15.630196191380222 5.92498671894488 0 -1 0
755 0 2 0.5897 5.629490712106833 15.042576247165636 6.685710291887159 0 0 0
756 0 2 0.5897 5.577450694798303 16.53700315185771 6.309091282596123 0 0 0
428 0 2 0.5897 8.816364206689727 14.20183808226152 7.54492035909147 0 0 0
329 0 2 0.5897 8.797380640659265 16.19668366726889 5.377683497110415 0 0 0
113 0 2 0.5897 8.075446840555548 16.78013876152248 8.50460534618731 0 0 0
418 0 1 -1.1794 6.217964338263475 14.347100515326568 8.563930632718874 0 0 0
419 0 2 0.5897 7.143416777544044 14.44631189050917 8.64109415395998 0 0 0
427 0 1 -1.1794 9.043700926487263 15.08321076217174 7.947607515064353 0 0 0
769 0 1 -1.1794 12.39734542518814 16.698836480722683 5.003418982029558 0 0 0
461 0 2 0.5897 11.398156686090381 13.23355132267341 5.018077716087293 0 0 0
330 0 2 0.5897 9.465401308200036 14.836773441143155 4.995825989133962 0 0 0
460 0 1 -1.1794 10.561798256241632 13.372087171324381 5.476916316223716 0 0 0
389 0 2 0.5897 12.124013161880644 14.863758999337499 6.819966947472651 0 0 0
388 0 1 -1.1794 11.748964097437877 15.407404512913137 7.607844334239334 0 0 0
390 0 2 0.5897 11.5230434168965 16.268578305744757 7.2334666859804315 0 0 0
429 0 2 0.5897 10.011456241750203 15.116628656948205 7.902758516832771 0 0 0
719 0 2 0.5897 13.055459218270641 15.59929424874618 8.790899124022056 -1 0 0
646 0 1 -1.1794 13.380267079507243 13.519987105419977 5.978962319415592 0 0 0
106 0 1 -1.1794 15.27109193965393 15.036800272530337 4.869976775303327 -1 0 0
439 0 1 -1.1794 17.690845498434633 16.40160079775044 6.130853173731041 0 0 1
648 0 2 0.5897 14.159120559241272 13.948865388233962 5.592049792313457 0 0 0
108 0 2 0.5897 15.552829802596685 15.624235090178031 5.609513490292182 -1 0 1
215 0 2 0.5897 16.94838861032583 12.949794647405957 5.889897687927738 0 0 0
647 0 2 0.5897 13.69241200806694 12.999934553376798 6.762705648629546 0 0 0
747 0 2 0.5897 14.46435512574695 16.727040724459258 7.406893772888914 0 0 0
410 0 2 0.5897 17.389761578769395 14.752313102190222 8.782942417267257 0 0 0
597 0 2 0.5897 3.7991480600291325 20.67725833513822 7.509135050003652 0 0 0
595 0 1 -1.1794 3.547392628433801 20.735400633172485 6.585487037055849 0 0 0
596 0 2 0.5897 2.5764657995307663 20.71880072236558 6.456012200251818 0 0 0
744 0 2 0.5897 3.5798710483140304 19.313929572908044 5.2279832978833545 0 0 0
187 0 1 -1.1794 0.5553237414384711 18.013940091899677 8.116045559783544 0 0 0
161 0 2 0.5897 2.2605574770050163 18.13005462039257 8.566132449997696 0 -1 0
160 0 1 -1.1794 3.214616636761312 18.026708409900586 8.743206380410415 0 -1 0
266 0 2 0.5897 4.681248998248439 17.975544289349642 7.53425760033334 0 -1 0
157 0 1 -1.1794 0.6998954570926326 20.513605938581364 6.467381895157673 1 0 0
438 0 2 0.5897 6.699231302770935 20.60440919313175 5.397652300215568 0 -1 0
114 0 2 0.5897 6.840341244589925 17.638077160361398 8.253388892363482 0 0 0
265 0 1 -1.1794 5.509624591721027 17.9479987468984 6.984720599047629 0 -1 0
436 0 1 -1.1794 6.946162257189896 20.386095823974657 6.289547925866193 0 -1 0
267 0 2 0.5897 5.739851591492743 18.848635902780273 6.781427410576647 0 -1 0
227 0 2 0.5897 8.028696348989094 18.51202440312307 5.889847868029933 0 0 1
226 0 1 -1.1794 8.735650739532216 17.89795434512368 5.878160290899022 0 0 1
486 0 2 0.5897 7.482964757885636 20.692502978309797 9.000673669623897 0 0 0
112 0 1 -1.1794 7.494761756099899 17.422872857336216 8.930822441981249 0 0 0
770 0 2 0.5897 11.690304277940871 17.363422946547992 4.908240574976593 0 0 0
58 0 1 -1.1794 11.866721310889965 20.65105055235732 6.445801809155425 0 -1 0
228 0 2 0.5897 9.241676648899489 18.089059179048853 6.725695095493267 0 0 1
208 0 1 -1.1794 10.541868799076463 18.27892357408784 7.889425085033337 0 0 0
209 0 2 0.5897 11.108692112653735 19.04195805017425 7.644980734908207 0 0 0
210 0 2 0.5897 10.828911681973244 18.047483764729257 8.791709441450614 0 0 0
191 0 2 0.5897 13.245224158768513 20.28875466430742 5.3079752706493375 0 0 0
440 0 2 0.5897 17.64114738114216 17.037765116102513 6.883434868398078 0 0 1
746 0 2 0.5897 13.754129152519988 17.094981195585554 6.041443579358294 0 0 0
745 0 1 -1.1794 14.361945319834316 17.39710818767935 6.717817062299827 0 0 0
188 0 2 0.5897 17.630945056111045 18.993177881945897 7.8515640477004265 -1 -1 0
159 0 2 0.5897 17.423058011964073 20.0266594869397 5.81185775462811 0 -1 0
790 0 1 -1.1794 14.916815899960737 19.649397480818493 8.13659229166526 0 0 0
753 0 2 0.5897 16.421883389819754 18.154379681038165 5.274637453435409 0 0 1
792 0 2 0.5897 14.626498098176457 19.066415722012692 7.451637903476926 0 0 0
791 0 2 0.5897 14.326538322888167 19.560643269156728 8.873697335926817 0 0 0
189 0 2 0.5897 17.019287081236925 17.859241861649224 8.702860174853104 -1 0 0
334 0 1 -1.1794 1.3049249631444066 3.0497175554240323 9.080496203783639 0 1 0
644 0 2 0.5897 1.7422496504064529 1.8087197979318972 10.241449905796223 1 0 0
219 0 2 0.5897 4.328861587712646 2.8593371249305983 11.664121080155704 0 0 0
645 0 2 0.5897 1.8559286170213525 1.4080071254360766 11.76196416064977 1 0 0
217 0 1 -1.1794 4.047292054850789 3.7428534386214944 11.496149636058275 0 0 0
218 0 2 0.5897 3.8873829908220814 4.1639028385753 12.399775043712703 0 0 0
808 0 1 -1.1794 4.265699506470776 0.679190809530551 9.107686706307819 0 1 0
643 0 1 -1.1794 2.0794544808779714 1.14655533765158 10.857525457691816 1 0 0
75 0 2 0.5897 4.662483620546453 0.8569949506492149 13.102445234629803 0 1 0
809 0 2 0.5897 3.5436017063821335 0.8063386861884513 9.762666501713369 0 1 0
73 0 1 -1.1794 5.216494968046944 1.6117480656934522 12.996519942776747 0 1 0
76 0 1 -1.1794 7.798043315126292 1.3661855469635884 12.10034973868978 0 0 0
78 0 2 0.5897 6.877615865529301 1.4769946350490137 12.425809644382992 0 0 0
591 0 2 0.5897 8.587854345473284 3.1045522605760807 11.520630233784152 0 0 0
77 0 2 0.5897 7.723941192988432 0.9819011429450929 11.232679488390392 0 0 0
590 0 2 0.5897 8.657134627970859 3.7378018736580167 10.18922214688135 0 0 0
589 0 1 -1.1794 9.123691588801812 3.766655936089095 11.0141754378491 0 0 0
236 0 2 0.5897 12.028231565653034 3.5147949340421607 10.13362071986829 0 1 0
677 0 2 0.5897 11.027648849938144 1.4266128762111294 9.839220288123586 0 1 1
235 0 1 -1.1794 11.64742883664797 3.2314494096154553 10.899845758674369 0 1 0
237 0 2 0.5897 10.720537529876353 3.373763714594168 10.9236753065588 0 1 0
794 0 2 0.5897 12.655014604889011 4.3229572879735105 12.245298233401195 0 0 0
780 0 2 0.5897 12.38631666992655 1.7882207467388744 11.787313550251262 0 0 0
778 0 1 -1.1794 12.911702044588539 1.027154247518745 12.143723930775124 0 0 0
676 0 1 -1.1794 11.06418290512153 0.6087208253664687 9.3132545180286 0 1 1
401 0 2 0.5897 17.39753619056635 3.751500577717548 10.467349324388096 0 0 0
779 0 2 0.5897 13.828512054344055 1.262434664208571 11.961351954886567 0 0 0
400 0 1 -1.1794 16.874948528282594 4.028999317486066 11.262655832323539 0 0 0
469 0 1 -1.1794 14.279361165498575 4.173797763245904 9.8817735850033 0 0 0
470 0 2 0.5897 14.230493719394286 3.372270736369312 9.272888827918893 0 0 0
471 0 2 0.5897 15.14818986401194 4.087258760382296 10.321258774676389 0 0 0
16 0 1 -1.1794 15.430582666040904 1.5183934048766465 12.040955070129371 0 0 0
17 0 2 0.5897 15.638745824760965 2.4303054882999326 11.88972760504763 0 0 0
18 0 2 0.5897 15.524830201453982 1.2626320251317489 12.998531510929276 0 0 0
84 0 2 0.5897 17.61299319677152 3.8197974108680994 12.957095009529384 0 0 0
729 0 2 0.5897 1.7202533135334277 7.654278113144985 9.264924056304924 0 0 0
730 0 1 -1.1794 3.225998847129054 4.998219218469479 9.157098129585874 0 0 0
732 0 2 0.5897 3.390653341108955 4.844171411820613 10.09104363636618 0 0 0
846 0 2 0.5897 3.3999925023485837 8.34904259109741 12.563578390049397 0 0 0