LAMMPS (29 Sep 2021 - Update 2)
  using 1 OpenMP thread(s) per MPI task
echo both

include		in.partitions
variable        pid world 0
include		in.temp
variable        temperature equal 240
variable        tempDamp equal 0.100 # this is 0.1 ps
include		in.pressure
variable        pressure equal 5066.25
variable        pressureDamp equal 1.0 #this is 1ps
include		in.seed
variable        seed world 745823

units           metal
atom_style	full
include		in.box
read_data       water.data
Reading data file ...
  orthogonal box = (0.0000000 0.0000000 0.0000000) to (18.207573 21.446115 22.213196)
  1 by 1 by 1 MPI processor grid
  reading atoms ...
  864 atoms
  reading velocities ...
  864 velocities
Finding 1-2 1-3 1-4 neighbors ...
  special bond factors lj:    0        0        0       
  special bond factors coul:  0        0        0       
     0 = max # of 1-2 neighbors
     0 = max # of 1-3 neighbors
     0 = max # of 1-4 neighbors
     1 = max # of special neighbors
  special bonds CPU = 0.000 seconds
  read_data CPU = 0.025 seconds
include 	in.setup
variable	out_freq equal 500
variable	out_freq2 equal 500

timestep        0.0005

neigh_modify    delay 7 every 1

include         in.deepmd
# This is deepMD model

# create groups ###
#group ox type 2
#group hy type 1

mass 2 15.999
mass 1 1.008

pair_style      deepmd ../graph.pb
pair_coeff      * *

bond_style      none
angle_style     none
dihedral_style  none
improper_style  none
neigh_modify exclude none


neighbor        2.0 bin
neigh_modify    every 10 delay 0 check no

thermo          ${out_freq}
thermo          500
thermo_style 	custom step temp pe etotal epair emol press lx ly lz vol pxx pyy pzz pxy pxz pyz

restart 	${out_freq} restart.lmp.${pid} restart2.lmp.${pid}
restart 	500 restart.lmp.${pid} restart2.lmp.${pid}
restart 	500 restart.lmp.0 restart2.lmp.${pid}
restart 	500 restart.lmp.0 restart2.lmp.0


include         in.dump
dump            myDump all atom ${out_freq2} dump.water.${pid}
dump            myDump all atom 500 dump.water.${pid}
dump            myDump all atom 500 dump.water.0
dump            myDump2 all dcd ${out_freq2} dump.dcd
dump            myDump2 all dcd 500 dump.dcd
dump_modify     myDump append yes
dump_modify     myDump2 append yes


timer           timeout 03:55:00 every 1000
New timer settings: style=normal  mode=nosync  timeout=03:55:00

fix             2 all nph iso ${pressure} ${pressure} ${pressureDamp}
fix             2 all nph iso 5066.25 ${pressure} ${pressureDamp}
fix             2 all nph iso 5066.25 5066.25 ${pressureDamp}
fix             2 all nph iso 5066.25 5066.25 1
fix             3 all temp/csvr ${temperature} ${temperature} ${tempDamp} ${seed}
fix             3 all temp/csvr 240 ${temperature} ${tempDamp} ${seed}
fix             3 all temp/csvr 240 240 ${tempDamp} ${seed}
fix             3 all temp/csvr 240 240 0.1 ${seed}
fix             3 all temp/csvr 240 240 0.1 745823
velocity 	all create ${temperature} ${seed} dist gaussian
velocity 	all create 240 ${seed} dist gaussian
velocity 	all create 240 745823 dist gaussian

run             1000000

CITE-CITE-CITE-CITE-CITE-CITE-CITE-CITE-CITE-CITE-CITE-CITE-CITE

Your simulation uses code contributions which should be cited:

- USER-DEEPMD package:

@article{Wang_ComputPhysCommun_2018_v228_p178,
  author = {Wang, Han and Zhang, Linfeng and Han, Jiequn and E, Weinan},
  doi = {10.1016/j.cpc.2018.03.016},
  url = {https://doi.org/10.1016/j.cpc.2018.03.016},
  year = 2018,
  month = {jul},
  publisher = {Elsevier {BV}},
  volume = 228,
  journal = {Comput. Phys. Commun.},
  title = {{DeePMD-kit: A deep learning package for many-body potential energy representation and molecular dynamics}},
  pages = {178--184}
}

CITE-CITE-CITE-CITE-CITE-CITE-CITE-CITE-CITE-CITE-CITE-CITE-CITE

Neighbor list info ...
  update every 10 steps, delay 0 steps, check no
  max neighbors/atom: 2000, page size: 100000
  master list distance cutoff = 8
  ghost atom cutoff = 8
  binsize = 4, bins = 5 6 6
  1 neighbor lists, perpetual/occasional/extra = 1 0 0
  (1) pair deepmd, perpetual
      attributes: full, newton on
      pair build: full/bin
      stencil: full/bin/3d
      bin: standard
Per MPI rank memory allocation (min/avg/max) = 7.215 | 7.215 | 7.215 Mbytes
Step Temp PotEng TotEng E_pair E_mol Press Lx Ly Lz Volume Pxx Pyy Pzz Pxy Pxz Pyz 
       0          240    -134.9383   -108.16594    -134.9383            0    24287.895    18.207573    21.446115    22.213196    8673.8466    24177.339    25024.991    23661.357    1112.5116   -269.42878   -865.04404 
     500     249.0919   -131.24715   -103.46057   -131.24715            0    5057.8582    17.870087    21.048601    21.801464      8200.41    8714.3249    2266.1309    4193.1189    1570.2094   -1433.3199   -1200.8317 
    1000    244.54982    -129.5064    -102.2265    -129.5064            0    7461.4695    17.799217    20.965125    21.715002    8103.2312    8605.9484    7517.8013    6260.6589       -529.1    59.054694   -257.33237 
    1500    229.21633   -129.67998   -104.11055   -129.67998            0    4569.8316    17.750337    20.907552    21.655369     8036.656    6622.0744    738.98232    6348.4381   -147.71636    168.58576    -1483.011 
    2000    237.27337   -128.29969   -101.83149   -128.29969            0    5176.6746    17.599348    20.729707    21.471163      7833.31    5430.1635    2624.4264    7475.4338    1992.4601   -312.40128    654.92117 
    2500    247.69528     -127.907   -100.27622     -127.907            0    8753.9163    17.559957    20.683309    21.423106    7780.8294    8463.1197    10424.423    7374.2063    861.92001    598.60698    1224.9174 
    3000    237.14635   -126.01276   -99.558729   -126.01276            0    4365.0903    17.531444    20.649724     21.38832    7742.9884     3329.021    4109.7255    5656.5242   -83.208116    1388.3538    1604.9595 
    3500    241.50864    -128.2675   -101.32684    -128.2675            0    5163.2347    17.465561    20.572123    21.307944    7656.0227    3464.2729    4947.4021    7078.0292   -3111.6472   -1759.0305    365.36437 
    4000    237.47289   -128.11944   -101.62898   -128.11944            0    5062.1505    17.467663    20.574599    21.310508    7658.7873    7014.0045    4952.2639    3220.1831    842.48045    1152.1487   -442.64026 
    4500    246.47078   -129.46223   -101.96804   -129.46223            0    4483.3322    17.448793    20.552373    21.287486    7633.9928    4978.0441    3580.7911    4891.1613    317.35322   -1968.5766    786.13045 
    5000    242.58491   -129.54791    -102.4872   -129.54791            0    5060.1337    17.427829    20.527679     21.26191    7606.5093    5124.0935    2899.3322    7156.9756    667.53679    658.96546   -924.33696 
    5500    225.87745   -128.62048   -103.42351   -128.62048            0    3623.1933     17.35382    20.440507     21.17162     7510.016    322.80332    6846.0436    3700.7331    545.32893    1079.9128    -1509.349 
    6000    237.22736   -128.61968   -102.15661   -128.61968            0    4818.8487    17.471958    20.579657    21.315747     7664.437    4164.5422    6450.5903    3841.4135    159.21177    2392.8293   -1326.6041 
    6500    235.64292   -128.51989   -102.23357   -128.51989            0    3212.8081    17.380038    20.471388    21.203605    7544.1049    4391.8623    2081.9118    3164.6501   -1279.1654    900.41408   -1819.1945 
    7000     237.4603    -127.2977   -100.80865    -127.2977            0    4424.3727    17.327486    20.409489    21.139492     7475.879    6908.9027    3396.5073    2967.7081    69.249015    727.08546    -2031.301 
    7500    236.36152   -128.01243   -101.64595   -128.01243            0    7280.7655    17.386251    20.478706    21.211185    7552.1979    6188.1459    7177.3596    8476.7911   -1111.8683   -805.97589    149.72541 
    8000    233.41335   -127.48851    -101.4509   -127.48851            0     4914.679      17.3106    20.389599    21.118891    7454.0432    3083.9921     2897.161     8762.884    1828.2221    711.68086     256.3847 
    8500    236.48042   -128.63908   -102.25933   -128.63908            0    6752.7447    17.344254    20.429239    21.159949    7497.6026    6056.5089    7846.7791    6354.9461    2282.3641   -359.12373    784.73598 
    9000    251.62479   -128.85431   -100.78518   -128.85431            0    6432.7122    17.322627    20.403766    21.133564    7469.5914    8658.5342    4157.2912    6482.3114    2049.7018    244.24922   -2301.5998 
    9500    249.38765   -129.12956   -101.30999   -129.12956            0    3238.0581    17.393537    20.487288    21.220074    7561.6966    1994.2117     5949.488    1770.4745   -400.86181    391.29308   -1723.3699 
   10000    247.12299   -128.34172   -100.77478   -128.34172            0    5308.0715    17.292505    20.368286    21.096816    7430.6928    4580.9452       5393.6    5949.6692   -2533.3452     -1244.53    861.50065 
   10500    252.66737   -127.24126   -99.055834   -127.24126            0    6323.5021     17.39251    20.486078    21.218821    7560.3574    4253.7234    5569.5644    9147.2184    1426.5271    47.245284    532.50204 
   11000    247.59313   -128.66554   -101.04615   -128.66554            0    2709.6393    17.388369    20.481201     21.21377    7554.9594    3941.2027    458.83474    3728.8804    -700.2989    1499.6037   -148.85059 
   11500    242.56981   -129.74972    -102.6907   -129.74972            0    8184.6739    17.311843    20.391064    21.120408    7455.6495    7397.0044    8131.5577    9025.4596   -487.98071   -71.596361    1596.9402 
   12000    249.08671   -128.66462   -100.87862   -128.66462            0    3710.3606    17.320181    20.400884    21.130579    7466.4268    3151.5641     5760.902    2218.6157    1012.8205    -304.8806    1008.3133 
   12500    238.93037   -126.72853   -100.07548   -126.72853            0    6353.6346    17.188902    20.246256     20.97042    7297.9351    8156.5916    5110.0066    5794.3056   -1272.6679   -3202.5776     4193.405 
   13000    257.00509    -128.7449    -100.0756    -128.7449            0    4917.8488    17.209159    20.270116    20.995134    7323.7672    5179.1227    4839.3435    4735.0802    2002.3074    717.83145    1179.2686 
   13500    236.92344   -128.47981   -102.05065   -128.47981            0    7237.5892    17.237377    20.303352    21.029559    7359.8525    7426.7054    6900.4691     7385.593   -1093.3107     3175.076    1511.3538 
   14000    236.86901   -128.49026   -102.06717   -128.49026            0    3202.2167    17.215838    20.277982    21.003281     7332.297    5516.5865    2466.8867    1623.1768    1633.2411    640.05163   -42.108751 
   14500    236.65038   -129.89033   -103.49162   -129.89033            0    6031.7406    17.260556    20.330655    21.057838     7389.583    3892.1522    9553.7952    4649.2743    323.51191   -2002.1913    2157.4385 
   15000    245.37643   -129.67451    -102.3024   -129.67451            0    3762.0289    17.281289    20.355075    21.083132    7416.2434    3718.9439    5087.0375    2480.1053    3951.9619   -397.61435    1693.6098 
   15500    241.84806   -128.84714   -101.86862   -128.84714            0    7318.6157     17.23427    20.299692    21.025768    7355.8726    7068.4763    9471.9688    5415.4019    743.38873    951.60087     412.8641 
   16000    248.92021   -129.94217   -102.17475   -129.94217            0    3061.1338    17.249349    20.317454    21.044165    7375.1978     4667.688    4595.0316   -79.318295   -140.99308   -1752.9624   -1673.1995 
   16500    243.20356   -129.48392   -102.35419   -129.48392            0    5940.5339     17.24642    20.314004    21.040592    7371.4418    7298.7045    5695.7109    4827.1864     802.0582   -730.17031   -266.35428 
   17000     237.3402    -128.3303   -101.85464    -128.3303            0    5411.0501    17.214546    20.276461    21.001706    7330.6468    4930.7714    9098.0031    2204.3757    1170.9338   -1707.6072    1194.4821 
   17500    243.91138   -129.43118    -102.2225   -129.43118            0    6640.5594    17.281844    20.355729    21.083809    7416.9579    7084.9696    9611.9733    3224.7353   -3109.9789   -516.00777   -1773.3486 
   18000    243.97859   -130.71905   -103.50287   -130.71905            0    4896.6338    17.238715    20.304928    21.031191    7361.5659    3630.5956    3761.4458      7297.86    1449.0165    504.67473    904.91629 
   18500    234.26659   -128.23512   -102.10233   -128.23512            0    4701.1272    17.239678    20.306063    21.032366       7362.8     2907.497    4194.8697    7001.0148   -1549.4635     588.4332   -1266.8501 
   19000    241.84497   -129.61261   -102.63444   -129.61261            0    6949.4076    17.310142     20.38906    21.118332    7453.4516     7793.579    5448.5905    7606.0534   -443.30832    269.61178   -434.08127 
   19500    243.69668   -129.33249   -102.14775   -129.33249            0    4487.7366    17.253806    20.322703    21.049602    7380.9164    1907.8827    5938.7007    5616.6265   -66.789776   -168.85585   -1403.1101 
   20000    246.25624   -130.98354   -103.51329   -130.98354            0    7118.4963    17.272516    20.344742    21.072429    7404.9543    6910.0853    6417.4968    8027.9068   -264.30392    1383.7784    2435.7931 
   20500     238.0755   -130.36015   -103.80247   -130.36015            0    3471.3101    17.257401    20.326937    21.053988    7385.5305    1811.5466    5194.9015    3407.4823     270.5279   -1511.6308    1099.6888 
   21000    227.04197   -129.14627    -103.8194   -129.14627            0    7455.5803     17.19393    20.252178    20.976554    7304.3411    7067.0308    7145.9941    8153.7158   -11.989146    2001.7287    1174.0918 
   21500    230.14734   -130.30706   -104.63378   -130.30706            0     7222.059    17.250762    20.319118    21.045889    7377.0103    9414.7964      7728.51    4522.8707     1367.644   -1553.4068    1293.1908 
   22000    238.40566   -129.56593   -102.97142   -129.56593            0    7667.0833    17.171889    20.226216    20.949664    7276.2866    6410.7655    7479.1244    9111.3599   -1524.7594   -205.06987    1645.4882 
   22500    232.91018   -129.36887   -103.38739   -129.36887            0     2551.394    17.254241    20.323216    21.050133    7381.4745    4711.9686    2843.7348    98.478625   -719.85429    768.75255      53.2309 
   23000    242.28401   -130.53652   -103.50937   -130.53652            0    5945.6617     17.25732    20.326842    21.053889    7385.4268    4998.9966    4476.8691    8361.1195   -1266.6733     -220.495    2582.9844 
   23500    243.83532   -129.13967   -101.93947   -129.13967            0    7368.8706    17.187649    20.244779    20.968891    7296.3384    9484.9342    5925.1938    6696.4838   -658.82778    1291.4028    638.37847 
   24000    246.54627    -128.1039   -100.60129    -128.1039            0     5037.303    17.211018    20.272305    20.997401    7326.1403    3216.0548     7434.889    4460.9652    737.23457   -136.27976    2791.3452 
   24500    242.93394   -129.12356   -102.02391   -129.12356            0    3207.6245    17.242891    20.309847    21.036286    7366.9176    4665.2071    1726.3078    3231.3585   -996.46173    941.53729   -2171.0666 
   25000    255.19629   -129.16221   -100.69468   -129.16221            0    5690.8173    17.181193    20.237175    20.961015    7288.1204    6277.7911    5202.0105    5592.6504     3053.212    -635.0716   -1136.3895 
   25500    238.05947   -127.60524   -101.04934   -127.60524            0    1160.8397    17.234831    20.300354    21.026453    7356.5919    511.43949    1606.0412    1365.0384    214.42116   -2703.6181   -435.10574 
   26000    245.56296   -128.15644   -100.76352   -128.15644            0    7364.8432    17.216223    20.278436    21.003751    7332.7892    10047.418     7160.264    4886.8481   -570.58452    291.44752   -872.22678 
   26500    235.07706   -127.99028   -101.76708   -127.99028            0    7117.4031    17.136055    20.184008    20.905946     7230.829    5487.5379    5378.2742    10486.397    1240.9794    3.4361427    768.43941 
   27000    245.49908   -127.99232   -100.60653   -127.99232            0     3380.918    17.216331    20.278563    21.003883    7332.9268    1777.3382    5047.9647    3317.4512   -787.77807    1700.7743   -1850.2189 
   27500    240.98579   -128.42602    -101.5437   -128.42602            0    7561.1529     17.10034    20.141941    20.862375    7185.7122    10225.983    2519.0115    9938.4642    1447.3462    1772.8902    1694.4053 
   28000     229.3855    -128.6246   -103.03631    -128.6246            0    4057.3155    17.237381    20.303357    21.029564    7359.8575    4536.3028     5016.776    2618.8676    1958.2832   -1603.9074   -1773.9238 
   28500    251.06111   -128.88215   -100.87591   -128.88215            0    7987.8386     17.15521     20.20657    20.929315    7255.1041    7223.5234    7509.1454    9230.8471   -1348.3784    2331.8948    999.71393 
   29000    234.60946   -128.07783   -101.90679   -128.07783            0    5423.8459    17.179595    20.235293    20.959065    7286.0867    5434.1902    7256.9578    3580.3898     -2151.22   -2343.5498   -570.49198 
   29500    249.50654    -128.1409   -100.30807    -128.1409            0    6200.2672    17.158952    20.210978    20.933881    7259.8536     8796.977    3989.9977     5813.827    1425.7231    548.78526   -1105.0559 
   30000    258.46636   -127.51855   -98.686237   -127.51855            0    4477.5056    17.155202    20.206561    20.929305     7255.094    4675.3867    3315.7436    5441.3865   -779.00853   -694.88248   -139.60592 
   30500    251.23265   -128.66971   -100.64433   -128.66971            0    4024.0871     17.18843    20.245699    20.969843    7297.3328    6455.1926    3236.1981    2380.8706    387.87568    2384.3409    -763.6032 
   31000    253.02342   -129.58402   -101.35888   -129.58402            0    4391.4988    17.100443    20.142063      20.8625    7185.8421    7702.9089    2127.4292    3344.1581    840.73186    490.56449    354.84326 
   31500     242.4694   -129.30825   -102.26043   -129.30825            0    3562.5026     17.19102     20.24875    20.973004    7300.6329    4577.0603    4644.8232    1465.6242   -164.57441   -2975.0024   -583.20326 
   32000    240.90835   -129.30544   -102.43175   -129.30544            0    6748.3252    17.156934    20.208601    20.931419    7257.2923    8059.1139    3014.3932    9171.4686   -156.31078    652.09493   -829.14067 
   32500    232.79036    -128.8851   -102.91698    -128.8851            0    5533.3974    17.242481    20.309365    21.035787    7366.3925    6554.9213    3852.2142    6193.0567   -1696.7991    1965.7759   -2636.4372 
   33000     244.3827   -129.90233   -102.64108   -129.90233            0    3388.1921     17.15901    20.211046    20.933951    7259.9263    3365.9896    4551.0868       2247.5   -295.82538    2271.5737   -269.32112 
   33500    240.31727   -130.10788   -103.30013   -130.10788            0    4749.2889    17.213836    20.275625     21.00084      7329.74    6267.3611    3034.7406    4945.7649    1270.8173    3568.3283   -1161.5648 
   34000    239.12432   -131.48593   -104.81126   -131.48593            0    6513.7893    17.198158    20.257157    20.981712    7309.7303    5389.2301    5937.2197    8214.9181   -1777.9968     1763.215   -348.79978 
   34500    219.05191   -129.84224   -105.40667   -129.84224            0    5058.6221    17.080164    20.118176     20.83776    7160.3075    3559.9686     633.1902    10982.707    1132.9698    785.49711    2103.7252 
   35000    227.23906   -130.60482   -105.25596   -130.60482            0    5926.4012    17.137872    20.186148    20.908163    7233.1295      4267.15    6552.1557    6959.8978    -101.7638    604.06457    472.51381 
   35500    237.62527   -130.79652   -104.28906   -130.79652            0     5995.279    17.126167    20.172362    20.893883    7218.3191    7353.4164    4376.5821    6255.8384    253.76356    175.76853   -1400.6682 
   36000    237.77282   -130.86079   -104.33688   -130.86079            0    4148.5824     17.17302    20.227549    20.951044    7277.7245    3900.9864     4303.201    4241.5598   -100.68733   -2302.6142   -1591.7105 
   36500    244.02118   -130.27457   -103.05364   -130.27457            0    7036.7016    17.214378    20.276262      21.0015    7330.4319     9112.033    5050.2686    6947.8033    429.48158   -486.97109    -497.7707 
   37000     234.9212   -129.46097   -103.25516   -129.46097            0   -1161.5906    17.192684     20.25071    20.975034    7302.7531    1890.6057   -2254.6361   -3120.7413   -174.59565   -1774.7664    943.54922 
   37500    241.66661   -130.49725   -103.53898   -130.49725            0    6029.3018    17.158999    20.211033    20.933938    7259.9124    5853.3643    5755.6968    6478.8443    949.26358   -138.75662    1228.5004 
   38000     243.4265   -129.22052   -102.06593   -129.22052            0    5038.0109    17.221935    20.285164     21.01072    7340.0903    3506.0352    6012.9941    5595.0035   -704.45256    878.29524   -2009.5923 
   38500     237.5086   -129.14024    -102.6458   -129.14024            0    6363.2807    17.199533    20.258777    20.983389    7311.4836    6536.2879    6096.9657    6456.5885    206.10646    490.04669   -1687.7892 
   39000    230.73033   -128.83487   -103.09655   -128.83487            0     5435.063    17.148485     20.19865    20.921112    7246.5762    7087.7763    6915.2541    2302.1587   -281.72736   -1052.4227    779.63723 
   39500    245.51108   -130.04688   -102.65975   -130.04688            0    4754.8927    17.195688    20.254248    20.978698    7306.5809    4412.6333    2146.2466    7705.7981   -328.47004    541.26988    136.00219 
   40000    237.47833   -129.75374   -103.26268   -129.75374            0    7428.5414    17.135743    20.183641    20.905566    7230.4345    6517.8084    7010.0596    8757.7563   -945.09066   -225.51012    799.94894 
   40500    234.27587   -129.90181   -103.76799   -129.90181            0    5613.1439    17.178434    20.233925    20.957648    7284.6089    2759.2108    7681.0887    6399.1323    754.33585    2332.7754    1191.1387 
   41000    235.16347   -129.29686   -103.06402   -129.29686            0     7603.471    17.188535    20.245823    20.969972    7297.4675    5778.0677    11274.097    5758.2484    1825.5773    793.61935    281.74059 
   41500    237.00307   -128.61889   -102.18084   -128.61889            0     5996.596    17.130432    20.177385    20.899087    7223.7134      5564.42    6283.7912    6141.5769      2569.01    2178.3665    1070.3619 
   42000    235.39022   -128.50502   -102.24688   -128.50502            0    4463.5547    17.196035    20.254657    20.979122    7307.0238    4482.9802    2142.0942    6765.5897    -982.1363   -1002.6845   -508.63179 
   42500    248.11396   -129.88747   -102.20998   -129.88747            0     3163.495    17.225029    20.288808    21.014495    7344.0468    1667.3329    4180.5873    3642.5648   -218.45569   -734.61235    92.308401 
   43000    246.22048   -129.59352   -102.12725   -129.59352            0    3659.1559    17.262679    20.333155    21.060428      7392.31     3885.752    3888.5633    3203.1524   -1299.6719   -1502.5563    966.17999 
   43500    230.41109   -128.67632   -102.97362   -128.67632            0    3717.7369    17.211683    20.273088    20.998212    7326.9893    2953.1843    2907.4756    5292.5506   -335.41397   -995.93799    1107.4381 
   44000    236.46314   -129.11438   -102.73656   -129.11438            0    8017.1091    17.137792    20.186055    20.908066    7233.0287    7085.3433     7217.296    9748.6878    160.27394    1310.9305    1691.5436 
   44500    235.52934   -128.91229   -102.63864   -128.91229            0     3502.244    17.217116    20.279487     21.00484    7333.9298    1186.3159    3997.7651    5322.6509    834.44559   -185.83562    -3279.844 
   45000    230.87965   -130.14853   -104.39356   -130.14853            0    5557.7794    17.137963    20.186256    20.908274    7233.2448    4124.1164    8887.4781    3661.7438     2356.248   -3678.4846   -261.05012 
   45500    231.72514   -131.24617   -105.39688   -131.24617            0    4985.1622    17.252127    20.320725    21.047554    7378.7615    5512.8477    3746.4203    5696.2185   -1271.1061    572.55581   -634.05754 
   46000    239.04975   -130.86174   -104.19538   -130.86174            0    6397.1215    17.190987    20.248711    20.972964     7300.591    7218.6996    6128.6726    5843.9923    473.66692   -247.49643   -302.35863 
   46500    243.12998   -131.36097   -104.23946   -131.36097            0    5927.9852     17.19831    20.257337    20.981898    7309.9246    6314.2514    3326.8905    8142.8137    -2091.162    667.61847    281.23593 
   47000    239.92118   -131.10089   -104.33733   -131.10089            0    3749.3509    17.251817    20.320361    21.047176    7378.3644    1918.6007    6439.5271    2889.9248     2673.017   -281.14127   -136.98344 
   47500     239.6257    -130.6766     -103.946    -130.6766            0    5995.4027    17.283204    20.357331    21.085468    7418.7091    5842.4515    2520.4303    9623.3262     2291.429   -1581.1608    1206.5241 
   48000    248.14641   -130.55135   -102.87024   -130.55135            0     3837.489    17.215438    20.277511    21.002794     7331.786    3597.6761    3433.6366    4481.1543    1832.8027    1186.5512    1897.5697 
   48500    247.38589   -130.93592   -103.33965   -130.93592            0    3985.0819    17.111798    20.155436    20.876353    7200.1652    3466.3211    2837.3838    5651.5408   -1048.2847   -3364.9049   -705.49151 
   49000    252.13541   -130.46294   -102.33686   -130.46294            0    9718.0324    17.109725    20.152996    20.873825    7197.5499     10935.93      10008.8    8209.3671   -3090.2054    399.82072    762.97591 
   49500    251.40007   -128.30965   -100.26559   -128.30965            0    7560.0655    17.198052    20.257033    20.981583    7309.5957    7542.6336    6099.9653    9037.5974    66.961232    3179.7437    3229.1362 
   50000    252.44055   -130.24232   -102.08219   -130.24232            0     4870.974    17.261727    20.332033    21.059266    7391.0865    7549.6659    4156.5964    2906.6598     185.6817   -811.36813   -3415.8075 
   50500    248.94137   -131.80195   -104.03216   -131.80195            0    5029.5649    17.137882    20.186161    20.908176    7233.1426    4481.6193    5175.7194    5431.3559   -184.70554   -968.40399    89.703648 
   51000    246.40995   -130.83178   -103.34438   -130.83178            0    6406.0824    17.159781    20.211955    20.934893    7260.9058     7320.616    3408.9021    8488.7291    3459.9166    -2066.694   -2055.9634 
   51500    238.64563   -131.77107   -105.14979   -131.77107            0    2416.9869    17.246013    20.313524    21.040095    7370.9195    1176.3722    2127.9399    3946.6485   -314.77265   -131.49493    1318.4965 
   52000    232.47051   -132.05958   -106.12715   -132.05958            0    7397.9525    17.171646     20.22593    20.949368    7275.9777    7194.4938    5454.7638    9544.5998    792.60986   -897.81035    622.23799 
   52500    243.72286   -130.65724   -103.46959   -130.65724            0    5721.3851    17.197852    20.256797    20.981339    7309.3407    7609.3835    2892.4993    6662.2727    260.33203    247.87992   -1262.2806 
   53000    245.13963    -132.5829   -105.23721    -132.5829            0    2254.8733    17.223506    20.287014    21.012636    7342.0988   -29.610734    3832.7434    2961.4872    2269.4535   -1583.5957    1211.9681 
   53500    244.89001   -132.45238   -105.13453   -132.45238            0    3661.9248    17.242043    20.308848    21.035252    7365.8306    6890.4506    1173.4675    2921.8562   -2448.9029    1808.0362    1637.8262 
   54000    238.32481   -130.59124   -104.00575   -130.59124            0    5108.1023    17.191458    20.249265    20.973538    7301.1902    3965.6687    3225.5334    8133.1047    1415.8784    821.70249   -1504.3709 
   54500    227.28711   -131.96134   -106.60712   -131.96134            0     3126.661    17.243157    20.310161    21.036611    7367.2591    793.31393    4049.3797    4537.2895   -2224.6889    585.75332    -314.1641 
   55000    230.05588   -130.34198    -104.6789   -130.34198            0    5562.5543    17.210494    20.271688    20.996762    7325.4715     5992.443    4023.5555    6671.6643    1565.5016   -735.70351   -1573.9973 
   55500    235.36621   -132.69089   -106.43543   -132.69089            0    6260.9796    17.287906    20.362869    21.091204    7424.7652    6304.9765    4928.3017    7549.6605    2249.6119    1110.9339    -793.7345 
   56000    242.94653   -130.53642   -103.43537   -130.53642            0    4573.0648    17.254499     20.32352    21.050448    7381.8059    3247.2246    5747.8387    4724.1313   -299.11816    1298.7665   -792.14104 
   56500    240.57138   -129.86738   -103.03129   -129.86738            0    4411.9718    17.169257    20.223116    20.946453    7272.9406    2490.8146    3631.2428    7113.8581   -2919.0497    1866.9142    346.61023 
   57000    239.49554   -130.87081   -104.15472   -130.87081            0    6279.0081    17.236677    20.302527    21.028705    7358.9551    11153.549    4464.1043    3219.3715   -1381.0622     47.09918    985.20204 
   57500    242.12904   -131.22111   -104.21125   -131.22111            0    5806.6767    17.174142     20.22887    20.952413    7279.1505    2762.8345    8155.1049    6502.0908   -198.18689    74.925926   -1162.3503 
   58000    245.89883   -131.97373   -104.54335   -131.97373            0    8549.4292    17.159779    20.211953     20.93489    7260.9035    5721.0734    10138.079    9789.1352    1544.2148    82.383655     278.2229 
   58500    233.18303   -131.61308   -105.60116   -131.61308            0    2304.1905    17.284922    20.359354    21.087564    7420.9218     1769.105    1603.6953    3539.7712   -914.25422    2013.1505   -540.20871 
   59000    249.28255   -131.79776   -103.98992   -131.79776            0    10474.572    17.160933    20.213311    20.936298    7262.3679    10338.184    10396.842    10688.691   -1999.4179     1822.043    1288.6874 
   59500    241.86475   -131.64136   -104.66099   -131.64136            0     5936.649    17.273575    20.345989    21.073721    7406.3166    7963.3019    3629.9061     6216.739    1763.8721    166.15441   -1142.4876 
   60000    240.63985   -131.78461   -104.94087   -131.78461            0    6043.7291     17.20388    20.263897    20.988693    7317.0287    5643.5146     6438.473    6049.1998   -417.71942    2384.1903    3460.0968 
   60500    233.26862   -131.19787    -105.1764   -131.19787            0    4508.6618    17.157756    20.209569    20.932422    7258.3354    7552.1543    2379.6705    3594.1605    104.78819   -777.55702   -608.57762 
   61000    237.78242   -131.53794   -105.01295   -131.53794            0    5066.4027     17.31106    20.390141    21.119452    7454.6379    5178.6985    2125.2286    7895.2809     -1206.56   -522.02095    544.90263 
   61500    243.36704   -131.49405   -104.34609   -131.49405            0    5877.7731    17.277314    20.350393    21.078282    7411.1269     5482.553    5878.2682    6272.4982   -20.622624   -979.13441   -868.84333 
   62000    238.29602   -130.41299   -103.83071   -130.41299            0    6685.4702    17.229839    20.294474    21.020363    7350.2017    6984.8239    5430.3997    7641.1871   -494.27691   -351.99996    2186.5908 
   62500    238.73865    -131.4038   -104.77215    -131.4038            0    7145.4064    17.213178    20.274849    21.000036    7328.8985    9083.1678    6980.3598    5372.6917    1839.1877     755.1805    2985.7573 
   63000    246.18626   -129.40621   -101.94376   -129.40621            0    4953.7616    17.160277    20.212539    20.935498    7261.5355    5777.1646    2180.9037    6903.2164   -2277.6255    2606.4482    1626.1578 
   63500    238.71531   -131.01148   -104.38242   -131.01148            0    5283.6044    17.182982    20.239282    20.963197    7290.3965    3895.8847    5886.7856     6068.143    -848.5524    1300.1801   -2137.9684 
   64000    235.42303   -130.01776   -103.75597   -130.01776            0    2591.1527    17.232489    20.297595    21.023596    7353.5929    4880.4329   -1174.6793    4067.7045   -2172.0172   -454.72278    -737.5935 
   64500    244.24988   -131.05365   -103.80721   -131.05365            0    7222.6846    17.179662    20.235372    20.959148    7286.1723    9829.9153     8091.149    3746.9896    166.82187    1117.1756   -1450.1072 
   65000    238.08071   -133.07998   -106.52172   -133.07998            0    7790.4161    17.142159    20.191199    20.913394    7238.5595    8381.7188    7913.5484    7075.9812    1005.3417    1102.4348    1057.0641 
   65500    237.12006   -132.15139   -105.70029   -132.15139            0    6193.3109    17.211757    20.273175    20.998303    7327.0841      7521.18    3896.0063    7162.7464   -271.94226   -1249.4977    -1298.034 
   66000    242.80004   -130.17482   -103.09011   -130.17482            0    8837.9729    17.168457    20.222174    20.945477    7271.9247    10557.328    10532.376    5424.2151    127.43253   -1772.3132    1680.6719 
   66500    235.91012   -130.61136   -104.29523   -130.61136            0    3098.2984    17.227932    20.292227    21.018036    7347.7601    5123.2371    1154.1882    3017.4699    1790.4727   -1081.4879   -3663.0853 
   67000    234.92714   -131.52567   -105.31919   -131.52567            0    3842.6999    17.255436    20.324624    21.051592    7383.0091     3029.499    6083.6228     2414.978   -47.882798   -1408.8787     1454.463 
   67500    241.61536   -131.97399   -105.02143   -131.97399            0    7965.3863    17.134368    20.182021    20.903888    7228.6932    6152.5151    10071.738    7671.9055   -73.275244   -628.00873   -2747.2182 
   68000    246.46339   -133.06746    -105.5741   -133.06746            0    4920.4075    17.218977     20.28168    21.007112    7336.3091    4623.9693    3129.0931    7008.1601    2550.1177   -2091.2872    1824.4029 
   68500    238.42322   -131.01058   -104.41411   -131.01058            0     5131.045    17.217952    20.280473    21.005861    7334.9992    2343.4659     6270.124     6779.545   -3024.1473   -465.89048   -669.83423 
   69000    228.44237   -131.36245   -105.87936   -131.36245            0    4346.5479    17.229127    20.293634    21.019494    7349.2894     1196.565    3727.4949    8115.5839   -984.48507   -2649.6822    1578.5947 
   69500    244.61593   -132.92448   -105.63721   -132.92448            0    3563.6216    17.171203    20.225408    20.948827    7275.4143    4562.5719    1386.1039    4742.1891    631.84134   -1362.3886   -1156.6967 
   70000    230.25125   -130.96423   -105.27936   -130.96423            0    1014.1697     17.18384    20.240293    20.964244    7291.4891    4134.1607    955.54705   -2047.1986    2962.8415    1194.4884     2623.243 
   70500    237.37149   -131.64211   -105.16296   -131.64211            0    9923.4812    17.157523    20.209295    20.932138    7258.0398    10481.483    6735.8877    12553.072    -2400.885    885.60377   -2804.0802 
   71000    238.62847   -132.13099   -105.51163   -132.13099            0    1594.6475    17.239631    20.306007    21.032309    7362.7394    555.18605    3079.5939    1149.1624   -617.47116    727.38916    2570.8362 
   71500    233.15278   -130.92053   -104.91198   -130.92053            0    9214.1463    17.150768    20.201338    20.923896    7249.4701     9271.746    7541.8755    10828.818   -1305.6405   -196.41115   -37.062161 
   72000    247.05763   -129.99454   -102.43489   -129.99454            0    3122.0671    17.280437    20.354071    21.082092    7415.1459    926.75285    1380.7441    7058.7043   -1560.3864   -1560.5101   -1175.2291 
   72500    241.45898   -130.79136   -103.85625   -130.79136            0    5899.0959    17.268772    20.340331    21.067861    7400.1398    3900.9328    7248.9503    6547.4046   -890.27821    1965.0888   -224.93871 
   73000    236.94893   -131.18725   -104.75524   -131.18725            0    6231.0559    17.152498    20.203377    20.926008    7251.6649    4363.8809     9567.488    4761.7988    2711.2842   -1361.0055    2402.3475 
   73500    242.79434    -131.5475   -104.46343    -131.5475            0    4572.6591    17.181101    20.237067    20.960903    7288.0032    1972.8525    4726.3322    7018.7927   -1250.6991     1571.437    131.82028 
   74000     245.0284   -132.22658   -104.89329   -132.22658            0    3764.2316    17.179808    20.235543    20.959325    7286.3573    8353.2164    805.53417    2133.9443   -637.22415    291.85061   -143.30231 
   74500    236.86073   -130.74941   -104.32724   -130.74941            0    5094.6884    17.165412    20.218587    20.941762    7268.0559    2384.0454    5599.3986    7300.6213   -779.35693    670.31753   -265.44818 
   75000    245.63204    -131.7156   -104.31497    -131.7156            0    6412.5435    17.182182     20.23834    20.962221    7289.3785    6920.1179    5950.9235    6366.5891   -3950.3294   -405.52477    693.23096 
   75500     234.3318   -131.44355   -105.30348   -131.44355            0    5651.9249    17.130112    20.177008    20.898696    7223.3082    5660.9158    5556.3047    5738.5543   -1411.9193   -830.67453   -1404.5724 
   76000      237.066   -130.60468   -104.15961   -130.60468            0    2322.1508    17.116127    20.160536    20.881635    7205.6322    3287.9733    579.35378    3099.1253   -596.09764   -1102.5077   -99.887898 
   76500    225.88335   -132.78726   -107.58964   -132.78726            0    5432.6313    17.151337    20.202009    20.924591    7250.1924    7492.4279     4078.614     4726.852   -264.53341   -3108.6587    1856.5505 
   77000     227.3766   -131.79903   -106.43483   -131.79903            0    3654.4737    17.139122    20.187621    20.909688    7234.7123    4095.6314    3840.7218    3027.0678   -27.747226    128.92138    2672.3113 
   77500    235.79009   -130.93179   -104.62905   -130.93179            0    4495.0752    17.116738    20.161255     20.88238    7206.4032    4446.8614    8039.3648    998.99928   -2900.7417   -561.70704   -61.820698 
   78000    240.41683   -129.32958   -102.51072   -129.32958            0    5379.6731    17.114159    20.158217    20.879233    7203.1461    3892.6527    8772.1215     3474.245    6.4530212   -1448.2903   -318.42477 
   78500    237.42294   -132.09275   -105.60786   -132.09275            0    3668.6909    17.106379    20.149053    20.869741    7193.3269    3719.2988    2045.1189    5241.6549   -792.03818   -3552.5021   -791.42656 
   79000    228.30985   -130.48037   -105.01207   -130.48037            0    4066.2222    17.138191    20.186525    20.908553    7233.5341     5564.162    2593.7203    4040.7844    722.85898    1926.3866    759.92008 
   79500    251.15687   -130.41659   -102.39966   -130.41659            0    6251.2959    17.059005    20.093254    20.811946    7133.7298    7833.3599    3597.1153    7323.4126   -1281.7216    737.96908   -3596.7903 
   80000    241.62613   -129.76779   -102.81404   -129.76779            0    5814.1338    17.190369    20.247983    20.972209    7299.8027     6529.184    3588.5566    7324.6608    3841.7887   -866.93634   -1588.1342 
   80500    241.31325    -129.8438   -102.92495    -129.8438            0     7330.355    17.158171    20.210058    20.932928    7258.8619    3686.6012    10321.318    7983.1454    78.152883    1557.8072    1020.3254 
   81000    239.60569   -130.52323   -103.79485   -130.52323            0    4438.8153    17.081068    20.119241    20.838863    7161.4444     6884.105    5263.7652    1168.5758    857.78382    1845.3398    1065.8759 
   81500    233.84964   -130.15242   -104.06614   -130.15242            0    5177.3609    17.213176    20.274847    21.000034    7328.8966    2338.0027    5562.3212    7631.7589    473.99139    2205.3757     1566.366 
   82000    232.81529   -130.51396   -104.54306   -130.51396            0    7001.5275    17.147437    20.197415    20.919833    7245.2473    8843.3511    6101.1942    6060.0371    457.83831   -1441.6791   -2321.0819 
   82500    257.32227   -130.70826   -102.00358   -130.70826            0    7091.4951    17.201804    20.261452    20.986161    7314.3808    6118.3049    9548.4331    5607.7473   -979.69415    1347.7381    -1213.404 
   83000    243.88343   -129.90668   -102.70112   -129.90668            0    1840.0309    17.260731     20.33086     21.05805    7389.8066    1822.4791    743.29146     2954.322   -577.07406   -252.47482    -2751.269 
   83500    245.90661   -130.42097   -102.98972   -130.42097            0    5875.4421    17.149848    20.200255    20.922774    7248.3036    7505.0163    6983.2826    3138.0272     935.4854   -394.35314   -181.62946 
   84000    251.30154   -129.56863   -101.53557   -129.56863            0     5766.458    17.104393    20.146715    20.867319    7190.8227    7062.5956    5346.7493    4890.0292     110.7617      1338.39    303.71233 
   84500    243.79495   -130.02708   -102.83139   -130.02708            0     983.4192     17.20752    20.268185    20.993134    7321.6744    384.09659    199.36544    2366.7956    384.26188    312.02572    831.07467 
   85000     244.2472   -131.42571   -104.17957   -131.42571            0    5691.1495    17.178836    20.234398    20.958139    7285.1204    5922.4327    4147.7227    7003.2932   -93.868135   -1812.8203   -1601.2196 
   85500    248.55182   -130.36889   -102.64257   -130.36889            0    6580.1118    17.221549    20.284709    21.010249    7339.5961    4542.1291    8322.9797    6875.2267   -724.43187    3398.6217   -68.310511 
   86000    236.85039   -129.53986   -103.11885   -129.53986            0    4380.0364    17.210976    20.272255     20.99735    7326.0867    2811.2671    5358.9102    4969.9318    -301.9668    1118.6354    1114.9594 
   86500    240.57828   -130.14005   -103.30318   -130.14005            0    6564.8394    17.196279    20.254945     20.97942    7307.3352    4764.5404    7830.9686    7099.0091    408.01468    2229.9794   -328.70838 
   87000    241.28075   -131.33926   -104.42403   -131.33926            0    1765.9854    17.199398    20.258618    20.983225     7311.312   -687.53548    3622.7813    2362.7103   -143.74649    717.15961   -2620.3226 
   87500    237.60251   -129.58063   -103.07571   -129.58063            0    7064.2074     17.16558    20.218785    20.941967     7268.269    8545.4697    6641.3584    6005.7942   -2050.5189    2091.3856    551.49521 
   88000    241.91684    -129.6121   -102.62592    -129.6121            0    3017.5258    17.119377    20.164364      20.8856    7209.7376    1810.9635    4211.8651    3029.7488   -976.27455   -3731.0029     569.1821 
   88500    232.14511    -128.7135   -102.81737    -128.7135            0    5201.1433    17.209044    20.269979    20.994993    7323.6194    4766.8269    4191.9649    6644.6382   -1070.9693    86.391605    1463.7084 
   89000     227.6686   -129.81731   -104.42054   -129.81731            0    6100.9348     17.15792    20.209763    20.932622    7258.5436    5195.7788    4996.6106    8110.4148      2344.98    373.56433    -2125.687 
   89500     236.0825   -131.45858   -105.12322   -131.45858            0    3981.0948    17.197854    20.256799    20.981341    7309.3426    3284.9125    4795.0046    3863.3672   -4818.2981    758.69595    -1630.904 
   90000    235.52711   -131.65762   -105.38421   -131.65762            0    7357.2138        17.08    20.117983     20.83756    7160.1014    8656.4201    6506.9226    6908.2988   -42.215963   -2405.2896    1226.0765 
   90500    239.50006    -130.6265    -103.9099    -130.6265            0    5845.4531    17.149264    20.199567    20.922062    7247.5634    3906.2678    4823.4813    8806.6102   -2544.3759    1.4825357    747.67456 
   91000    234.97468   -129.68078     -103.469   -129.68078            0    5297.5375    17.249577    20.317722    21.044443    7375.4905    5390.5591    4625.4756    5876.5778    566.58049    1458.1965   -296.27575 
   91500    221.93522   -131.11856   -106.36135   -131.11856            0    7043.0459    17.235711     20.30139    21.027526    7357.7183     7782.074    6583.1059    6763.9576   -630.20536    1586.5892    -796.8534 
   92000    239.52492   -131.04597   -104.32661   -131.04597            0    2589.6947    17.261009    20.331188     21.05839    7390.1642    3071.6079    2324.4999    2372.9763    585.90205    -1868.715   -875.47434 
   92500    238.11299    -131.4947   -104.93284    -131.4947            0    4098.2157    17.256819    20.326252    21.053278    7384.7835    7561.5484    3070.6567    1662.4419   -698.42182    431.93188   -2435.5561 
   93000    230.70886   -130.03903   -104.30311   -130.03903            0    6025.0228    17.195824    20.254408    20.978864    7306.7545    5047.2482    4219.5982     8808.222    -51.44498    873.12484    -526.9467 
   93500    242.09946   -131.99233   -104.98577   -131.99233            0    2705.5692    17.231662     20.29662    21.022586    7352.5339    2709.6072    1415.3231    3991.7772   -1627.0571   -1386.0447    947.85854 
   94000    241.41513   -132.11134   -105.18112   -132.11134            0    5276.4499    17.262885    20.333398    21.060679    7392.5747     6221.772    1127.8569    8479.7208   -1014.3623    308.18503    1492.7037 
   94500      237.407    -131.7688   -105.28569    -131.7688            0    6319.6333    17.186708    20.243671    20.967743    7295.1405    7675.4707    7874.4062     3409.023    2124.5822    106.42927   -1664.2514 
   95000    222.31908      -131.27   -106.46997      -131.27            0    2489.7014    17.226484    20.290521    21.016269    7345.9077     3410.758    584.00217    3474.3441    1365.4005   -1306.3877   -323.13286 
   95500    234.21088   -129.79747    -103.6709   -129.79747            0    2781.7172     17.23343    20.298704    21.024744    7354.7984    5348.6459     1994.468    1002.0378    214.99845   -1098.5679    1072.6778 
   96000    250.82855   -130.85345   -102.87314   -130.85345            0    8753.2502    17.181295    20.237295    20.961139    7288.2496    9088.4795    8275.2486    8896.0225    697.94667    2425.8724   -1486.2323 
   96500    239.60567   -129.77686   -103.04848   -129.77686            0     3602.172    17.246741    20.314382    21.040983    7371.8535    5081.9447    3272.4941    2452.0774    250.59881     367.1961    -2204.801 
   97000    232.54778   -129.80063   -103.85958   -129.80063            0    4295.7364    17.211374    20.272724    20.997835    7326.5947    3467.2504    6276.0132    3143.9457   -307.55986    1751.5497     464.9837 
   97500    235.67347   -129.88882   -103.59909   -129.88882            0     3844.361    17.171575    20.225847    20.949281    7275.8875    4958.9001    4139.8763    2434.3065    406.66337   -1421.7064    959.19165 
   98000     235.4468   -131.17036   -104.90592   -131.17036            0    3416.7365     17.23513    20.300706    21.026818    7356.9745    2114.7789    3449.5591    4685.8714   -1332.8148     393.4876    1522.9787 
   98500    241.81634   -130.89401   -103.91903   -130.89401            0    8035.2726    17.218164    20.280722     21.00612    7335.2699    10798.816    7797.7864    5509.2151   -679.10149   -97.111999    1795.3686 
   99000    239.37142   -131.04899   -104.34675   -131.04899            0    4950.6077     17.13745    20.185651    20.907648    7232.5948    5234.3252    5413.1749    4204.3229    115.81865    829.98166   -371.54527 
   99500    246.38693   -130.44262   -102.95778   -130.44262            0    4230.1193    17.295031    20.371261    21.099897    7433.9494    5176.8836    2890.8236    4622.6506   -1449.5766   -629.30539    2864.0611 
  100000    234.36446   -129.58095   -103.43724   -129.58095            0    6712.5657     17.15332    20.204344     20.92701    7252.7066    4305.5306    7758.7412    8073.4252    447.43071   -1991.1908   -2289.0298 
  100500    249.17919   -131.21325   -103.41693   -131.21325            0    7876.7304      17.2009    20.260387    20.985057     7313.227    8502.7217    6614.3513    8513.1182   -476.22683    1311.4188    309.67399 
  101000    237.16959   -130.52718   -104.07056   -130.52718            0    2915.9028    17.232854    20.298024    21.024041    7354.0598    731.80094    4592.8347    3423.0728    1655.5592   -2686.8017   -419.98855 
  101500    247.51575   -131.56219   -103.95144   -131.56219            0    8485.0708    17.185031    20.241695    20.965697    7293.0049    9710.6654    5247.6927    10496.854   -1000.3147   -249.02676    165.51963 
  102000    237.31847   -131.35363    -104.8804   -131.35363            0    5674.3989    17.128903    20.175584    20.897221    7221.7788    2735.8974    8536.2522    5751.0471   -2262.9984   -1818.6561    1689.6663 
  102500    226.61652   -130.41079   -105.13137   -130.41079            0    4296.5098    17.181556    20.237603    20.961458    7288.5821    5050.4045    4445.2852    3393.8398    490.41007    402.92334   -1939.1784 
  103000    241.07652   -130.14307   -103.25062   -130.14307            0    2547.6902    17.142775    20.191924    20.914145    7239.3396    3616.7829    1386.9622    2639.3254    320.18398    659.65494   -2539.5101 
  103500    233.48097   -131.65257   -105.60742   -131.65257            0    5364.7922    17.165304     20.21846     20.94163    7267.9188    4755.9031     3862.745    7475.7284    575.76171   -1263.3616   -1894.2345 
  104000    250.21529   -132.05944   -104.14754   -132.05944            0    4680.5745    17.195934    20.254537    20.978998    7306.8945    5769.4235    5934.2627    2338.0374   -2676.2602    3402.2019   -115.49642 
  104500    239.08531   -131.99413   -105.32381   -131.99413            0    4015.9905    17.152321    20.203167    20.925791    7251.4396    3146.2716    5903.7125    2997.9872   -1303.2093    1153.1733    2265.4057 
  105000    246.98026   -130.90852    -103.3575   -130.90852            0    4966.0375    17.111847    20.155494    20.876413    7200.2273    5375.8595    4633.2766    4888.9763   -3668.4908     7.288765   -2966.6686 
  105500    237.78879   -130.22943   -103.70374   -130.22943            0    2984.2098    17.164968    20.218064     20.94122    7267.4913    2440.7765    385.06883    6126.7841    610.98161    1826.1763    1471.4045 
  106000    242.47716   -131.27076   -104.22207   -131.27076            0    7901.7916    17.110503    20.153911    20.874773     7198.531    5667.8541    8109.6231    9927.8975   -1708.2773   -1883.9202   -114.26276 
  106500    231.60604   -130.66707   -104.83107   -130.66707            0    4998.9806    17.091754    20.131827    20.851899    7174.8933    4261.4167    6113.7639    4621.7611    706.92395     395.5045    2034.4405 
  107000    243.61691   -132.34038   -105.16455   -132.34038            0     5516.665    17.122731    20.168315    20.889692     7213.976    3587.5251    7693.2238    5269.2462     149.7153    696.35968   -418.54059 
  107500    234.26966   -130.51033    -104.3772   -130.51033            0    4126.5249    17.232463    20.297564    21.023564    7353.5591    6907.3409    1172.1731    4300.0607   -37.357752    2498.0415    1045.8839 
  108000    247.58604    -130.6849    -103.0663    -130.6849            0    7263.2681    17.076243    20.113558    20.832976     7155.377    7501.2572    10525.211    3763.3362   -996.62297   -829.98878   -1492.3743 
  108500    246.58153   -130.41682   -102.91028   -130.41682            0    6138.9601    17.170859    20.225003    20.948408    7274.9774    6168.4832    5023.1368    7225.2603   -418.03791   -172.37976   -1040.7876 
  109000    226.14084   -129.67608   -104.44973   -129.67608            0    2916.1655    17.193586    20.251773    20.976135    7303.9029    2447.1624    4220.0323    2081.3018   -651.99139   -176.45544    1056.8989 
  109500    242.04429   -130.56655   -103.56615   -130.56655            0    6452.6548    17.083626    20.122254    20.841983    7164.6623    7360.1345    8924.7321    3073.0979   -322.60941   -541.22517   -305.53669 
  110000    231.17461   -130.01007   -104.22219   -130.01007            0    5877.7313    17.134346    20.181996    20.903862    7228.6665    1946.9134    5579.2467    10107.034   -825.83001   -1266.4148    150.56662 
  110500    239.61684   -131.75894   -105.02932   -131.75894            0    3747.0327    17.058318    20.092445    20.811108     7132.868    4225.4683    3325.7674    3689.8623     1819.624    1758.2924   -3049.7121 
  111000    234.52844   -130.51412   -104.35211   -130.51412            0    3069.5618    17.167547    20.221101    20.944366    7270.7677    3133.4028    2125.2639    3950.0188    1167.8737    2066.7201    2231.9991 
  111500    239.17088   -131.03282   -104.35295   -131.03282            0    5444.8879    17.084924    20.123783    20.843567    7166.2953    8180.5552    7224.9103    929.19826    1534.8241    415.74124    456.97568 
  112000     237.2496   -130.82513   -104.35958   -130.82513            0    4955.1461     17.07396    20.110869    20.830191    7152.5079    5966.6642    4114.6718    4784.1023   -423.34026    77.701681    546.30878 
  112500    232.23037   -131.40671   -105.50106   -131.40671            0    4507.8612    17.087223    20.126491    20.846371    7169.1886    7826.4195    2853.4335    2843.7305    128.31628    276.23487    621.92507 
  113000    238.16282   -131.43501   -104.86758   -131.43501            0    4464.7358    17.117746    20.162442    20.883609    7207.6762    3475.9599    6555.0746    3363.1729   -1119.2488   -683.92429    100.47945 
  113500    235.72855   -130.64452   -104.34865   -130.64452            0    321.50493    17.147565    20.197566    20.919989    7245.4099    627.94461   -1646.8425    1983.4127   -1638.5496    1366.2385   -606.96211 
  114000    243.16787   -131.89949   -104.77375   -131.89949            0    8905.9384    17.105531    20.148055    20.868707    7192.2573    8926.7859    9095.9336    8695.0958    2447.1301    1751.6453   -375.47594 
  114500    241.04337   -130.55639   -103.66764   -130.55639            0    2699.3857    17.270435     20.34229     21.06989    7402.2779    2244.0659    3296.5436    2557.5475    -1367.603   -1810.4327    536.64059 
  115000    244.56889   -131.41806   -104.13603   -131.41806            0     4827.741    17.125822    20.171955    20.893462    7217.8831     5770.419    3480.0566    5232.7475   -973.75328   -45.753194   -1013.1357 
  115500    232.58177   -129.60343   -103.65859   -129.60343            0     4533.576    17.185525    20.242278      20.9663    7293.6347    5338.4773    4064.7982    4197.4525    582.35643    28.533307     2578.818 
  116000     229.9363    -130.4128   -104.76306    -130.4128            0    4364.3157    17.165179    20.218313    20.941478    7267.7602    2000.6003    6307.8289     4784.518    2287.8896    1210.2541     -194.912 
  116500    250.78329   -130.69125   -102.71599   -130.69125            0    3948.3724    17.183476    20.239864      20.9638    7291.0251    2153.7213    3895.5409    5795.8551     3143.326    939.36508    1739.0962 
  117000    226.69645   -131.01908   -105.73075   -131.01908            0    5455.0985    17.185634    20.242406    20.966433    7293.7728    7168.9936    6438.1794    2758.1224    1789.9733   -2713.0931   -570.12114 
  117500     231.7107   -130.86655   -105.01887   -130.86655            0    1732.2278    17.213772    20.275549    21.000761     7329.658    2342.2505    143.91555    2710.5173    3396.8664    239.84448   -623.44737 
  118000    231.26464   -131.22002    -105.4221   -131.22002            0    5630.5846    17.224069    20.287677    21.013324    7342.8192    4825.2857    7109.7203    4956.7478   -127.89747    619.07661    1102.2737 
  118500    238.33838   -130.92001     -104.333   -130.92001            0    5385.2203    17.235682    20.301355    21.027491    7357.6808    6160.2327    3082.7238    6912.7044    503.59328   -3178.7364   -623.83991 
  119000     233.0715    -131.2438   -105.24432    -131.2438            0    8972.2153     17.13504    20.182813    20.904708    7229.5443    6490.9625    8837.0016    11588.682    1504.5116   -3601.7384   -1627.5934 
  119500    237.61491   -129.70678   -103.20048   -129.70678            0    6060.5593    17.161205    20.213632    20.936629     7262.713    3635.0313    7974.4147    6572.2317   -3242.0737    63.872312   -212.07614 
  120000    240.18497   -129.78776   -102.99477   -129.78776            0   -154.37286    17.124554    20.170461    20.891915    7216.2795    905.39771    -3564.799    2196.2827   -1119.6706   -565.56802   -2318.3657 
  120500    237.19404   -129.25211   -102.79275   -129.25211            0    5049.4687    17.141185    20.190051    20.912205    7237.3252    6985.3775    6411.3662    1751.6623   -1699.9671   -326.96823     1154.869 
  121000    244.62028   -130.48986    -103.2021   -130.48986            0    6067.2763    17.180223    20.236033    20.959832    7286.8858    7589.9079    8176.3528    2435.5684   -998.15006     252.9746   -401.45176 
  121500    241.47805   -130.60382   -103.66658   -130.60382            0      5249.29    17.093816    20.134257    20.854415    7177.4907    7592.9476    4105.7248    4049.1975    1067.4454   -286.29394    802.27933 
  122000    252.85768   -131.25508   -103.04843   -131.25508            0    4577.2035     17.11579    20.160139    20.881224    7205.2065     1975.775    2585.7233    9170.1121    403.27932   -795.21985    447.93619 
  122500    251.38962   -130.04406   -102.00117   -130.04406            0    6313.8227    17.194831    20.253239    20.977653     7305.489    7045.4251     2379.638     9516.405    1102.4647   -178.21143    2242.4586 
  123000    234.55897     -130.435    -104.2696     -130.435            0    4196.5931    17.189065    20.246447    20.970618     7298.142    5569.6502    4299.1327    2720.9965   -1490.7324    2598.0239   -1.6785991 
  123500    228.85211   -130.33597   -104.80717   -130.33597            0    2867.8777    17.224844     20.28859    21.014268    7343.8098    1707.6628    5698.0967    1197.8735   -333.40143   -193.52418    1223.0878 
  124000    241.58426   -131.19783   -104.24875   -131.19783            0    5986.3655    17.121029    20.166309    20.887615    7211.8241    8146.1765    8366.3503    1446.5697   -318.39621   -1476.3155    531.67536 
  124500    244.40101   -131.26401   -104.00071   -131.26401            0    5072.6996    17.251918     20.32048    21.047299    7378.4941    8206.0888    2314.9692    4697.0407   -1439.0054     1664.901   -110.72438 
  125000    253.35682   -130.34533     -102.083   -130.34533            0    8403.6204    17.141412    20.190318    20.912482    7237.6121    9369.1794    6209.5922    9632.0895    2280.9904    -1825.551     612.7127 
  125500    237.02835   -129.61418   -103.17331   -129.61418            0     3676.369    17.209344    20.270334    20.995359    7324.0034    4376.6566    1093.6875    5558.7629   -1273.8631    1780.4895    2248.6494 
  126000    242.29219   -130.59123   -103.56317   -130.59123            0    3310.7988    17.208265    20.269062    20.994042     7322.625    7144.0121    2816.6357   -28.251283    1863.1421    1764.7841   -1166.3678 
  126500    237.81183   -132.50566   -105.97739   -132.50566            0    4546.6926    17.210148    20.271281     20.99634    7325.0299    1571.1127    1291.7836    10777.182    875.20176   -846.58302    430.35012 
  127000    243.80259   -131.36408   -104.16754   -131.36408            0     6629.167    17.108353    20.151379    20.872151    7195.8183    8256.1702    9202.2855    2429.0454   -1191.3674    69.205999   -1920.5673 
  127500     238.3545   -130.50719   -103.91839   -130.50719            0     1899.984    17.248057    20.315932    21.042588    7373.5405    203.24638    4148.0945    1348.6111   -2503.0454   -1645.5568    276.08609 
  128000    244.76756   -131.91374   -104.60955   -131.91374            0     4641.304    17.169725    20.223668    20.947024    7273.5363    7915.5327    2529.5379    3478.8415   -3091.2732   -1384.1226    753.79096 
  128500    239.39257   -131.45377   -104.74917   -131.45377            0    8826.5593    17.162324     20.21495    20.937995    7264.1342    10482.815     10426.72    5570.1427    1582.6159    4029.9506   -2387.6903 
  129000    242.59089   -131.20527   -104.14389   -131.20527            0    2414.6904    17.245289    20.312672    21.039212     7369.992    1607.7129   -737.82076    6374.1792    1567.2134   -1987.4183    946.73485 
  129500    238.88806    -130.8614   -104.21308    -130.8614            0    9707.8976    17.158353    20.210273     20.93315     7259.093    9389.3168    9918.4305    9815.9455    2451.0498    2010.7752    1042.9373 
  130000    226.27165   -131.01906   -105.77812   -131.01906            0    2812.0443    17.170049    20.224049    20.947419    7273.9476    6253.5161    94.763275    2087.8537     296.0423    2549.8266   -328.42155 
  130500    234.06978   -130.38927   -104.27844   -130.38927            0    7241.8739    17.182261    20.238432    20.962317    7289.4785    11189.374    7627.7799     2908.468    458.20295   -1222.3373   -464.54571 
  131000    230.10541   -131.13531    -105.4667   -131.13531            0    8557.1377    17.143415    20.192678    20.914926    7240.1507    11996.158    7284.9823    6390.2726   -1518.4594    1413.3137    306.22611 
  131500    231.28877   -132.18477   -106.38416   -132.18477            0    4596.7277    17.125425    20.171488    20.892978    7217.3814    4413.1948    5214.1811    4162.8072   -773.12809   -1877.5578    796.95972 
  132000      239.697   -131.51069   -104.77213   -131.51069            0    6561.9353    17.214117    20.275956    21.001183    7330.0991    6952.3326    4223.7183     8509.755   -1118.8652   -761.56193    2929.9295 
  132500    242.63249   -130.76096   -103.69494   -130.76096            0    2241.6711    17.229099    20.293602     21.01946    7349.2536    2666.6268    510.58643    3547.8002   -315.14695    998.76856     9.201525 
  133000    251.39418    -131.3234   -103.28001    -131.3234            0    4745.2205    17.131808    20.179006    20.900765    7225.4544    5701.3417    5297.2942    3237.0256    143.28816    1058.7568    1591.4825 
  133500    243.89216   -131.29738   -104.09084   -131.29738            0    3425.2373    17.154996    20.206318    20.929054    7254.8325     4732.614    3694.9375    1848.1603    593.67493   -1080.5918    1727.9002 
  134000    224.70855   -132.07902   -107.01244   -132.07902            0    5047.4348    17.229242    20.293771    21.019635    7349.4372    4913.7516    3914.5547    6313.9982    1829.0468    1254.4739      1251.71 
  134500    238.77049   -133.22727   -106.59206   -133.22727            0    7435.1361    17.138729    20.187159    20.909209    7234.2152    6905.8908    7549.5313    7849.9864      538.976    1418.9107   -1896.4215 
  135000    231.09899   -133.08817   -107.30873   -133.08817            0    459.57954    17.261172    20.331379    21.058589    7390.3733   -572.34982    169.73744     1781.351   -2408.7597   -3299.6933   -1219.7257 
  135500    242.21612   -132.77055   -105.75097   -132.77055            0    5895.6729    17.152349      20.2032    20.925825     7251.475    7766.0164    5381.6541    4539.3483    1496.1216    1028.3863    2207.6275 
  136000    244.58935   -132.97293   -105.68862   -132.97293            0    975.67175    17.256608    20.326004    21.053021    7384.5134    4135.3787    1844.5025   -3052.8659   -652.95244    3234.0727   -2296.5175 
  136500    240.84119   -132.03353   -105.16733   -132.03353            0    6041.6785    17.154095    20.205257    20.927955    7253.6897    4379.9934    9566.0647    4178.9773    1473.0873   -2432.7544    2724.4896 
  137000      238.888   -132.65201   -106.00369   -132.65201            0    6079.7881    17.214468    20.276369     21.00161    7330.5469    7808.2552    6180.8019    4250.3073   -2789.0001    392.95902   -513.22816 
  137500    243.70912   -131.50664   -104.32052   -131.50664            0    4959.0668    17.236546    20.302374    21.028546    7358.7885    4554.8269    7000.8433    3321.5301   -808.90162    1451.8039    1156.2383 
  138000    241.98667   -133.11792   -106.12394   -133.11792            0    6532.5143    17.218731     20.28139    21.006811    7335.9941     6767.933    6412.3715    6417.2383    1356.9804    291.15164    774.24347 
  138500    229.50731   -131.45611   -105.85422   -131.45611            0    6363.9861    17.208503    20.269342    20.994332    7322.9286    6800.9377    6479.1992    5811.8214    1301.7762   -3156.7516     1793.737 
  139000    236.78017   -133.88819   -107.47501   -133.88819            0     8860.726    17.198404    20.257447    20.982012    7310.0437    8326.9543    10769.195     7486.029   -167.25621   -1671.0077    138.47371 
  139500    235.48297   -132.54474   -106.27626   -132.54474            0    3741.7774    17.146662    20.196502    20.918887     7244.265    3577.0812    -235.6352    7883.8862    2078.6943   -1077.4656     1498.852 
  140000    242.53232   -131.93317   -104.87833   -131.93317            0    6208.6559    17.196069    20.254697    20.979164    7307.0671    5939.7648    6926.2316    5759.9714   -1654.0987    735.76171    -297.5534 
  140500    242.39602    -131.2009   -104.16126    -131.2009            0    8212.0174    17.200539    20.259962    20.984617    7312.7671    6757.0941     8714.089    9164.8691     4081.857     1124.593   -3281.8246 
  141000    243.29291   -132.73116   -105.59147   -132.73116            0    3699.2127    17.217363    20.279778    21.005142    7334.2454    6560.4185   -482.43162    5019.6513   -107.81056    -2011.341   -79.803817 
  141500    236.42571   -132.52088   -106.14723   -132.52088            0    6679.6822    17.180155    20.235952    20.959748     7286.799    6198.1209    8428.2556    5412.6702   -1856.4235    2230.0639   -585.38481 
  142000    237.93347   -131.96357   -105.42173   -131.96357            0    8610.2286    17.177877    20.233269    20.956969    7283.9007    8727.6735    10240.613    6862.3995   -529.03346    1579.7878    1758.2479 
  142500    246.11851     -131.791   -104.33611     -131.791            0    3371.1548    17.216998    20.279349    21.004697    7333.7796     5930.123    2197.0393    1986.3021   -30.626037   -1591.5468   -599.78428 
  143000    245.69471   -131.84929   -104.44168   -131.84929            0    1610.9453    17.196377    20.255059    20.979539    7307.4595    5328.7444    1755.8538   -2251.7621    1371.7109   -1518.5221    1790.8964 
  143500    244.10816   -132.41364   -105.18301   -132.41364            0    7640.0027    17.173724    20.228378    20.951903    7278.6197    11666.751    9150.7439    2102.5131    2039.8976    795.57632     3416.625 
  144000    247.22726   -132.83175   -105.25318   -132.83175            0    5220.6645    17.143937    20.193292    20.915563    7240.8115    7286.3756    4728.6303    3646.9876   -1369.7723    1776.5784   -2998.3719 
  144500    244.45221   -132.77647   -105.50745   -132.77647            0    2742.5132    17.158685    20.210663    20.933555    7259.5137    4554.8138    3736.3845   -63.658742   -1308.0409   -192.18829    725.03049 
  145000    247.05203   -131.52558   -103.96656   -131.52558            0    7596.0817     17.11971    20.164756    20.886006    7210.1578    9764.2475    4990.3285    8033.6692    1314.6059    2264.6211    446.13564 
  145500    241.07155   -131.50872   -104.61682   -131.50872            0    4461.4743    17.157771    20.209587     20.93244     7258.354    4616.5574    3984.5822    4783.2833   -1440.0023   -2618.7217    3121.7947 
  146000      241.687   -132.78471   -105.82416   -132.78471            0    6911.6776    17.216501    20.278763    21.004091    7333.1444    7162.1353    8755.9009    4816.9965    2172.2425   -1086.0532    838.23848 
  146500    235.82571   -132.97897   -106.67225   -132.97897            0    4459.8324    17.126992    20.173334     20.89489    7219.3629    7045.7983    4090.4362    2243.2628   -425.90253   -1360.0052    816.66137 
  147000    245.45552   -133.97632   -106.59539   -133.97632            0    7564.8444     17.19283    20.250882    20.975212    7302.9394    8920.1171    7154.7428    6619.6735    524.98257   -825.44781   -2976.8666 
  147500    231.58089   -132.37802   -106.54482   -132.37802            0    1434.9043    17.171916    20.226248    20.949697    7276.3206    3070.6552    1477.1267    -243.0689    517.98603    722.20696    2008.4251 
  148000    236.53116     -132.364    -105.9786     -132.364            0    7496.5537    17.086534     20.12568    20.845532    7168.3222    9824.0786    10311.493    2354.0896    3098.3705    401.88696   -457.81212 
  148500    232.62447    -132.0379   -106.08829    -132.0379            0    2367.3619     17.20759    20.268268     20.99322    7321.7642     1710.432    3869.3363    1522.3173    600.29999    1438.3469   -1387.7035 
  149000    243.46539    -130.6475   -103.48857    -130.6475            0    7680.3612    17.060479     20.09499    20.813744    7135.5795    9716.1618    6953.0795    6371.8424    329.83524   -965.57832   -479.86714 
  149500    252.20218    -131.7375   -103.60396    -131.7375            0    4584.9003    17.205322    20.265595    20.990452    7318.8684    5738.2286    4757.7359    3258.7365    426.61694    891.93258    515.28031 
  150000    251.79165   -133.63352   -105.54579   -133.63352            0    5015.2214    17.169993    20.223983    20.947351    7273.8763    5310.3646    8984.8949    750.40481   -2171.2712   -646.55429    1232.1227 
  150500    229.91048   -131.66649   -106.01963   -131.66649            0    6179.7516     17.10746    20.150327    20.871061    7194.6911    9337.8545    5245.4168    3955.9836   -314.89353    1388.6433   -2121.2969 
  151000    243.62267   -131.84001   -104.66354   -131.84001            0    2023.1634    17.156554    20.208154    20.930956    7256.8103    3306.2244    1202.4806    1560.7852    1391.8934    69.163882   -21.982201 
  151500    235.85135   -131.91192   -105.60234   -131.91192            0    4624.4538     17.16809    20.221742     20.94503    7271.4584     7040.036     3969.706    2863.6193    1998.9771    184.77794    1975.3843 
  152000    239.44503   -132.59277   -105.88232   -132.59277            0    8188.5323    17.126548    20.172811    20.894349    7218.8014    7573.3001     8903.186    8089.1109   -546.67112   -63.946703    1528.2897 
  152500     230.8974   -132.22566   -106.46871   -132.22566            0    2735.1665    17.155849    20.207323    20.930095    7255.9149    4197.4464    1930.2984    2077.7547   -1174.0041    700.23766    1385.5362 
  153000    238.67713   -131.58067   -104.95588   -131.58067            0    6278.9349    17.122405    20.167931    20.889294    7213.5636    6931.5732     4497.877    7407.3546     2000.836    1364.2696    932.37498 
  153500    231.99376   -131.24076   -105.36151   -131.24076            0    1883.3103    17.150797    20.201372    20.923932    7249.5069    4010.0191    867.16676    772.74495    372.43188     705.8832   -716.00033 
  154000    245.36926   -132.31792   -104.94661   -132.31792            0    7335.0279    17.084709    20.123529    20.843304    7166.0249    6750.7579     5042.859    10211.467    2465.9384    354.87706   -1303.9524 
  154500    237.43842   -132.12406   -105.63744   -132.12406            0      5618.22    17.134663    20.182369    20.904249    7229.0674    7242.7989    5088.7267    4523.1343   -112.15066   -1888.6682    2487.3068 
  155000    224.67104   -130.85348   -105.79108   -130.85348            0    5434.9018    17.135531    20.183391    20.905307    7230.1657    8405.4503    5906.3296    1992.9255    50.425879   -2152.0558    318.76689 
  155500    244.21833   -132.44167   -105.19875   -132.44167            0    7338.3926    17.103875    20.146104    20.866687    7190.1689    9569.0615     6532.665    5913.4512    1052.9958    63.306813    4372.1113 
  156000     224.9573   -131.04825   -105.95393   -131.04825            0    1190.4432    17.135933    20.183865    20.905798    7230.6749    791.21984    3479.6733   -699.56349   -1093.1628   -4059.5765    1091.1622 
  156500    234.08171   -132.49702   -106.38486   -132.49702            0    2847.9644    17.134162    20.181779    20.903637    7228.4332    2485.4758    3348.5316    2709.8857    503.62463    -283.4605   -1351.8385 
  157000    226.68722   -132.50079   -107.21349   -132.50079            0    4453.5595    17.197724    20.256647    20.981183    7309.1773    3335.3676    5334.4577    4690.8532   -1327.8489   -3125.7359    3126.7869 
  157500    230.57331    -133.0152    -107.2944    -133.0152            0    9996.5559    17.117972    20.162709    20.883885    7207.9621    12969.873    9319.7794    7700.0148   -588.64676    -694.3535    -982.1375 
  158000    229.28348   -131.89952    -106.3226   -131.89952            0    2569.6481    17.160435    20.212725     20.93569     7261.736    4576.1124    2579.2243     553.6075   -2090.3335   -1186.1001    35.221828 
  158500    244.60124   -133.29411   -106.00847   -133.29411            0     3778.287    17.231667    20.296626    21.022593    7352.5404    4961.0413    3019.3431    3354.4764    356.83911    1294.2684   -686.79824 
  159000    238.63568   -133.05414   -106.43398   -133.05414            0    8458.7374    17.179846    20.235589    20.959372    7286.4064     9826.015    10376.346    5173.8511   -2400.8596    485.09746   -1800.4928 
  159500    243.16697   -131.30575   -104.18011   -131.30575            0    3392.9477    17.269614    20.341323    21.068888    7401.2218    6807.1368    2894.3818    477.32441   -657.82461    187.16799    324.51916 
  160000     237.4598   -130.92793   -104.43893   -130.92793            0    7096.8079    17.129159    20.175885    20.897533    7222.1025    7354.5765    4735.1531     9200.694   -3293.4553    30.877455   -1539.1026 
  160500    231.59771   -130.60376   -104.76868   -130.60376            0    8823.5415    17.163007    20.215754    20.938828    7265.0009    10264.738    8492.9015    7712.9853    319.75946   -1892.7831   -680.10115 
  161000    233.08587   -131.45429   -105.45321   -131.45429            0     3458.321    17.214747    20.276697    21.001951    7330.9035    6590.5814    1986.9059    1797.4756   -1942.9326    3069.7466   -805.38008 
  161500    243.69765    -132.5286   -105.34376    -132.5286            0    4406.9034    17.191444     20.24925    20.973521    7301.1731    4668.2141    4684.4243    3868.0718    157.11328   -346.66923    153.41808 
  162000     249.9443    -132.3136   -104.43194    -132.3136            0    4211.8633    17.140677    20.189453    20.911586    7236.6822    8056.8069    2817.5601     1761.223     764.4168    728.40228   -215.68905 
  162500    228.62612   -130.90262   -105.39903   -130.90262            0    5643.7165     17.20457     20.26471    20.989535    7317.9096     4916.386    4516.3571    7498.4065    1389.3947    3311.8463   -1884.5488 
  163000    238.26309   -131.64949   -105.07089   -131.64949            0     4346.934    17.195521    20.254051    20.978494     7306.368    4919.6538    2709.1515    5411.9966   -409.74222    1994.4956    46.512107 
  163500    233.53055   -130.80827   -104.75758   -130.80827            0    7544.4876    17.158736    20.210724    20.933618    7259.5794    5558.1415    7777.7954    9297.5258   -1344.9513   -1398.0912    -1561.507 
  164000    238.24517   -131.39005   -104.81345   -131.39005            0    4267.9065    17.244435    20.311666     21.03817    7368.8967    7011.5997    1636.8323    4155.2874    1300.9041   -889.89178    1543.8097 
  164500    242.74428   -131.62773   -104.54924   -131.62773            0    5618.3486    17.209157    20.270112     20.99513    7323.7635    6878.4965    3929.4699    6047.0794     2608.646    479.38485   -858.09595 
  165000    242.72055   -131.36725    -104.2914   -131.36725            0    2164.6558    17.199444    20.258672    20.983281    7311.3705    1405.3207    1398.5544    3690.0922    1389.6042    -3862.365   -1532.2515 
  165500    243.71487   -131.92052   -104.73376   -131.92052            0     7298.346    17.215618    20.277723    21.003013    7332.0164    8509.7735    7766.1253    5619.1392    1385.9211   -3402.2294     231.0072 
  166000    242.17967   -130.44065   -103.42515   -130.44065            0    3163.0754    17.130216    20.177131    20.898823    7223.4406    5649.5725    3876.9239   -37.270104    -553.6301    233.73952    1462.7334 
  166500    244.61066   -132.65926   -105.37257   -132.65926            0    2793.9047    17.260624    20.330734     21.05792    7389.6696     2729.124    5444.1052    208.48481    498.26516    2223.2568   -1281.8285 
  167000    239.04393   -132.46952   -105.80381   -132.46952            0    6449.4777    17.114265    20.158343    20.879363    7203.2804    7130.3033     7748.799    4469.3309   -2618.4999    1065.8164   -1722.6999 
  167500     236.5129   -132.30092   -105.91755   -132.30092            0    3548.4814    17.183078    20.239395    20.963315     7290.519    4358.8753    2869.8209    3416.7479     1695.946    598.73189   -2007.1787 
  168000    245.93563   -131.87949     -104.445   -131.87949            0    7760.3312    17.115708    20.160043    20.881124    7205.1029    8252.0908    10097.387     4931.516     1837.021    1961.0319   -1568.7779 
  168500    235.73404   -131.03405   -104.73757   -131.03405            0    3295.4918    17.147982    20.198057    20.920498    7245.9384    3146.2832    3971.5924    2768.5998    1273.3733   -1509.7064   -2494.2977 
  169000    247.26826    -130.5897   -103.00656    -130.5897            0    4723.5221    17.234078    20.299466    21.025534     7355.627    4232.7206     4299.182    5638.6636    -2199.287   -749.37938   -564.57872 
  169500    245.07153   -132.15653   -104.81843   -132.15653            0    3057.8469    17.182365    20.238556    20.962445    7289.6115     5676.335   -385.82914     3883.035   -214.92276   -301.89959    1681.7202 
  170000    244.22698    -130.7254   -103.48151    -130.7254            0    9874.7494     17.13313    20.180563    20.902378    7227.1269    7339.3339    13295.933    8988.9813   -36.140836    1563.3345    302.91739 
  170500    233.40304   -132.74162   -106.70516   -132.74162            0    3094.9675    17.143971    20.193332    20.915604    7240.8545    4754.0198    1235.0686    3295.8139   -1101.9439   -1694.2402   -349.37697 
  171000    236.08142   -133.18041   -106.84518   -133.18041            0    4882.7407    17.156156    20.207684    20.930469    7256.3044    7894.4965    66.034311    6687.6912   -215.10997    763.22924   -230.31668 
  171500     241.4118   -132.78121   -105.85136   -132.78121            0    8044.1668    17.156103    20.207623    20.930406    7256.2381    8586.6249    8365.5126    7180.3628    62.537387    16.892684    1936.2725 
  172000    246.51137   -133.39974   -105.90103   -133.39974            0    4540.1999    17.245185    20.312549    21.039085    7369.8584    2770.7191    2489.1298    8360.7507   -223.64439   -1329.6243    1508.7079 
  172500    250.15905    -132.1352   -104.22959    -132.1352            0    6195.6605    17.127118    20.173482    20.895043    7219.5215     9524.153    2310.2592    6752.5692    1780.5087   -257.16904     2060.511 
  173000    239.82624   -132.60647   -105.85349   -132.60647            0     2026.136    17.192474    20.250463    20.974778    7302.4854   -18.561262   -1162.4787    7259.4481   -712.13722   -2734.4704   -36.855878 
[...]
  958500    238.43774   -136.16761   -109.56952   -136.16761            0    6270.6954     17.17741    20.232719      20.9564    7283.3072    4144.3632    5520.9223    9146.8008    659.94003   -804.49078    3687.9289 
  959000    237.21313   -134.87108    -108.4096   -134.87108            0    6004.2191    17.181444     20.23747    20.961321     7288.439    4682.2204    6461.7964    6868.6406     1885.113    466.48285   -1385.1312 
  959500    236.83023   -133.93178   -107.51301   -133.93178            0    6034.2136    17.172557    20.227003    20.950479     7277.135    7353.7049    6041.2471    4707.6887   -799.44829    1538.1031    196.70527 
  960000    232.62544   -135.08914   -109.13942   -135.08914            0    7222.3932    17.228868     20.29333    21.019179    7348.9588    4511.5789    7598.8531    9556.7475   -804.27347    83.489305   -1264.4867 
  960500    227.45997   -135.03093   -109.65743   -135.03093            0    6217.7635    17.176895    20.232113    20.955772    7282.6522    4242.5572    7078.1947    7332.5386     2355.079    2141.4141    968.90981 
  961000     242.5361    -135.1127   -108.05744    -135.1127            0    5185.7828     17.26247    20.332909    21.060173    7392.0411     8077.716    2045.8643     5433.768   -3612.9811    2596.8562   -600.54228 
  961500     235.1027   -134.22084   -107.99477   -134.22084            0     6736.565     17.21355    20.275287     21.00049    7329.3742    6620.0284    4456.8476     9132.819     -893.163   -1347.1657   -1426.9055 
  962000    244.89132   -134.73554   -107.41754   -134.73554            0    3380.1324    17.198303    20.257328    20.981889    7309.9151    4317.4069   -2616.9514    8439.9417   -2116.9354    1435.2246   -360.72474 
  962500    235.93588   -133.57747   -107.25847   -133.57747            0       4906.2    17.243567    20.310643    21.037111    7367.7839    189.94519    3319.2246     11209.43    2896.8718   -801.21341   -779.30375 
  963000    234.10774   -134.37672   -108.26165   -134.37672            0    7614.7429    17.147904    20.197965    20.920402     7245.839    4023.8239    10270.761    8549.6433    1276.4406   -1631.0904    3723.7047 
  963500     233.7022   -133.13312   -107.06329   -133.13312            0    4189.1934     17.16798    20.221612    20.944895    7271.3188    5303.0189    4160.6096    3103.9518    741.26632    837.39555   -649.13256 
  964000    232.69133   -134.51941   -108.56234   -134.51941            0    4166.8615    17.233239    20.298478    21.024511    7354.5531    3902.2963    4403.2696    4195.0188     387.1216    840.61236   -1338.4474 
  964500    243.57445   -133.89286   -106.72176   -133.89286            0    5328.4661    17.183966    20.240441    20.964397    7291.6489     6534.488    4074.2867    5376.6235   -1674.0533    2925.4007   -1.3981139 
  965000    236.21431   -133.05562   -106.70556   -133.05562            0    7643.7734    17.270061     20.34185    21.069434    7401.7973    9790.9059    4760.3484    8380.0657    207.53458    2637.9087   -5.4505972 
  965500     239.2362   -133.58359   -106.89643   -133.58359            0    4138.2013    17.249292    20.317387    21.044096    7375.1251    2522.3002    4117.2981    5775.0056   -991.42536   -10.873985    2140.2143 
  966000    244.29249   -133.89597   -106.64477   -133.89597            0    3633.0695    17.216378    20.278619    21.003941    7332.9875   -527.18998     5647.494    5778.9045    1328.6842    1340.5333   -1418.1034 
  966500    252.56714   -133.60372   -105.42948   -133.60372            0    6795.8059    17.252568    20.321246    21.048092    7379.3281    6026.2448    3952.3776    10408.795   -2120.0257   -677.62587   -446.80839 
  967000    237.01215    -133.5033   -107.06424    -133.5033            0      3648.45    17.247824    20.315658    21.042305    7373.2422    2463.4631    4514.5789     3967.308    1956.7701    669.67704   -300.42156 
  967500    229.30472   -133.81355   -108.23426   -133.81355            0    3871.9517    17.188429    20.245698    20.969842    7297.3317    3516.9296    4399.1879    3699.7377   -841.79318    1319.4821   -360.77368 
  968000    241.78299   -134.19043   -107.21917   -134.19043            0    9771.1548    17.238539    20.304721    21.030977    7361.3407    9127.0083    11628.489    8557.9672    -2750.022     2655.834   -3163.9396 
  968500    227.28067   -134.55593   -109.20243   -134.55593            0    3733.3749    17.267006    20.338251    21.065706    7397.8697    2278.2614    4802.5399    4119.3233   -610.29458    2629.6175   -1711.1277 
  969000    236.14009   -132.35905   -106.01727   -132.35905            0    6865.6486    17.168895     20.22269    20.946012    7272.4816    8490.8271    7284.4581    4821.6604    783.16186    786.11149    782.21374 
  969500    243.73853   -134.67693   -107.48753   -134.67693            0    2691.0081    17.236884    20.302771    21.028957    7359.2205   -1080.7442    7071.5167    2082.2518    648.23099    729.02254   -140.37641 
  970000    241.72994   -132.09066   -105.12532   -132.09066            0    3502.3987    17.244954    20.312277    21.038803    7369.5617    5180.9798    2634.7332    2691.4831    1309.0335     122.1899   -855.41074 
  970500    239.77379   -133.43369   -106.68656   -133.43369            0    6605.2344    17.205629    20.265957    20.990826    7319.2603    8363.2574    4519.8839    6932.5621    359.04706    3440.2736   -277.78258 
  971000     230.4246   -134.49581    -108.7916   -134.49581            0     6541.453    17.187347    20.244423    20.968522    7295.9537    7556.2363    7676.7566    4391.3662    431.30816    687.48161   -938.86654 
  971500    234.40333   -134.39611   -108.24807   -134.39611            0    5150.5158    17.200184    20.259544    20.984184    7312.3141    6398.0237    4455.2672    4598.2564    2036.9933     568.9924   -2883.5518 
  972000    244.27216   -133.60169   -106.35277   -133.60169            0    3484.6793    17.241419    20.308114    21.034491    7365.0314    4698.7994    2603.3707    3151.8679   -1285.8551      -1265.2   -271.17721 
  972500    231.60035   -133.50977    -107.6744   -133.50977            0    6461.4399    17.199357     20.25857    20.983175      7311.26    10964.167    6246.8499    2173.3024   -1654.6572    658.63514   -2190.1165 
  973000    239.21811   -134.15119   -107.46605   -134.15119            0    4637.6406    17.187277    20.244341    20.968437    7295.8648     5657.272    4288.9687     3966.681    1499.0395    461.83338    1948.9456 
  973500    248.01827   -133.08647   -105.41965   -133.08647            0    3105.7583     17.16693    20.220375    20.943614    7269.9841    4735.2253    2966.2434    1615.8064   -434.27933   -25.689375   -1639.2138 
  974000    239.46032   -134.10181   -107.38965   -134.10181            0    5830.7957    17.240907     20.30751    21.033866     7364.375    7403.0033    6082.3261    4007.0577     2462.098    1613.9205    420.10126 
  974500    231.19907    -133.2952    -107.5046    -133.2952            0    2721.0273     17.16681    20.220234    20.943468     7269.832    820.37577    4262.2703    3080.4359    209.07968   -745.04293   -1181.7296 
  975000    234.65225   -133.43649   -107.26068   -133.43649            0     2417.556    17.180404    20.236246    20.960053    7287.1162   -106.92225    3409.0544    3950.5359   -1328.1504   -1757.4015    2061.8882 
  975500    234.79001    -135.0053   -108.81412    -135.0053            0    4576.7496    17.201039    20.260551    20.985227    7313.4044    3659.3241    3467.2886    6603.6361     965.1506    3951.9615    260.44414 
  976000    239.38227   -134.76923   -108.06577   -134.76923            0    5774.9499    17.146535    20.196352    20.918732    7244.1035    4741.8702    6525.1235    6057.8559   -515.41212    962.05947   -2478.5413 
  976500    233.58226   -133.69735    -107.6409   -133.69735            0    3929.6279    17.198307    20.257333    20.981894    7309.9208    1062.6621    4880.1102    5846.1114   -2397.8015    1853.5954    1204.9521 
  977000    245.57281   -132.68971    -105.2957   -132.68971            0    2824.6808     17.25954    20.329457    21.056598    7388.2773     4269.094    4801.6258   -596.67745   -899.74069    2789.3915    220.34473 
  977500    247.18017   -133.82886   -106.25554   -133.82886            0    6460.6636    17.143297    20.192538    20.914782    7240.0005    8122.6503    3988.0268    7271.3138   -1960.5368    945.27873     957.4455 
  978000    247.19536   -132.94995   -105.37494   -132.94995            0    6944.0796      17.1946    20.252967    20.977372     7305.195    7498.4142    9085.4893    4248.3354    1363.9814    -48.09799   -2492.0625 
  978500    238.14594   -132.79864    -106.2331   -132.79864            0    2293.2799    17.256431    20.325795    21.052805    7384.2853    4753.8286    833.03655    1292.9746   -450.35673     1689.834    65.009291 
  979000    240.95147    -133.6114    -106.7329    -133.6114            0    5686.5854    17.119185    20.164138    20.885365    7209.4945    4235.5946    9459.6576    3364.5038    632.55164    2013.4794    173.09312 
  979500    247.25548   -135.25204   -107.67032   -135.25204            0    2716.2007    17.177197    20.232468     20.95614     7283.036    2340.8681     3356.006     2451.728   -82.546328    770.52238    363.94053 
  980000    241.68452   -133.47599   -106.51572   -133.47599            0    5585.4849    17.159201    20.211271    20.934184    7260.1688    3656.9875    5028.7518    8070.7155   -1122.2636     1335.692   -461.99071 
  980500    236.22629   -134.24264   -107.89124   -134.24264            0    7555.4254    17.159371    20.211472    20.934392    7260.3853    10740.535    8367.0436    3558.6981    849.64023    2129.5844    639.38272 
  981000     235.9565   -133.05349   -106.73219   -133.05349            0     7741.204    17.170456    20.224528    20.947915    7274.4643    4177.3678    10180.485    8865.7593   -1293.1397    2047.8242   -889.59962 
  981500    224.73628   -132.84374   -107.77407   -132.84374            0    5583.6875    17.172398    20.226816    20.950286    7276.9339    5015.7819    7513.8683    4221.4124    947.23305    278.59392   -1209.3798 
  982000    239.27805   -131.65599   -104.96416   -131.65599            0     4574.787    17.221385    20.284516    21.010049    7339.3869    5969.5515    5748.5501    2006.2593     1007.195     31.39282    522.83766 
  982500    247.84224   -132.20674   -104.55957   -132.20674            0    6085.4555     17.15593    20.207419    20.930194    7256.0182    5230.4699    8059.5564    4966.3403    1626.7792    -377.9523    1316.3834 
  983000    242.87345   -132.69125   -105.59835   -132.69125            0    3924.9913    17.204523    20.264654    20.989477    7317.8489    2200.3957    5651.6093     3922.969    721.24845   -486.62956   -939.97558 
  983500    232.48161    -134.7236   -108.78993    -134.7236            0    6491.9764    17.167615    20.221182    20.944449    7270.8542    4111.2974    6252.6716    9111.9602     2136.657    3159.7344   -819.70093 
  984000    240.85154   -134.83603   -107.96867   -134.83603            0     3762.829     17.26312    20.333674    21.060966    7392.8764    4194.0435     2490.208    4604.2356   -1055.4877   -570.10032   -1244.7099 
  984500    226.90423   -134.21177   -108.90026   -134.21177            0    5077.7602    17.240945    20.307555    21.033912    7364.4234    6261.0957    3131.6307    5840.5543   -452.48401   0.73387719    3327.0206 
  985000    245.07475   -135.29387   -107.95541   -135.29387            0     7128.208    17.183089    20.239408    20.963328    7290.5327    9200.6027    7480.8372    4703.1839    1124.3305    -258.8087   -202.19494 
  985500    226.12144   -134.15115   -108.92696   -134.15115            0     1752.914    17.271261    20.343263    21.070897    7403.3399    3027.0111    3412.6656   -1180.9348    1667.1771    313.63056   -1469.7551 
  986000    247.43442   -132.94384   -105.34216   -132.94384            0    9288.5299    17.175738     20.23075     20.95436    7281.1804    8221.2177    11053.734    8590.6378    2145.6445    1245.8069    -164.6669 
  986500    247.46356   -133.95697   -106.35204   -133.95697            0    5641.0698    17.122024    20.167482    20.888829    7213.0825    1174.3658    8436.3038    7312.5398   -1342.7885   -1815.0102   -1933.0788 
  987000    225.23328   -133.16218   -108.03707   -133.16218            0    878.00833    17.245979    20.313485    21.040054    7370.8767   -1557.9351    -1190.451    5382.4111    1715.1298    594.63629    1327.8001 
  987500    237.32577   -132.84412   -106.37007   -132.84412            0    7430.1106    17.192523     20.25052    20.974837    7302.5475     6781.509    5493.7192    10015.104   -1590.3794   -537.61598   -20.445396 
  988000    237.37871   -132.97718   -106.49723   -132.97718            0    5461.7388    17.122972    20.168598    20.889985    7214.2799    3943.3634    6222.1647    6219.6883    -1614.492    1495.6658    481.33257 
  988500    236.90332   -133.10164   -106.67472   -133.10164            0    5476.9838    17.261581    20.331862    21.059088    7390.8995   -1234.5836    8706.5567    8958.9782   -1365.4369   -497.91526   -446.95124 
  989000    243.07976   -132.90253   -105.78662   -132.90253            0    7216.7806    17.154431    20.205653    20.928365    7254.1162    5848.4014    6163.3384    9638.6019    1984.5502    3741.5878    600.09632 
  989500    240.83224   -133.66159   -106.79639   -133.66159            0    6107.3438    17.135963      20.1839    20.905834    7230.7123    5689.8413    4954.0453    7678.1449   -814.58039    2719.7945    495.70847 
  990000    245.05781   -132.93097    -105.5944   -132.93097            0    4893.8484    17.194052    20.252321    20.976703     7304.496    3607.6146    4900.6802    6173.2503     805.2322   -318.42179    1563.6139 
  990500    240.05649   -134.59427    -107.8156   -134.59427            0    6811.9118    17.170081    20.224086    20.947458     7273.988    6237.7617    7663.6083    6534.3655    1940.9255    1560.0566   -395.06322 
  991000    243.60356   -134.53216   -107.35781   -134.53216            0    2437.9415    17.167842    20.221449    20.944727    7271.1431    514.18199    3022.8846    3776.7579    667.52379   -2627.8034    1962.3865 
  991500     243.2554   -132.79191    -105.6564   -132.79191            0      5178.53    17.176282    20.231391    20.955024    7281.8726    7426.2838    7177.1362    932.17001    958.82121    2018.2239     875.1122 
  992000    238.39387   -133.05144   -106.45825   -133.05144            0    3176.0565    17.236852    20.302734    21.028919    7359.1799    3317.5791    2398.7995     3811.791   -1392.3852    1811.8634   -918.76574 
  992500    237.20887   -133.13243   -106.67143   -133.13243            0    4981.1084    17.217142    20.279518    21.004872     7333.963     6090.881    5546.2434    3306.2007    955.06316    188.43594    -968.4539 
  993000    229.46764   -133.55393   -107.95647   -133.55393            0    6181.4003    17.166656    20.220052    20.943279    7269.6356    9375.7825    3974.8094     5193.609    145.59731   -1627.3086   -461.84763 
  993500    244.01865   -133.15248   -105.93183   -133.15248            0    4689.9081    17.219326     20.28209    21.007537    7336.7546    3489.6771    3855.5309    6724.5164   -779.95427   -233.64098    730.26974 
  994000    235.92532   -132.69191   -106.37408   -132.69191            0    1728.2363    17.145224    20.194808    20.917132     7242.442    592.56183     1692.979    2899.1679    4938.0405    966.29468    1182.2846 
  994500    242.09202   -133.43522    -106.4295   -133.43522            0     4142.458    17.127454    20.173877    20.895453    7219.9463    5474.3383    4174.9691    2778.0667   -126.66712    727.86273    1150.2183 
  995000    238.11888   -134.88692    -108.3244   -134.88692            0    3166.7083    17.225118    20.288913    21.014603    7344.1607    2302.8946    1993.9069    5203.3234    915.18127    1314.2489    1791.3883 
  995500    244.14079   -131.90508   -104.67081   -131.90508            0     10133.76    17.100391    20.142001    20.862436    7185.7758    9952.5603    8401.0771    12047.641    1246.0145    2459.4545     819.7985 
  996000    231.43716   -132.43542   -106.61826   -132.43542            0    1270.0303    17.157674    20.209473    20.932322    7258.2316    952.23552    2090.2868    767.56865    1834.7975    40.434361    -290.4169 
  996500    250.61946    -133.8128   -105.85582    -133.8128            0     6290.039    17.174533    20.229331     20.95289    7279.6485    10245.665    5590.6221    3033.8301    561.23707   -169.64814    828.73801 
  997000    234.82507    -134.4557   -108.26061    -134.4557            0    3260.1797    17.142618    20.191739    20.913954     7239.141    855.41087    4587.4805    4337.6478    427.98349     993.8449   -296.31766 
  997500    241.54446   -133.77784   -106.83319   -133.77784            0    5303.9597    17.169068    20.222894    20.946223    7272.7012    9138.4735    2504.9771    4268.4283   -1755.3972   -454.75298   -2946.1076 
  998000    240.10335   -134.06896   -107.28507   -134.06896            0    2858.2375     17.22475    20.288479    21.014154    7343.6896    3760.8609    1104.6831    3709.1684   -55.688341   -1202.2016    1972.5336 
  998500    231.20442   -133.21469   -107.42349   -133.21469            0    8408.7548    17.087349    20.126639    20.846525     7169.347    10682.404    8548.4642    5995.3965    2097.8361    267.83538    -1707.556 
  999000    237.68508   -134.38204   -107.86791   -134.38204            0    3844.2674    17.219382    20.282156    21.007605    7336.8259    5541.6508    5515.7317    475.41968    2616.1532    770.45996    198.56393 
  999500    248.40134   -133.52346   -105.81392   -133.52346            0    7479.2527    17.210445     20.27163    20.996702    7325.4086    8914.0411    5090.1872    8433.5297   -233.17574    1676.6171   -148.13963 
 1000000    241.19656   -134.57351   -107.66767   -134.57351            0    3782.8071    17.209295    20.270275    20.995299    7323.9404    4885.6153      2685.82    3776.9859   -2712.4012   -1598.3596    63.998401 
Loop time of 5550.93 on 1 procs for 1000000 steps with 864 atoms

Performance: 7.782 ns/day, 3.084 hours/ns, 180.150 timesteps/s
73.1% CPU use with 1 MPI tasks x 1 OpenMP threads

MPI task timing breakdown:
Section |  min time  |  avg time  |  max time  |%varavg| %total
---------------------------------------------------------------
Pair    | 4921.2     | 4921.2     | 4921.2     |   0.0 | 88.66
Bond    | 0.13781    | 0.13781    | 0.13781    |   0.0 |  0.00
Neigh   | 568.54     | 568.54     | 568.54     |   0.0 | 10.24
Comm    | 23.181     | 23.181     | 23.181     |   0.0 |  0.42
Output  | 4.5915     | 4.5915     | 4.5915     |   0.0 |  0.08
Modify  | 30.004     | 30.004     | 30.004     |   0.0 |  0.54
Other   |            | 3.295      |            |       |  0.06

Nlocal:        864.000 ave         864 max         864 min
Histogram: 1 0 0 0 0 0 0 0 0 0
Nghost:        4438.00 ave        4438 max        4438 min
Histogram: 1 0 0 0 0 0 0 0 0 0
Neighs:         0.00000 ave           0 max           0 min
Histogram: 1 0 0 0 0 0 0 0 0 0
FullNghs:      217888.0 ave      217888 max      217888 min
Histogram: 1 0 0 0 0 0 0 0 0 0

Total # of neighbors = 217888
Ave neighs/atom = 252.18519
Ave special neighs/atom = 0.0000000
Neighbor list builds = 100000
Dangerous builds not checked

unfix		3
unfix		2

write_data	data.final.${pid}
write_data	data.final.0
System init for write_data ...

write_restart   restart.lmp.${pid}
write_restart   restart.lmp.0
System init for write_restart ...
Total wall time: 1:32:34
