LAMMPS data file via write_data, version 29 Sep 2021, timestep = 400000

864 atoms
2 atom types

-0.0666395802871751 18.274212580288626 xlo xhi
0.09652753795673519 23.532649462045036 ylo yhi
0.06594809925091027 22.147247900747924 zlo zhi

Masses

1 1.008
2 15.999

Atoms # full

706 0 1 -1.1794 2.923814732706213 2.0545491757807035 3.2729190682949825 0 0 0
708 0 2 0.5897 2.17574133064049 2.46591902278064 2.7991410573273816 0 0 0
1 0 1 -1.1794 0.1684964254743315 3.189553574178584 2.015725583505338 0 0 0
3 0 2 0.5897 0.09608059981245051 4.052066870575246 2.4169784876972784 0 0 0
20 0 2 0.5897 0.4054417534639644 3.1174532689237724 0.20282110344402066 0 0 0
707 0 2 0.5897 2.710622185942953 1.8599435440109997 4.165289907164109 0 0 0
188 0 2 0.5897 3.110294307340322 0.41001485748467503 2.4501012997344165 0 0 0
29 0 2 0.5897 4.610520302549764 2.560476221148001 2.259604592209039 0 0 0
668 0 2 0.5897 5.523770203454334 3.2146468818214644 0.11999498774544623 0 0 0
30 0 2 0.5897 5.0406185148792515 4.049418681624603 2.0467001876982014 0 0 0
28 0 1 -1.1794 5.269464751602691 3.1391983533623757 1.7973705497649095 0 0 0
493 0 1 -1.1794 7.683266628378938 2.177669914947041 2.7513858444902133 0 0 0
494 0 2 0.5897 6.9362355259104955 2.624016909694589 2.3652989950353316 0 0 0
495 0 2 0.5897 8.449970550923924 2.669052111346334 2.4287580277334953 0 0 0
819 0 2 0.5897 7.865917536179289 0.40456806315725286 2.189612723294482 0 0 0
750 0 2 0.5897 9.997773298843054 3.2106961441743733 1.1142075781153675 0 0 0
748 0 1 -1.1794 10.033644929778657 3.030423652612249 2.0777500386839085 0 0 0
749 0 2 0.5897 10.035115514313723 3.9346869254900296 2.454180160560598 0 0 0
106 0 1 -1.1794 12.046131257886483 1.6861804646932406 3.4118649690673344 0 0 0
108 0 2 0.5897 11.160103364240044 1.9662196037296014 3.039221604124936 0 0 0
107 0 2 0.5897 12.029285829409709 1.7450637996541971 4.373098434437033 0 0 0
215 0 2 0.5897 13.458158417914463 2.8066145320601725 2.825002096611626 0 0 0
216 0 2 0.5897 14.089489436509199 4.202365592626696 2.91784609251795 0 0 0
2 0 2 0.5897 17.73079170506574 2.7104595649028713 2.431862539719763 0 0 0
214 0 1 -1.1794 14.154447714013944 3.383241230822498 2.4340401399670792 0 0 0
406 0 1 -1.1794 16.420933359033803 1.941526630618372 3.05696302954291 0 0 0
407 0 2 0.5897 16.16583714421617 0.9834857358122305 2.833247412816635 0 0 0
408 0 2 0.5897 15.630990116634901 2.4210210314962244 2.6825311800329503 0 0 0
369 0 2 0.5897 14.08742120453601 3.5131296774506784 0.6902381188075696 0 0 0
123 0 2 0.5897 2.6655198932055826 8.623456372300032 2.4749537210468375 0 0 0
253 0 1 -1.1794 2.6899107622338656 6.718032961010734 2.0472211151825546 0 0 0
254 0 2 0.5897 2.759088000697661 6.750426691703278 1.1026992996813638 0 0 0
255 0 2 0.5897 1.8204205098880002 6.322248092825275 2.1116482473885507 0 0 0
597 0 2 0.5897 -0.05002273802784174 5.818850869947938 3.8754112874904676 0 0 0
138 0 2 0.5897 4.249324972790081 6.134181828066434 2.6991190026875715 0 0 0
65 0 2 0.5897 7.139046345109077 8.46796580879152 2.8818154665238587 0 0 0
136 0 1 -1.1794 5.206641768339499 5.877508895031788 2.6419976614843894 0 0 0
415 0 1 -1.1794 7.524058084775293 7.060931535248112 1.7447174146776552 0 0 0
416 0 2 0.5897 6.6701236654584095 6.641230530439994 1.9528044915495701 0 0 0
417 0 2 0.5897 8.116986019778727 6.431438739876234 2.1275016151710595 0 0 0
137 0 2 0.5897 5.463555975556897 5.766121069735322 3.5920911095337744 0 0 0
64 0 1 -1.1794 7.042440940329259 9.400284289589749 3.16895792505814 0 0 0
66 0 2 0.5897 7.322754594925502 9.367729104034145 4.101935701926962 0 0 0
190 0 1 -1.1794 11.982705955562514 7.354583876878354 2.753870945718083 0 0 0
191 0 2 0.5897 12.036110568889606 7.22356181801332 1.7870812322387606 0 0 0
192 0 2 0.5897 12.034214169929767 8.326974320093877 2.8960292557893026 0 0 0
298 0 1 -1.1794 9.511928932018993 5.665823880095183 3.115292534757536 0 0 0
299 0 2 0.5897 10.151781049659569 6.372667109659943 3.2438537569527677 0 0 0
300 0 2 0.5897 9.348934284308381 5.570853864003614 4.088968994020191 0 0 0
110 0 2 0.5897 13.295380473058415 6.445793650594364 3.212974594196307 0 0 0
595 0 1 -1.1794 18.2355313421835 5.948691308753047 2.8997699153472327 -1 0 0
596 0 2 0.5897 17.495562870807824 6.490660074410385 2.6737990308364377 0 0 0
109 0 1 -1.1794 14.15354549160855 5.915742839567547 3.2563174886577433 0 0 0
111 0 2 0.5897 14.779671923501335 6.322898023680258 2.6327811425786987 0 0 0
838 0 1 -1.1794 16.08520643367884 7.18545181275711 1.7556001018916028 0 0 0
839 0 2 0.5897 16.48504895046588 8.057714693019532 2.004649424220487 0 0 0
840 0 2 0.5897 16.18957858651391 7.119904105043678 0.7976517624004547 0 0 0
841 0 1 -1.1794 16.78649092710993 9.381879516680566 3.2993679422932263 0 0 0
121 0 1 -1.1794 2.688963543018834 9.54664692080473 2.828828587189828 0 0 0
122 0 2 0.5897 2.693146473339323 9.474282643944116 3.7988082354039103 0 0 0
44 0 2 0.5897 1.3867031592953176 10.490951196492157 2.3281562740137725 0 0 0
45 0 2 0.5897 0.4993562854611593 11.826492594604495 2.575908265705892 0 0 0
374 0 2 0.5897 0.33293506543067947 13.688715939779698 3.9628205197812507 0 0 0
373 0 1 -1.1794 0.17918539835503672 13.572875460279208 2.9709829260760223 0 0 0
43 0 1 -1.1794 0.5277238426759789 10.939520571836214 2.132690505153282 0 0 0
219 0 2 0.5897 4.095933773000295 10.297342565108812 2.3978451604646653 0 0 0
173 0 2 0.5897 3.767950591215622 14.123644465985421 2.5398620853499767 0 0 0
396 0 2 0.5897 0.6163458196382462 10.988131360571666 0.29981715029409517 0 0 0
363 0 2 0.5897 5.397576485154298 10.971080572789683 0.42375897636024673 0 0 0
174 0 2 0.5897 4.556774018098792 12.820059454730536 2.838914103550339 0 0 0
172 0 1 -1.1794 4.586810878340863 13.762200218086834 2.9696116708366187 0 0 0
217 0 1 -1.1794 4.870034069925203 10.866537386550796 2.15590315440543 0 0 0
218 0 2 0.5897 5.5467431668098675 10.403131463949421 2.6768880082681044 0 0 0
773 0 2 0.5897 8.819710753336826 9.989981590258163 2.7019189528474308 0 0 0
91 0 1 -1.1794 12.216867199280237 10.184449580709952 3.4198853451776734 0 0 0
92 0 2 0.5897 12.254301899162975 9.982109319840632 4.412793823802377 0 0 0
774 0 2 0.5897 9.535724223403667 10.377464136440516 1.39066559722139 0 0 0
772 0 1 -1.1794 9.583985249136367 10.469329324874604 2.3332288721363925 0 0 0
93 0 2 0.5897 11.360291862177757 10.539617675606955 3.183250039112956 0 0 0
154 0 1 -1.1794 9.633563438832836 13.256658324234179 2.9259553802062888 0 0 0
156 0 2 0.5897 9.838296175143153 12.326902128007855 2.733582693018854 0 0 0
155 0 2 0.5897 10.43772238462514 13.728051484040073 2.628286634535571 0 0 0
560 0 2 0.5897 12.631922248853781 13.82799087908259 2.2283213956902346 0 0 0
860 0 2 0.5897 13.754643605916378 10.456584555542165 2.284663553021337 0 0 0
842 0 2 0.5897 16.76031828380107 9.476547798823207 4.298828030946957 0 0 0
55 0 1 -1.1794 14.519869578826432 13.38469023400362 2.9311503538325727 0 0 0
859 0 1 -1.1794 14.62110890283241 10.79439591959406 1.921460275665961 0 0 0
57 0 2 0.5897 14.846685411498397 12.523912257497459 2.742664315361559 0 0 0
843 0 2 0.5897 17.612117056958134 9.877737988824515 3.0068058707577676 0 0 0
861 0 2 0.5897 15.336221884737068 10.299411074671426 2.4680610046151537 0 0 0
56 0 2 0.5897 14.214595284778369 13.399244633531206 3.855539105371 0 0 0
152 0 2 0.5897 14.99330969935952 10.867360672891184 0.26719868752962195 0 0 0
375 0 2 0.5897 17.779359394631676 14.14934413038264 2.798096144573998 0 0 0
557 0 2 0.5897 1.69272421769668 14.273539479658467 2.2770850153702713 0 0 0
558 0 2 0.5897 2.347990045232951 14.877978239606255 0.9955577731372044 0 0 0
556 0 1 -1.1794 2.468788081592472 14.754219458253415 1.914296082594367 0 0 0
292 0 1 -1.1794 2.6650309680873256 17.46665843855606 2.9952632751498425 0 0 0
293 0 2 0.5897 2.7869792240843396 16.555092812617463 2.819528672264765 0 0 0
344 0 2 0.5897 1.289297657981904 18.5080220414903 2.3479556747965096 0 0 0
227 0 2 0.5897 4.237101947766129 18.35540295934918 2.26095131402245 0 0 0
294 0 2 0.5897 2.891108845389221 17.520126889919105 3.9602472970835825 0 0 0
480 0 2 0.5897 6.598615308646257 14.383127747687592 2.4025117084599255 0 0 0
479 0 2 0.5897 8.186717387504416 14.287042697407259 2.463314848598313 0 0 0
478 0 1 -1.1794 7.409869312387394 14.875280817650774 2.2354101377988127 0 0 0
448 0 1 -1.1794 7.502075218745122 17.69671842901335 2.5324744557974554 0 0 0
449 0 2 0.5897 7.402459628671068 16.72774882341575 2.247965846991567 0 0 0
450 0 2 0.5897 6.743582582078919 18.081143396486393 2.1277111856216475 0 0 0
321 0 2 0.5897 9.030673882730914 18.336132739019188 2.1515251941660534 0 0 0
226 0 1 -1.1794 5.031857256457505 18.68866601542313 1.7965515656335278 0 0 0
317 0 2 0.5897 7.431056710979742 14.854976819898166 0.216533480115512 0 0 0
559 0 1 -1.1794 11.853832117969668 14.410952545920512 2.211881535131103 0 0 0
561 0 2 0.5897 11.709502253365645 14.488460690804454 1.2581399135862157 0 0 0
320 0 2 0.5897 10.567573383870965 18.29187731064825 2.4405624572081215 0 0 0
832 0 1 -1.1794 11.932817087484882 17.0810342270306 2.8751007157772728 0 0 0
833 0 2 0.5897 12.746879624267617 17.58101789892228 2.732932910304309 0 0 0
834 0 2 0.5897 12.097163406092935 16.154308888619322 2.714087175444907 0 0 0
319 0 1 -1.1794 9.888857241628921 18.815872196652776 1.9941037887588502 0 0 0
389 0 2 0.5897 10.040639632819873 18.79036957187293 0.16420791801437842 0 0 0
179 0 2 0.5897 15.529100398567584 14.710532831179815 2.304572138862513 0 0 0
178 0 1 -1.1794 16.440860964195473 15.100483711307826 2.1068012950680997 0 0 0
180 0 2 0.5897 16.46704726347926 15.93702228496167 2.6361463631858015 0 0 0
745 0 1 -1.1794 16.690359023433004 17.567278923454168 3.1904033175717714 0 0 0
746 0 2 0.5897 17.400787544328672 18.114257986584242 2.71243792083176 0 0 0
747 0 2 0.5897 15.804054412991011 17.869041156130137 2.8994484186499228 0 0 0
614 0 2 0.5897 16.53295189498975 15.113626254562952 0.24522982570487306 0 0 0
304 0 1 -1.1794 14.398258771024683 18.483276754826946 2.129406670206357 0 0 0
305 0 2 0.5897 14.497592461599842 18.463075599833008 1.1229995632249057 0 0 0
345 0 2 0.5897 0.6237626352529394 18.942097650313325 1.0062558957035652 0 0 0
343 0 1 -1.1794 0.5188845744817213 18.959662472542544 2.0079216756936664 0 0 0
189 0 2 0.5897 3.2127243268608647 23.043510607533594 1.064997769880697 0 0 0
187 0 1 -1.1794 3.2777304242711773 22.973016129016422 2.039640677295818 0 0 0
694 0 1 -1.1794 1.026954078525169 21.419070849190614 3.3053134961677753 0 0 0
695 0 2 0.5897 0.9836035680309454 20.748175981156912 2.618941717440161 0 0 0
696 0 2 0.5897 1.656737419566021 22.08964101677822 2.954638634249167 0 0 0
266 0 2 0.5897 4.8564150864214595 21.938127228205257 2.4837163640510047 0 0 0
228 0 2 0.5897 5.058905481731255 19.656504731706534 1.9686913754120117 0 0 0
265 0 1 -1.1794 5.562920005703442 21.353031464287326 2.7985679930065794 0 0 0
267 0 2 0.5897 6.386976337178868 21.72908544691156 2.4553625641021446 0 0 0
817 0 1 -1.1794 7.713884405646957 22.902930256999152 2.0908700123147783 0 0 0
818 0 2 0.5897 8.501053344344372 22.487830273809955 2.41847322343564 0 0 0
498 0 2 0.5897 7.713999170599713 22.557237133672633 0.22246494979977777 0 0 0
63 0 2 0.5897 12.350868872747789 23.51571794908508 2.854191906680276 0 -1 0
61 0 1 -1.1794 12.371944210823976 22.64669953868133 2.383900220585014 0 0 0
62 0 2 0.5897 13.12488332923226 22.207745391078426 2.818745260464954 0 0 0
397 0 1 -1.1794 10.04595142400356 21.47012434984766 2.895625895415856 0 0 0
398 0 2 0.5897 9.889360809846172 20.621698840037077 2.4815170953926873 0 0 0
399 0 2 0.5897 10.861341998197487 21.858934002372703 2.5905079776384086 0 0 0
425 0 2 0.5897 12.515769074712992 22.770961412990236 0.6251889794656137 0 0 0
306 0 2 0.5897 14.383375974834692 19.41415249928078 2.433343814479442 0 0 0
118 0 1 -1.1794 14.663185167194252 21.083763481746498 3.2131611424918556 0 0 0
120 0 2 0.5897 15.479252606801518 21.660118910936333 2.9694804650842532 0 0 0
727 0 1 -1.1794 16.813411061030514 22.6032780989441 2.346946928595577 0 0 0
728 0 2 0.5897 16.799387888798712 22.50988600543829 1.3705247739569544 0 0 0
729 0 2 0.5897 17.687397001538557 22.268416837393392 2.697269532222289 0 0 0
119 0 2 0.5897 14.651738935431675 21.13612773837359 4.173283724524206 0 0 0
487 0 1 -1.1794 2.9880452333233647 1.594526789715072 5.969587455243385 0 0 0
488 0 2 0.5897 2.0990987509991745 1.9053271158891538 6.3045832933706905 0 0 0
489 0 2 0.5897 3.0443000651954755 0.6623175391526614 6.201506751567259 0 0 0
784 0 1 -1.1794 0.5230188439494335 2.8620309004251467 6.789617086998476 0 0 0
785 0 2 0.5897 0.6045243134858306 2.842193000650129 7.757085997892629 0 0 0
183 0 2 0.5897 0.21027965905393592 4.479800377458678 5.982699284694812 0 0 0
83 0 2 0.5897 4.400696727549823 2.546655835447439 6.377474528690302 0 0 0
846 0 2 0.5897 7.699630158196311 2.0368330501507295 4.545777108603566 0 0 0
82 0 1 -1.1794 5.141477119622157 3.167027288377403 6.4656203480706065 0 0 0
84 0 2 0.5897 5.940770943475208 2.8296584770575834 6.035023095368749 0 0 0
844 0 1 -1.1794 7.546787677245084 2.0749238560519268 5.480458848983679 0 0 0
845 0 2 0.5897 7.432420333250525 1.1782607436782255 5.80288191466506 0 0 0
275 0 2 0.5897 5.305698110104988 2.983972028491742 8.253889408134466 0 0 0
419 0 2 0.5897 8.86853804804239 2.895318058290468 6.238513735310201 0 0 0
420 0 2 0.5897 9.690097157408216 4.104302081775329 6.220631602225279 0 0 0
418 0 1 -1.1794 9.75089024422999 3.164888214049112 6.484968060749166 0 0 0
802 0 1 -1.1794 12.10380243569499 1.7627346840482452 6.1789715763376964 0 0 0
803 0 2 0.5897 11.254467450998677 2.213590068067785 6.23648760006239 0 0 0
804 0 2 0.5897 12.81327298587756 2.410198180858445 6.429310547796942 0 0 0
177 0 2 0.5897 9.969498837673159 3.2863817127105106 8.46112418334923 0 0 0
786 0 2 0.5897 17.972000391488642 2.5760754258536 6.46998998581159 0 0 0
660 0 2 0.5897 16.415373379198684 2.027362193768652 4.889346289529971 0 0 0
436 0 1 -1.1794 14.23585610159115 3.175517871089994 7.020464842802715 0 0 0
437 0 2 0.5897 14.031017636114015 3.0782190335150057 7.975549447038939 0 0 0
438 0 2 0.5897 15.074183525396762 2.747045365314204 6.796307227592371 0 0 0
658 0 1 -1.1794 16.475077112310174 1.9734226374766812 5.880307320435561 0 0 0
659 0 2 0.5897 16.344594287337856 1.0448325663200233 6.141174122263386 0 0 0
10 0 1 -1.1794 2.6478780520439535 6.842894613132465 6.261810911987811 0 0 0
11 0 2 0.5897 1.8844994858232424 6.345303473520845 6.037953478367938 0 0 0
12 0 2 0.5897 2.721877108636502 7.756993761190961 5.9823761280313645 0 0 0
181 0 1 -1.1794 0.3420074273254326 5.351810040859768 5.564093036025882 0 0 0
687 0 2 0.5897 4.0588426445517936 6.154017940755994 5.467655976050923 0 0 0
650 0 2 0.5897 3.2074906688558484 6.887225594979023 8.00059617847052 0 0 0
686 0 2 0.5897 4.857069792940831 4.90126901944546 5.727873646538276 0 0 0
685 0 1 -1.1794 4.888889681606613 5.706328602326665 5.238904267069738 0 0 0
145 0 1 -1.1794 7.089799337320394 7.103266259989848 6.801957373326998 0 0 0
146 0 2 0.5897 6.297050173728464 6.658823160759223 6.486601532786847 0 0 0
147 0 2 0.5897 6.988512303044532 7.1757737168104585 7.792878640158263 0 0 0
714 0 2 0.5897 7.5737264024086945 8.810482974699992 6.421515826057231 0 0 0
165 0 2 0.5897 8.776109857490452 6.531274318415201 6.051295057429459 0 0 0
163 0 1 -1.1794 9.538070050478451 5.972487681120127 5.79304503395596 0 0 0
164 0 2 0.5897 10.365282112666133 6.453872118635616 6.05523206770838 0 0 0
391 0 1 -1.1794 11.884863472989728 6.910629368174025 6.992564916328237 0 0 0
392 0 2 0.5897 12.072823840828125 6.895247743886727 7.970924342975931 0 0 0
393 0 2 0.5897 12.76859669460884 6.784035601752197 6.545544260460817 0 0 0
230 0 2 0.5897 12.032662367406266 8.598070855195758 6.542112572511058 0 0 0
229 0 1 -1.1794 12.082650823932552 9.466981517741717 6.130963636524151 0 0 0
731 0 2 0.5897 14.386882636293377 5.855475973019901 4.976390759699685 0 0 0
732 0 2 0.5897 14.198038278168925 5.023023840468603 6.264020293621113 0 0 0
182 0 2 0.5897 18.088722855317712 5.986168810519835 6.036950400546269 0 0 0
730 0 1 -1.1794 14.250600853743945 5.9660944592508045 5.993891246305713 0 0 0
525 0 2 0.5897 16.96901398492902 8.902420025247594 6.5139765711312885 0 0 0
541 0 1 -1.1794 16.917294594776713 7.025513495468591 7.016873442714362 0 0 0
542 0 2 0.5897 16.074042136823202 6.851697919325775 6.6727139164079 0 0 0
543 0 2 0.5897 16.79434232841828 6.864211066000198 7.947475642669281 0 0 0
793 0 1 -1.1794 2.7841420832068846 9.654194759127309 5.565947405535427 0 0 0
794 0 2 0.5897 2.1526116025459126 10.288478081053213 6.012459003241705 0 0 0
795 0 2 0.5897 3.6876929192083296 10.011722518957052 5.6513113319829635 0 0 0
552 0 2 0.5897 0.8529297113755291 12.059227214298906 6.462815966565417 0 0 0
550 0 1 -1.1794 0.5931041492664783 11.140687760047735 6.596166967726895 0 0 0
551 0 2 0.5897 0.6379585890818931 10.953937731591008 7.5209817581991585 0 0 0
655 0 1 -1.1794 0.645086470948273 13.716038256882308 5.704360507674013 0 0 0
712 0 1 -1.1794 7.604036368678949 9.653776201504595 5.8772281061060045 0 0 0
200 0 2 0.5897 4.892631006851214 13.731070023255278 4.787028007398194 0 0 0
713 0 2 0.5897 8.441783119764093 10.118076360340762 5.99071975408725 0 0 0
577 0 1 -1.1794 5.181116916510415 10.735782774472485 6.061230939775955 0 0 0
578 0 2 0.5897 6.089620438576813 10.482372123754807 5.935650311175717 0 0 0
579 0 2 0.5897 5.2153724132600185 11.708468663067961 6.06819874254919 0 0 0
199 0 1 -1.1794 5.1655171798056 13.58498936879894 5.7121983419304785 0 0 0
582 0 2 0.5897 5.059755563889947 10.64067802427688 8.139385336886619 0 0 0
201 0 2 0.5897 6.086224852519792 13.969237088800893 5.75108914206032 0 0 0
806 0 2 0.5897 9.853273084217308 13.426010311645111 4.541623116885927 0 0 0
807 0 2 0.5897 10.070709622712357 12.742975732583592 5.934553279304653 0 0 0
231 0 2 0.5897 12.824405392738527 9.935099435601082 6.573372820299219 0 0 0
805 0 1 -1.1794 9.846074334027264 13.600760594505346 5.5313649846394854 0 0 0
739 0 1 -1.1794 9.81190359424489 10.774759262697481 6.496808543163155 0 0 0
740 0 2 0.5897 10.668464762434615 10.331351239762093 6.3623436614969515 0 0 0
741 0 2 0.5897 9.578563245933367 10.706347774758386 7.441335719895535 0 0 0
523 0 1 -1.1794 16.773561518501488 9.672147291253683 5.929402472727399 0 0 0
724 0 1 -1.1794 14.19350210818542 13.929590194820246 5.728478190488115 0 0 0
524 0 2 0.5897 17.5955536541217 10.203954612658737 6.093423390378083 0 0 0
634 0 1 -1.1794 14.468170272589244 11.314485761030372 6.720682759552675 0 0 0
635 0 2 0.5897 15.223940384756085 10.92794626232584 6.298970057928737 0 0 0
636 0 2 0.5897 14.35981505654717 12.180193653106784 6.298922092795354 0 0 0
857 0 2 0.5897 13.955017922516443 11.142219440641696 8.228182949017546 0 0 0
657 0 2 0.5897 18.257331488069227 14.150719801416978 6.204293960634899 0 0 0
656 0 2 0.5897 1.4774372159273603 14.184846782226915 5.896569538330432 0 0 0
18 0 2 0.5897 3.6815128962104176 14.553403202305265 6.290637108161598 0 0 0
17 0 2 0.5897 2.8905414101318776 15.00190839619201 7.534991472962725 0 0 0
16 0 1 -1.1794 3.0273899543543448 15.169614225095271 6.546803821181568 0 0 0
238 0 1 -1.1794 3.2636767051913336 17.59395602629566 5.380203126103449 0 0 0
239 0 2 0.5897 3.142134980766451 16.662274453790978 5.62296997590125 0 0 0
341 0 2 0.5897 1.7384424360726538 18.184452635447244 6.318696630134513 0 0 0
240 0 2 0.5897 4.158520677830798 17.856938864626763 5.694853843036155 0 0 0
340 0 1 -1.1794 0.8331388762410384 18.573250113881535 6.445726196883566 0 0 0
308 0 2 0.5897 7.447622072941671 17.31657839579188 4.544489958901806 0 0 0
519 0 2 0.5897 8.328367752714737 14.215963047268522 6.041310545645454 0 0 0
307 0 1 -1.1794 7.403772111882338 17.36783683126979 5.517627345397815 0 0 0
517 0 1 -1.1794 7.505781638566287 14.657153031686548 6.40315945132297 0 0 0
518 0 2 0.5897 7.459623399360653 15.563100380685153 6.026418794427562 0 0 0
309 0 2 0.5897 8.195997077960154 17.90104950601367 5.872984868584334 0 0 0
378 0 2 0.5897 7.3340748057864245 14.852593135573748 8.177827374943652 0 0 0
386 0 2 0.5897 6.213940703790565 18.32244497493525 6.130314431790776 0 0 0
102 0 2 0.5897 5.300767494890248 18.822301068063958 8.372596320816669 0 0 0
385 0 1 -1.1794 5.401452476259406 18.705698073087742 6.548251249245723 0 0 0
642 0 2 0.5897 11.302301801512908 14.243923292698728 6.655244750385241 0 0 0
726 0 2 0.5897 13.572412139942234 14.521348930063326 6.212465800694258 0 0 0
645 0 2 0.5897 11.75081666577127 17.24899042031037 4.948069490719672 0 0 0
640 0 1 -1.1794 11.76653549595364 14.939309190816227 7.122595794844521 0 0 0
641 0 2 0.5897 11.512339252759968 14.834615534995246 8.040547679872322 0 0 0
643 0 1 -1.1794 11.938971300585173 17.335322375749723 5.89392083713656 0 0 0
644 0 2 0.5897 11.897050656971478 16.41791576030462 6.198702194524469 0 0 0
303 0 2 0.5897 10.343409899870352 18.387335062726265 6.342079736138916 0 0 0
348 0 2 0.5897 13.510224181942045 18.211416511471658 6.713143864698413 0 0 0
734 0 2 0.5897 9.678829606587458 18.841410493412237 8.633271694280985 0 0 0
564 0 2 0.5897 16.844342203026144 17.748711741296542 4.78144095964431 0 0 0
725 0 2 0.5897 15.054862219877945 14.338965466580538 5.969178748441117 0 0 0
563 0 2 0.5897 17.416177220959035 18.222982660076127 6.114909608071359 0 0 0
205 0 1 -1.1794 16.6776784186343 15.185700770103988 6.872397498291321 0 0 0
206 0 2 0.5897 16.764886980666496 16.079578430950534 6.573016628494132 0 0 0
207 0 2 0.5897 16.56152189728369 15.164381181104913 7.800888019436301 0 0 0
562 0 1 -1.1794 16.6362940101251 17.9097649568509 5.695866276857872 0 0 0
347 0 2 0.5897 15.022219274158383 18.28080881233974 6.198060349196574 0 0 0
371 0 2 0.5897 14.328057190895976 18.442401183780095 8.643291479105422 0 0 0
346 0 1 -1.1794 14.34270825436901 18.724194390873535 6.76484403241232 0 0 0
342 0 2 0.5897 0.8695915701198245 18.90436936951251 7.3762324493237 0 0 0
413 0 2 0.5897 0.6999438864345805 21.404471738917294 4.892428369112826 0 0 0
414 0 2 0.5897 0.48063324693899245 20.539409451852215 6.2227310087792915 0 0 0
700 0 1 -1.1794 2.881391078382938 22.47672294239193 6.714346946000915 0 0 0
701 0 2 0.5897 2.951602424933774 22.512447574796916 7.694176638634317 0 0 0
702 0 2 0.5897 2.109218569332194 21.94248337654908 6.3943434820683205 0 0 0
412 0 1 -1.1794 0.45217412360637577 21.44331208615104 5.843374390077479 0 0 0
248 0 2 0.5897 4.399046838053645 21.779193040730306 5.88148247873105 0 0 0
249 0 2 0.5897 5.097969495409429 21.360321862199267 4.532543443559117 0 0 0
247 0 1 -1.1794 5.192438168146891 21.34049126409279 5.5314669215148005 0 0 0
387 0 2 0.5897 5.303618377393746 19.578247250747328 6.106359323707134 0 0 0
31 0 1 -1.1794 7.538105623402849 22.728475381521758 6.545738295840971 0 0 0
32 0 2 0.5897 8.39070521287804 22.449553594285188 6.175292058188163 0 0 0
33 0 2 0.5897 6.87468145559339 22.186055635908062 6.106009219720252 0 0 0
86 0 2 0.5897 7.642406562133089 22.53545789183177 8.507366437332957 0 0 0
171 0 2 0.5897 12.228306922790486 23.514470750561795 6.515158849468491 0 -1 0
301 0 1 -1.1794 9.601427195016107 18.91242807249702 6.725319465698911 0 0 0
591 0 2 0.5897 10.063241996899476 21.39080491870871 4.8326100361262725 0 0 0
589 0 1 -1.1794 9.901790443916745 21.477651729807892 5.809001729226538 0 0 0
169 0 1 -1.1794 12.266163575098048 22.582096128218684 6.7664148278639855 0 0 0
302 0 2 0.5897 9.574519037786118 19.787553094699458 6.331498264702411 0 0 0
590 0 2 0.5897 10.699163703613134 21.79777858620992 6.202862574513636 0 0 0
170 0 2 0.5897 13.068886965620667 22.213989404939944 6.271132192895949 0 0 0
330 0 2 0.5897 11.775837017547492 22.580419869301206 8.497397214042174 0 0 0
353 0 2 0.5897 17.35131681906327 22.399075181205426 6.606429075152727 0 0 0
532 0 1 -1.1794 14.670723052583753 21.36663906923015 5.89754571494539 0 0 0
534 0 2 0.5897 14.489748531120442 20.516120165909125 6.388810036837814 0 0 0
352 0 1 -1.1794 16.689043299438467 22.955702748205727 6.968875868531758 0 0 0
354 0 2 0.5897 16.632601907479838 22.80408681174222 7.9322895990837905 0 0 0
533 0 2 0.5897 15.417153936486493 21.743865112873504 6.373272850756254 0 0 0
34 0 1 -1.1794 0.6439970450500092 3.254699857712792 9.433890790259243 0 0 0
36 0 2 0.5897 1.3544519326605111 2.796593679277324 9.889555002352216 0 0 0
167 0 2 0.5897 2.9893902174525917 1.749211734274047 12.084480669781387 0 0 0
673 0 1 -1.1794 3.176851104741148 1.8956714428322208 10.379843693762352 0 0 0
674 0 2 0.5897 3.776688741695643 2.3841036048024686 9.76559923448297 0 0 0
35 0 2 0.5897 0.5736484675991237 4.1509830209645875 9.824379890589892 0 0 0
675 0 2 0.5897 3.068987296005469 1.0435706222757755 9.922145611172068 0 0 0
166 0 1 -1.1794 2.8051709567894165 1.6170916409565166 13.0145325928836 0 0 0
168 0 2 0.5897 1.9784117519419144 2.0829802731715414 13.27630071780542 0 0 0
274 0 1 -1.1794 5.55946024720709 3.028495770668481 9.199368042487272 0 0 0
276 0 2 0.5897 6.298970806134957 2.400846332112082 9.501854122741745 0 0 0
355 0 1 -1.1794 7.708540440166261 1.6911962797695628 10.254952179128402 0 0 0
356 0 2 0.5897 7.672758430956159 0.7497469710150542 10.05104034896615 0 0 0
357 0 2 0.5897 7.724125585956093 1.9348398407055267 11.199786384766766 0 0 0
592 0 1 -1.1794 7.546644616288639 1.9430006960488777 13.053029630264197 0 0 0
176 0 2 0.5897 8.913790977064398 2.7537347285373355 9.594883218443696 0 0 0
678 0 2 0.5897 5.502886997871774 4.7349520784156045 9.76401627179447 0 0 0
458 0 2 0.5897 6.0550896093711755 2.6658276893660657 13.10141626255038 0 0 0
175 0 1 -1.1794 9.791528912661036 3.1973628671106575 9.40187533116977 0 0 0
514 0 1 -1.1794 11.768875303496626 1.8569778129827554 10.819632905138475 0 0 0
515 0 2 0.5897 11.676019070408794 1.7563582207257709 11.79307634240451 0 0 0
516 0 2 0.5897 10.877702755620138 2.1722723366367855 10.539213550063403 0 0 0
849 0 2 0.5897 13.376117002103523 2.423262380479643 10.076536051402295 0 0 0
705 0 2 0.5897 9.7247331468 4.66078273682647 10.165081289564073 0 0 0
847 0 1 -1.1794 14.029744478986771 3.0498713346641337 9.669189387123945 0 0 0
652 0 1 -1.1794 16.547749843334778 2.1306277590063507 10.397522633256447 0 0 0
653 0 2 0.5897 16.45053598656508 2.1059021346594755 11.368797035950116 0 0 0
654 0 2 0.5897 17.234899170540913 2.771869364531548 10.295093467682591 0 0 0
848 0 2 0.5897 14.938584456540484 2.6446682849471657 9.77339154886505 0 0 0
545 0 2 0.5897 14.305726741146833 4.645603922737677 10.00952369373289 0 0 0
439 0 1 -1.1794 16.519032870032788 1.702984390536629 13.155388961874502 0 0 0
131 0 2 0.5897 16.151524545322864 0.35497221514902333 9.940919843245867 0 0 0
649 0 1 -1.1794 3.2051357519166985 6.923934627753388 9.027086295192483 0 0 0
112 0 1 -1.1794 0.6511230210019436 6.079462127965277 10.52733818917498 0 0 0
113 0 2 0.5897 0.780819994150575 6.1725566038162345 11.528922057300294 0 0 0
114 0 2 0.5897 1.343609791334562 6.5943956501489245 10.06985033258134 0 0 0
257 0 2 0.5897 2.8289403508921818 8.482648578123085 9.913712652392617 0 0 0
651 0 2 0.5897 4.0453231574625566 6.5043190311048775 9.263237407875138 0 0 0
256 0 1 -1.1794 2.6637332776695763 9.41331979948475 10.170773638250747 0 0 0
364 0 1 -1.1794 0.6554933320441374 5.684678618787632 13.29084081092615 0 0 0
332 0 2 0.5897 3.0890538609749343 7.869294222069841 13.208198234711956 0 0 0
333 0 2 0.5897 4.098295220297044 6.701832787305207 13.227868697112232 0 0 0
761 0 2 0.5897 5.322112900049485 5.912545532090189 11.74290275124545 0 0 0
526 0 1 -1.1794 7.4097103543443525 7.149906740898098 9.491692027481054 0 0 0
527 0 2 0.5897 7.465603611460617 8.074114570380377 9.772596520878666 0 0 0
676 0 1 -1.1794 5.347323167630708 5.616268074357365 10.059806168435719 0 0 0
677 0 2 0.5897 6.037228794808506 6.221215589900404 9.773722130072846 0 0 0
528 0 2 0.5897 8.275502887053914 6.684806147010772 9.673819739419384 0 0 0
760 0 1 -1.1794 5.403123182409232 6.040333169310265 12.718350273373607 0 0 0
762 0 2 0.5897 5.416451581392588 5.120836243950959 13.043442167255511 0 0 0
313 0 1 -1.1794 11.940388220354873 6.78828582892318 9.631710704615092 0 0 0
703 0 1 -1.1794 9.708684193293127 5.609754140623062 10.507770591256714 0 0 0
314 0 2 0.5897 11.08134234573684 6.363091052488394 9.85814968674126 0 0 0
315 0 2 0.5897 12.642418494126058 6.211686739576244 9.967305776511745 0 0 0
444 0 2 0.5897 11.84669615147313 8.586126910665017 9.863422571474793 0 0 0
704 0 2 0.5897 9.711162611902285 5.552464600971589 11.520427220211147 0 0 0
442 0 1 -1.1794 11.703561934523378 9.455770485386097 10.264489340268733 0 0 0
816 0 2 0.5897 14.384674388478821 5.687340677860868 12.254565965254203 0 0 0
622 0 1 -1.1794 16.66029459826725 7.1253963154371265 9.705960093592198 0 0 0
544 0 1 -1.1794 14.322561354339319 5.5459372926871415 10.373469413119263 0 0 0
546 0 2 0.5897 15.020148406811597 6.090890477694605 9.973715408906186 0 0 0
623 0 2 0.5897 17.590651617068055 6.8801423938643484 10.112024545633773 0 0 0
624 0 2 0.5897 16.53228926370879 8.112295093235465 9.990270790991692 0 0 0
814 0 1 -1.1794 14.499895319720462 5.6401346987800585 13.25052844298134 0 0 0
797 0 2 0.5897 2.6603302437481924 9.88369232295784 12.208352023647905 0 0 0
796 0 1 -1.1794 2.4987420453288562 9.632935675855089 13.136249226191513 0 0 0
13 0 1 -1.1794 0.4121332669355608 10.655313004102908 9.26595824486241 0 0 0
258 0 2 0.5897 3.4607545013031213 9.950954086039898 9.806441441150506 0 0 0
14 0 2 0.5897 0.36746251661335644 11.577796397519679 9.573539707664407 0 0 0
15 0 2 0.5897 1.1102249174434282 10.258756790448775 9.785650171155966 0 0 0
767 0 2 0.5897 0.12657014258092536 13.275826433215345 10.844142590699759 0 0 0
766 0 1 -1.1794 0.0936948741434363 13.290545422012702 9.906051892678924 0 0 0
637 0 1 -1.1794 0.7374210613151443 13.35020719417462 12.762123949112675 0 0 0
639 0 2 0.5897 1.5832672609733724 13.57362211538169 13.216632481719673 0 0 0
638 0 2 0.5897 0.31741340127009937 12.628342946635987 13.221185607731075 0 0 0
821 0 2 0.5897 7.109552920533091 9.77393334500091 11.570410947840994 0 0 0
820 0 1 -1.1794 7.17298486608226 9.850163850647933 10.622502221073244 0 0 0
454 0 1 -1.1794 4.981372102473121 13.55397878613603 9.902733501567667 0 0 0