LAMMPS (29 Sep 2021 - Update 2)
  using 1 OpenMP thread(s) per MPI task
plugin load libdeepmd_lmp.so
Loading plugin: deepmd pair style v2.0 by Han Wang
Loading plugin: compute deeptensor/atom v2.0 by Han Wang
Loading plugin: fix dplr v2.0 by Han Wang
echo both

include		in.partitions
variable        pid world 0
include		in.temp
variable        temperature equal 270
variable        tempDamp equal 0.100
include		in.pressure
variable        pressure equal 0.986923
variable        pressureDamp equal 1.0 # This is 1 ps
include		in.seed
variable        seed world 745823

units           metal
atom_style	full
include		in.box
read_data       water.data
Reading data file ...
  orthogonal box = (0.0000000 0.0000000 0.0000000) to (18.207573 23.629177 22.213196)
  1 by 1 by 1 MPI processor grid
  reading atoms ...
  864 atoms
  reading velocities ...
  864 velocities
Finding 1-2 1-3 1-4 neighbors ...
  special bond factors lj:    0        0        0       
  special bond factors coul:  0        0        0       
     0 = max # of 1-2 neighbors
     0 = max # of 1-3 neighbors
     0 = max # of 1-4 neighbors
     1 = max # of special neighbors
  special bonds CPU = 0.001 seconds
  read_data CPU = 0.035 seconds
include 	in.setup
variable	out_freq equal 500
variable	out_freq2 equal 500

timestep        0.0005

neigh_modify    delay 7 every 1

include         in.deepmd
# This is deepMD model

# create groups ###
#group ox type 2
#group hy type 1

mass 2 15.999
mass 1 1.008

pair_style      deepmd ../graph.pb
pair_coeff      * *

bond_style      none
angle_style     none
dihedral_style  none
improper_style  none
neigh_modify exclude none


neighbor        2.0 bin
neigh_modify    every 10 delay 0 check no

thermo          ${out_freq}
thermo          500
thermo_style 	custom step temp pe etotal epair emol press lx ly lz xy xz yz vol pxx pyy pzz pxy pxz pyz cella cellb cellc cellalpha cellbeta cellgamma


restart 	${out_freq} restart.lmp.${pid} restart2.lmp.${pid}
restart 	500 restart.lmp.${pid} restart2.lmp.${pid}
restart 	500 restart.lmp.0 restart2.lmp.${pid}
restart 	500 restart.lmp.0 restart2.lmp.0


include         in.dump
dump            myDump all atom ${out_freq2} dump.water.${pid}
dump            myDump all atom 500 dump.water.${pid}
dump            myDump all atom 500 dump.water.0
dump            myDump2 all dcd ${out_freq2} dump.dcd
dump            myDump2 all dcd 500 dump.dcd
dump_modify     myDump append yes
dump_modify     myDump2 append yes


timer           timeout 23:50:00 every 1000
New timer settings: style=normal  mode=nosync  timeout=23:50:00

fix             2 all nph aniso ${pressure} ${pressure} ${pressureDamp}
fix             2 all nph aniso 0.986923 ${pressure} ${pressureDamp}
fix             2 all nph aniso 0.986923 0.986923 ${pressureDamp}
fix             2 all nph aniso 0.986923 0.986923 1
fix             3 all temp/csvr ${temperature} ${temperature} ${tempDamp} ${seed}
fix             3 all temp/csvr 270 ${temperature} ${tempDamp} ${seed}
fix             3 all temp/csvr 270 270 ${tempDamp} ${seed}
fix             3 all temp/csvr 270 270 0.1 ${seed}
fix             3 all temp/csvr 270 270 0.1 745823
velocity 	all create ${temperature} ${seed} dist gaussian
velocity 	all create 270 ${seed} dist gaussian
velocity 	all create 270 745823 dist gaussian

run             400000

CITE-CITE-CITE-CITE-CITE-CITE-CITE-CITE-CITE-CITE-CITE-CITE-CITE

Your simulation uses code contributions which should be cited:

- USER-DEEPMD package:

@article{Wang_ComputPhysCommun_2018_v228_p178,
  author = {Wang, Han and Zhang, Linfeng and Han, Jiequn and E, Weinan},
  doi = {10.1016/j.cpc.2018.03.016},
  url = {https://doi.org/10.1016/j.cpc.2018.03.016},
  year = 2018,
  month = {jul},
  publisher = {Elsevier {BV}},
  volume = 228,
  journal = {Comput. Phys. Commun.},
  title = {{DeePMD-kit: A deep learning package for many-body potential energy representation and molecular dynamics}},
  pages = {178--184}
}

CITE-CITE-CITE-CITE-CITE-CITE-CITE-CITE-CITE-CITE-CITE-CITE-CITE

Neighbor list info ...
  update every 10 steps, delay 0 steps, check no
  max neighbors/atom: 2000, page size: 100000
  master list distance cutoff = 8
  ghost atom cutoff = 8
  binsize = 4, bins = 5 6 6
  1 neighbor lists, perpetual/occasional/extra = 1 0 0
  (1) pair deepmd, perpetual
      attributes: full, newton on
      pair build: full/bin
      stencil: full/bin/3d
      bin: standard
Per MPI rank memory allocation (min/avg/max) = 7.189 | 7.189 | 7.189 Mbytes
Step Temp PotEng TotEng E_pair E_mol Press Lx Ly Lz Xy Xz Yz Volume Pxx Pyy Pzz Pxy Pxz Pyz Cella Cellb Cellc CellAlpha CellBeta CellGamma 
       0          270   -169.12462   -139.00571   -169.12462            0   -24250.196    18.207573    23.629177    22.213196            0            0            0    9556.7825   -24607.704   -23688.633   -24454.249   -5.7016984    314.05279   -225.22431    18.207573    23.629177    22.213196           90           90           90 
     500    253.16227   -148.50932   -120.26869   -148.50932            0   -3791.3366    18.010983    23.329431     21.93659            0            0            0    9217.4473   -6923.9727   -2211.1671     -2238.87   -1086.1139   -262.54474   -430.53536    18.010983    23.329431     21.93659           90           90           90 
    1000    251.16286   -143.17605   -115.15846   -143.17605            0    278.83066    17.803263    23.099067    21.829759            0            0            0    8977.2431    1184.6487   -1309.5484    961.39173   -1070.2865       90.062    772.08252    17.803263    23.099067    21.829759           90           90           90 
    1500    265.10235   -145.78931   -116.21675   -145.78931            0    986.89942    18.055243    23.429122    22.221703            0            0            0    9400.1911    2846.7211    1321.4474   -1207.4703   -318.72241    129.86245   -697.64797    18.055243    23.429122    22.221703           90           90           90 
    2000    274.22591   -143.95473   -113.36441   -143.95473            0     489.1003    18.094084    23.431128    22.161684            0            0            0    9395.7738    1254.7185    762.91973   -550.33735    383.13809   -1532.0327    128.51599    18.094084    23.431128    22.161684           90           90           90 
    2500     278.1947   -144.17856   -113.14552   -144.17856            0    -1114.875    18.056043    23.392309    22.005621            0            0            0    9294.5704   -2659.3742    238.09789   -923.34878    2540.7575    133.54325   -957.95502    18.056043    23.392309    22.005621           90           90           90 
    3000     264.0347   -141.59402   -112.14056   -141.59402            0     653.3299    17.911298    23.395012    22.049147            0            0            0    9239.3645    639.95498   -422.01721    1742.0519    816.83609    1889.4498   -1087.4078    17.911298    23.395012    22.049147           90           90           90 
    3500    272.38272    -144.4255    -114.0408    -144.4255            0    202.80043    17.941867     23.49639    22.213776            0            0            0    9364.6417   -2065.1051    3642.2943   -968.78793    1623.9165   -379.55871    1613.5065    17.941867     23.49639    22.213776           90           90           90 
    4000    263.38064   -144.44444   -115.06393   -144.44444            0   -4237.0064    18.155926    23.555799    22.360722            0            0            0    9563.1741   -3252.4602   -6525.5483   -2933.0106     422.9959   -1822.3655   -1250.0003    18.155926    23.555799    22.360722           90           90           90 
    4500    256.20793   -143.23831   -114.65793   -143.23831            0    4276.5884    18.024838    23.181369     21.89916            0            0            0    9150.3544    3485.0362     5708.033    3636.6961    2585.6664    386.54006    1451.9739    18.024838    23.181369     21.89916           90           90           90 
    5000    267.40346   -143.62931   -113.80005   -143.62931            0    411.46305    18.068803    23.276834    22.031307            0            0            0     9266.027     3285.969   -2596.3136    544.73376   -639.65999   -928.50436    172.00281    18.068803    23.276834    22.031307           90           90           90 
    5500     267.3158   -145.18482   -115.36534   -145.18482            0   -1223.4226    18.179822    23.457944    22.305593            0            0            0    9512.4712    1097.5668    -6239.529    1471.6944    360.91962   -1633.5344    936.95858    18.179822    23.457944    22.305593           90           90           90 
    6000    270.86156    -144.9182   -114.70319    -144.9182            0   -1984.0889    18.028426    23.326104    22.124709            0            0            0    9304.1689     1827.468   -2015.7087    -5764.026   -793.00877     399.8567   -325.36219    18.028426    23.326104    22.124709           90           90           90 
    6500    256.47651   -143.70006   -115.08972   -143.70006            0   -1460.1149    18.024674     23.41914    22.040638            0            0            0     9303.846   -1953.9528   -1758.8984   -667.49345   -492.31824    307.11085   -919.45456    18.024674     23.41914    22.040638           90           90           90 
    7000    267.73033   -142.43886   -112.57314   -142.43886            0     1959.526    17.999278    23.548833    22.108266            0            0            0    9370.8538    2067.7021    1108.3556    2702.5205   -971.08187   -2366.6331   -266.16494    17.999278    23.548833    22.108266           90           90           90 
    7500    278.35623   -144.06571   -113.01465   -144.06571            0   -714.80228    18.088806    23.576484    22.259885            0            0            0     9493.183   -266.17216   -3669.5866    1791.3519     1923.009   -252.33676    -923.5087    18.088806    23.576484    22.259885           90           90           90 
    8000    259.62103   -143.08643   -114.12532   -143.08643            0   -861.05388    18.050905    23.269117    22.208461            0            0            0    9328.1893   -4284.7978    526.29665    1175.3395    618.87282    -205.2843   -1025.1409    18.050905    23.269117    22.208461           90           90           90 
    8500    273.00848    -144.7652   -114.31069    -144.7652            0     381.7104    18.102624     23.21522    22.101297            0            0            0    9288.2115    1347.1931   -1175.5068    973.44491    207.54188    7.9895909    164.94653    18.102624     23.21522    22.101297           90           90           90 
    9000    282.32653   -143.57819   -112.08424   -143.57819            0   -1098.4354    18.186819    23.423009    22.140579            0            0            0    9431.6657   -1903.7015    831.56371   -2223.1685   -2198.9651   -743.89467    1197.4792    18.186819    23.423009    22.140579           90           90           90 
    9500    281.40593   -143.79327   -112.40202   -143.79327            0    1300.3215    18.174834    23.569592    22.118584            0            0            0     9475.014    4076.0248    -251.1245     76.06426    4247.6712   -2312.8438   -1174.6968    18.174834    23.569592    22.118584           90           90           90 
   10000    274.47599   -142.71138   -112.09317   -142.71138            0     651.8105    17.967457    23.527441    22.098526            0            0            0    9341.6722    2347.7047    772.65198   -1164.9252    958.81996   -8.2690381   -1302.3816    17.967457    23.527441    22.098526           90           90           90 
   10500    282.03583   -141.29499   -109.83347   -141.29499            0    1563.5349    17.840783    23.553244    22.364849            0            0            0    9397.8957    1612.2901    3414.3533   -336.03892    74.485093    336.49587   -402.82887    17.840783    23.553244    22.364849           90           90           90 
   11000    270.87619   -142.27881   -112.06216   -142.27881            0   -1681.3088    17.986631    23.562195    22.424524            0            0            0    9503.6142   -1969.0562   -1651.1847   -1423.6854    1046.5346    3307.4875    -242.8304    17.986631    23.562195    22.424524           90           90           90 
   11500    263.48338   -142.85543   -113.46346   -142.85543            0    2571.7755     18.22739    23.298296    21.941341            0            0            0    9317.7664   -664.40685    2910.2659    5469.4675    -1159.673   -521.93114   -2038.0507     18.22739    23.298296    21.941341           90           90           90 
   12000     273.7233   -142.95833   -112.42408   -142.95833            0   -150.70732    18.367589    23.330614    21.919288            0            0            0    9393.0095   -1533.3522    1745.0086   -663.77835    1863.6181     875.2611    -849.5723    18.367589    23.330614    21.919288           90           90           90 
   12500    270.21295   -142.05466     -111.912   -142.05466            0   -242.05423    18.143144    23.385712    22.199341            0            0            0    9418.9659   -1667.6541    726.50495    214.98644    742.25318    903.76155   -217.06803    18.143144    23.385712    22.199341           90           90           90 
   13000    273.57555   -141.60089   -111.08313   -141.60089            0    1677.6223    17.903614    23.396156    22.377786            0            0            0    9373.5115     583.2876    2215.1538    2234.4254    874.78563   -38.510377    393.17241    17.903614    23.396156    22.377786           90           90           90 
   13500    264.74152     -144.094   -114.56169     -144.094            0    32.565893    18.001245    23.454016    22.273319            0            0            0    9403.8286   -2312.5926     2895.155   -484.86467   -1630.5468   -1804.6012   -707.30326    18.001245    23.454016    22.273319           90           90           90 
   14000    271.18335   -144.72334   -114.47243   -144.72334            0   -3751.5784    18.172185    23.511279    22.102066            0            0            0    9443.1369   -4233.7591   -4089.1196   -2931.8564    2503.1426   -2036.3817    -906.7854    18.172185    23.511279    22.102066           90           90           90 
   14500    267.71974   -144.66131   -114.79677   -144.66131            0    1614.4735     18.16563    23.485715    22.066308            0            0            0     9414.211   -2788.0872    3619.5824    4011.9253   -2127.1425    727.23174   -1404.8334     18.16563    23.485715    22.066308           90           90           90 
   15000    276.48546   -144.48613   -113.64376   -144.48613            0    181.69135     18.03977    23.390489    22.253888            0            0            0    9390.2296    4964.5529   -3291.3283   -1128.1506    1429.0254   -680.16279     306.9269     18.03977    23.390489    22.253888           90           90           90 
   15500    266.11711   -142.98934   -113.30358   -142.98934            0   -1663.8894    17.985184     23.36038    22.397809            0            0            0    9410.2318    955.65523   -1392.6636   -4554.6597   -1912.4547   -1134.1745    796.34871    17.985184     23.36038    22.397809           90           90           90 
   16000    276.10633   -144.60358    -113.8035   -144.60358            0    2689.1061    18.069698    23.455754    22.183588            0            0            0    9402.2564    2632.0617    3084.8578    2350.3988   -142.16887    627.47749    565.51157    18.069698    23.455754    22.183588           90           90           90 
   16500    268.26435   -143.17353   -113.24824   -143.17353            0    542.86513    18.229609    23.520901    21.868862            0            0            0    9376.8613    858.18375    3070.6208   -2300.2091   -1958.2997    683.88016    1074.4351    18.229609    23.520901    21.868862           90           90           90 
   17000    271.02595     -143.609   -113.37565     -143.609            0   -2212.8932    18.257537    23.423088    21.947277            0            0            0     9385.707   -1998.2462     -5177.88    537.44667   -1444.7693   -582.71894   -1806.0518    18.257537    23.423088    21.947277           90           90           90 
   17500    261.96318   -142.41869    -113.1963   -142.41869            0   -357.90668    18.148541    23.312201    22.453659            0            0            0    9499.7489   -579.89658   -3827.1344     3333.311    -2054.615    767.26382    -604.0213    18.148541    23.312201    22.453659           90           90           90 
   18000    259.85363   -143.85001   -114.86294   -143.85001            0     890.7866     17.89356    23.276575    22.503789            0            0            0    9372.8457    543.36115    4907.6486   -2778.6499    299.19887    1428.6503    425.28705     17.89356    23.276575    22.503789           90           90           90 
   18500    259.10217   -142.96153   -114.05829   -142.96153            0   -2690.0359     17.94156    23.597306    22.104139            0            0            0     9358.284   -2433.2191   -4900.0304   -736.85807   -1094.7678     1128.042   -1354.1753     17.94156    23.597306    22.104139           90           90           90 
   19000    259.44933   -142.90115   -113.95918   -142.90115            0    2382.7656    18.116885    23.693462    21.943619            0            0            0    9419.3363    6324.6263    602.24191    221.42847    1394.7758   -492.79358    1305.3466    18.116885    23.693462    21.943619           90           90           90 
   19500    269.63428   -143.46492   -113.38681   -143.46492            0    2053.9012     18.16436    23.499656    22.050525            0            0            0    9412.4038    638.48939    1434.6287    4088.5856   -3216.2569    2183.7597   -1349.4516     18.16436    23.499656    22.050525           90           90           90 
   20000    264.95708   -144.42905   -114.87269   -144.42905            0    -775.4292    18.101998    23.342333    22.238015            0            0            0    9396.5144   -1184.2639    1665.8661   -2807.8898    1393.9263   -468.16089    336.38305    18.101998    23.342333    22.238015           90           90           90 
   20500    266.63679   -144.31068   -114.56695   -144.31068            0    1797.2532    18.024818    23.316521    22.250858            0            0            0    9351.5026    769.75101    2028.4616    2593.5471   -514.07916    615.21758    78.757097    18.024818    23.316521    22.250858           90           90           90 
   21000      263.019   -144.83478   -115.49462   -144.83478            0   -764.46155    18.108828    23.453419    22.188995            0            0            0    9423.9753    159.50126   -1063.8035   -1389.0824    1766.2819   -1244.9695    1464.0869    18.108828    23.453419    22.188995           90           90           90 
   21500    265.70703   -145.68221   -116.04219   -145.68221            0   -3116.6974    18.164617    23.590773    22.089861            0            0            0    9465.8887   -5728.2208   -2058.1346   -1563.7367   -379.48183   -881.07352   -303.39559    18.164617    23.590773    22.089861           90           90           90 
   22000     267.3777   -144.19292   -114.36653   -144.19292            0    1788.2451     18.01283    23.497423    22.018065            0            0            0    9319.2584    1166.6434    3217.6652    980.42682    615.86647    451.26383    441.16848     18.01283    23.497423    22.018065           90           90           90 
   22500    255.82843   -142.87283   -114.33478   -142.87283            0   -907.44111    18.053354     23.47555    22.312368            0            0            0     9456.259   -3065.3427   -1037.0449    1380.0643   -2076.8154    1007.0099   -1270.1956    18.053354     23.47555    22.312368           90           90           90 
   23000    265.12349   -144.57191   -114.99698   -144.57191            0   -330.43043    18.062156    23.275556    22.350506            0            0            0    9396.3031    3046.5379   -2112.2573   -1925.5719   -514.82344   -551.82764    142.06629    18.062156    23.275556    22.350506           90           90           90 
   23500    269.37219   -143.44943   -113.40056   -143.44943            0      1898.03    18.174329    23.265093    22.157447            0            0            0    9368.7771    106.24256     1645.885    3941.9625    576.60023   -235.60309   -559.14262    18.174329    23.265093    22.157447           90           90           90 
   24000    278.96338   -142.70283   -111.58405   -142.70283            0    1055.2856     18.19682    23.479218    21.981495            0            0            0    9391.5299    3930.8693    -195.4028   -569.60959   -2371.3866    235.35906    312.83641     18.19682    23.479218    21.981495           90           90           90 
   24500    263.19415   -142.52621   -113.16651   -142.52621            0    1740.0713    18.039584    23.630595    22.046807            0            0            0    9398.2471    511.51878    2949.7732    1758.9221   -427.73034   -2276.0663    417.90061    18.039584    23.630595    22.046807           90           90           90 
   25000    274.99462   -142.66845   -111.99238   -142.66845            0    82.726447    17.943224    23.629728    22.304251            0            0            0    9456.8574    1320.5346    -2126.273    1053.9178    723.68814    904.93011   -221.38198    17.943224    23.629728    22.304251           90           90           90 
   25500    264.45973   -141.16657   -111.66569   -141.16657            0     249.2241    17.921803    23.350354    22.347538            0            0            0    9352.0078    1245.3129    1870.0137   -2367.6543    927.37377    1201.3268    2173.8274    17.921803    23.350354    22.347538           90           90           90 
   26000    269.18141   -142.08481   -112.05722   -142.08481            0   -269.53221    18.155972      23.2641    22.257326            0            0            0    9401.1014   -5281.2763    2042.7394    2429.9402   -1745.4144    544.22911   -839.71107    18.155972      23.2641    22.257326           90           90           90 
   26500    278.55768    -144.3786   -113.30507    -144.3786            0    641.59202    18.402943    23.381991    21.991531            0            0            0    9462.8995   -3018.9351     161.4936    4782.2175    418.42082   -1411.1759   -1324.9056    18.402943    23.381991    21.991531           90           90           90 
   27000    282.55429   -143.65213   -112.13277   -143.65213            0    1312.9317    18.278518    23.437527    21.892168            0            0            0    9378.6764     2214.183   -584.14697    2308.7589    102.04598    509.23877     472.7774    18.278518    23.437527    21.892168           90           90           90 
   27500    271.26891   -143.11375    -112.8533   -143.11375            0   -13.403802    17.882926    23.482508    22.161288            0            0            0    9306.3218   -1988.7145    58.676788    1889.8263   -480.58887   -760.76083   -1837.4435    17.882926    23.482508    22.161288           90           90           90 
   28000    265.35317   -143.90071   -114.30016   -143.90071            0    1544.4396    17.798632     23.61132    22.479578            0            0            0    9447.0248    3961.8914   -39.069385    710.49683    2129.9851   -146.08163    250.60402    17.798632     23.61132    22.479578           90           90           90 
   28500    276.71906   -143.44634   -112.57791   -143.44634            0    850.52927    17.948729    23.429247    22.287422            0            0            0    9372.4228    153.28397   -358.46014     2756.764    260.76555   -1836.0051   -499.55427    17.948729    23.429247    22.287422           90           90           90 
   29000    276.63403   -144.75981   -113.90086   -144.75981            0    945.25181    18.266493    23.377535    22.053875            0            0            0    9417.5688    523.45892   -1017.2336    3329.5302    1249.5305    359.58624   -1120.0973    18.266493    23.377535    22.053875           90           90           90 
   29500    273.38713   -142.39044    -111.8937   -142.39044            0    583.65403    18.257917    23.366994    22.003663            0            0            0     9387.481   -2739.6352    2074.2696    2416.3277   -1464.3644    406.81224   -140.53526    18.257917    23.366994    22.003663           90           90           90 
   30000    285.11781   -141.41644   -109.61112   -141.41644            0   -2370.7361    18.089994    23.477322    22.210814            0            0            0    9433.0353   -515.28175   -3995.3782   -2601.5485    384.83851    352.92997    137.49682    18.089994    23.477322    22.210814           90           90           90 
   30500    266.18953   -141.27111   -111.57727   -141.27111            0    -210.8137    17.988688    23.531541     22.34964            0            0            0    9460.6375   -4107.5748    1171.0326    2304.1011    1401.8056    2372.8421    1861.2359    17.988688    23.531541     22.34964           90           90           90 
   31000    275.89541   -142.74773   -111.97118   -142.74773            0    129.74045    17.959744    23.460471    22.200345            0            0            0    9353.9832     1222.333   -579.76928   -253.34236    68.735519    568.17024    1144.4784    17.959744    23.460471    22.200345           90           90           90 
   31500    275.11648   -143.18062   -112.49097   -143.18062            0   -2151.1451    18.176076     23.53284    22.121793            0            0            0    9462.2584   -2829.0257   -1610.9631   -2013.4464   -1860.6733    338.07644   -1176.6582    18.176076     23.53284    22.121793           90           90           90 
   32000    274.55759   -143.88152   -113.25421   -143.88152            0    2998.8313    18.159813    23.375929    21.932151            0            0            0    9310.2527    3203.7628    283.38972    5509.3415    665.00237   -517.67777   -68.718941    18.159813    23.375929    21.932151           90           90           90 
   32500    277.75762   -144.02032   -113.03604   -144.02032            0     1776.047    18.190404    23.420333    22.201514            0            0            0    9458.4072   -987.13709    2837.6774    3477.6008   -1412.7431    120.33369   -629.32373    18.190404    23.420333    22.201514           90           90           90 
   33000    269.85721   -143.15542   -113.05244   -143.15542            0    1059.8838    18.089972    23.425577    22.389477            0            0            0    9487.9445    459.44296    611.16809    2109.0403   -534.54947    987.51184   -793.55176    18.089972    23.425577    22.389477           90           90           90 
   33500    276.35235   -143.79295   -112.96543   -143.79295            0    1970.2644    17.889866    23.412946    22.152544            0            0            0    9278.6919    4967.6437    1033.9168   -90.767263   -3064.5888    676.44918   -3196.3978    17.889866    23.412946    22.152544           90           90           90 
   34000    262.82931   -144.79719   -115.47819   -144.79719            0    116.49002    18.033439    23.710293    22.062433            0            0            0    9433.4133    -704.4273   -718.59445    1772.4918    778.60151   -1032.5133    703.01137    18.033439    23.710293    22.062433           90           90           90 
   34500    258.62726   -144.69906    -115.8488   -144.69906            0   -1048.6995    18.140736    23.609558     22.03364            0            0            0    9436.8927   -2253.9318   -543.85899   -348.30782    1171.1035   -1168.5504   -735.30076    18.140736    23.609558     22.03364           90           90           90 
   35000    253.49436   -144.59993   -116.32225   -144.59993            0   -1204.3582    18.155788    23.260532    22.207642            0            0            0    9378.5823   -1115.8909   -1199.2726   -1297.9112    1035.3621   -996.19184    1283.2953    18.155788    23.260532    22.207642           90           90           90 
   35500    266.01679   -144.48762   -114.81304   -144.48762            0    -97.59122    18.148652    23.149387    22.382797            0            0            0    9403.6885     2370.344    -2432.922   -230.19567    291.87596   -534.21117    647.77269    18.148652    23.149387    22.382797           90           90           90 
   36000    273.02755   -144.72052   -114.26389   -144.72052            0    1995.9828    18.100008    23.402475    22.206104            0            0            0     9406.172    181.12203    3836.0463    1970.7799   -981.30893   -1488.9982    588.45464    18.100008    23.402475    22.206104           90           90           90 
   36500    285.01301   -145.60043    -113.8068   -145.60043            0    1355.8728    18.098827    23.754725    21.975599            0            0            0    9448.0278   -171.72284   -95.783861    4335.1252   -833.32222    778.42264    1249.8306    18.098827    23.754725    21.975599           90           90           90 
   37000    258.46946   -142.45172   -113.61906   -142.45172            0    742.41351    18.074176    23.717223     22.05312            0            0            0    9453.4946    5447.4327    1085.6331   -4305.8253    408.18659    -334.3921   -2308.3254    18.074176    23.717223     22.05312           90           90           90 
   37500    272.92679   -144.37485   -113.92945   -144.37485            0    2030.0932    18.064068    23.251606    22.339678            0            0            0    9383.0803    1451.0929    2067.3368      2571.85   -415.40056   -1502.2158    -302.3078    18.064068    23.251606    22.339678           90           90           90 
   38000    270.79141   -142.58507   -112.37788   -142.58507            0    40.336619    18.148711    23.085832    22.461408            0            0            0    9410.8377    1290.1148    1705.3821   -2874.4871    657.17623   -185.45668    3192.3727    18.148711    23.085832    22.461408           90           90           90 
   38500    279.25857   -144.06094   -112.90923   -144.06094            0   -666.80474    18.275555     23.39638    22.242628            0            0            0    9510.5435   -532.04209    767.69204   -2236.0642   -1939.1258    1188.6589    127.41972    18.275555     23.39638    22.242628           90           90           90 
   39000    284.46097   -145.64581   -113.91376   -145.64581            0   -846.24822    18.140473    23.596892    21.901694            0            0            0    9375.2124    -893.0101   -1278.8757   -366.85883   -1758.1909   -1010.8015    2334.9023    18.140473    23.596892    21.901694           90           90           90 
   39500    275.79509   -143.68864   -112.92328   -143.68864            0   -409.69032    18.020738    23.613378    22.008095            0            0            0    9365.1159    840.99877    1046.3447   -3116.4144   -362.45088    1259.0596    500.99594    18.020738    23.613378    22.008095           90           90           90 
   40000    274.30343   -144.19566    -113.5967   -144.19566            0    -848.4346    18.066475    23.592281    22.332893            0            0            0    9518.9345   -1012.3953   -44.509642   -1488.3989   -403.66809    -325.4215    1384.1955    18.066475    23.592281    22.332893           90           90           90 
   40500    267.78364   -144.36854   -114.49687   -144.36854            0   -867.80911    18.105798    23.376016    22.301179            0            0            0    9438.7826   -1684.3499    1602.9586    -2522.036    1980.5577   -784.94498   -374.12659    18.105798    23.376016    22.301179           90           90           90 
   41000    266.73134   -143.28541   -113.53112   -143.28541            0   -427.94564    18.167273    23.335003    22.170846            0            0            0    9398.9613   -47.059056   -1.5673984   -1235.2105   -1672.7277    806.99575    473.49265    18.167273    23.335003    22.170846           90           90           90 
   41500    277.68947   -144.10945   -113.13277   -144.10945            0    61.112098    18.091739    23.415112    22.066343            0            0            0    9347.7466   -604.08084   -924.16384     1711.581    430.11877    300.65865   -492.68848    18.091739    23.415112    22.066343           90           90           90 
   42000    270.85632   -143.60193    -113.3875   -143.60193            0    -3111.423    18.114808    23.669566     22.22958            0            0            0    9531.3688    511.29741   -3203.5655   -6642.0009    2275.1574   -1163.1151   -143.28616    18.114808    23.669566     22.22958           90           90           90 
   42500    281.06784   -144.30525   -112.95171   -144.30525            0   -889.37322    18.056606    23.568676    22.236344            0            0            0    9463.1279     919.0284   -1913.6404   -1673.5077     922.4305    367.97467    128.43038    18.056606    23.568676    22.236344           90           90           90 
   43000    277.83558    -143.3042   -112.31123    -143.3042            0   -782.16289    18.059607    23.313806     22.16593            0            0            0     9332.703    178.64352   -1162.5256   -1362.6066    853.98724    147.62516   -103.26785    18.059607    23.313806     22.16593           90           90           90 
   43500    268.83896   -143.52065   -113.53126   -143.52065            0    2620.1096    18.212135    23.359052    22.183686            0            0            0    9437.3437    1024.5618    1060.2871    5775.4798   -929.23398    786.42683    250.91671    18.212135    23.359052    22.183686           90           90           90 
   44000    270.48942    -144.0307    -113.8572    -144.0307            0    735.48443    18.263766    23.535052    22.179833            0            0            0    9533.7501     386.1597    2592.8023   -772.50869   -651.74175    664.03775   -8.9290257    18.263766    23.535052    22.179833           90           90           90 
   44500    275.57477   -143.97862   -113.23784   -143.97862            0    2687.9198    18.017844    23.580698    22.065474            0            0            0    9375.0317   -679.80849    3707.8814    5035.6864     1210.547   -50.822087    -1883.782    18.017844    23.580698    22.065474           90           90           90 
   45000    254.23384   -143.68681   -115.32664   -143.68681            0    -2692.824    17.831448      23.6184    22.212351            0            0            0    9354.7377    -603.7206    -3429.747   -4045.0043    665.05006    1401.1868   -450.93004    17.831448      23.6184    22.212351           90           90           90 
   45500     271.6423   -145.45509   -115.15298   -145.45509            0    1839.9812    17.943457    23.540153    22.411328            0            0            0    9466.3597    1738.8639    3583.8899    197.18973     2017.428   -3517.7041   -1057.7519    17.943457    23.540153    22.411328           90           90           90 
   46000    265.08545   -143.62244   -114.05176   -143.62244            0   -1066.4049    18.188545    23.279261    22.170589            0            0            0    9387.3795    643.37469   -752.39365   -3090.1956    -1288.001    1729.1905    586.75787    18.188545    23.279261    22.170589           90           90           90 
   46500    270.31887   -143.94138    -113.7869   -143.94138            0   -2614.6735    18.440624    23.237211    22.075156            0            0            0    9459.3954   -3442.4493   -1034.5126   -3367.0587    2455.2568   -2200.8524   -437.55082    18.440624    23.237211    22.075156           90           90           90 
   47000    276.04552   -144.03102   -113.23773   -144.03102            0   -3007.8209    18.298196    23.336932    22.120766            0            0            0    9446.0926   -2718.2366   -1517.9408   -4787.2855   -1938.1997     1712.524   -180.76391    18.298196    23.336932    22.120766           90           90           90 
   47500    281.64186   -144.17848   -112.76091   -144.17848            0   -1608.6522    17.901583    23.492377    22.196679            0            0            0    9334.8297   -317.70393   -959.91285   -3548.3398    522.97819   -1611.0391   -148.57633    17.901583    23.492377    22.196679           90           90           90 
   48000    280.18393   -143.93213   -112.67719   -143.93213            0   -32.190008    17.932554    23.752048    22.312129            0            0            0    9503.5139    1955.9088   -1979.1284   -73.350417   -384.36543   -564.27719   -737.44412    17.932554    23.752048    22.312129           90           90           90 
   48500    273.86133   -143.59341   -113.04377   -143.59341            0   -464.12275    18.042418    23.528625    22.155923            0            0            0    9405.4838    584.82506   -797.46771   -1179.7256   -110.79096    2379.0051   -503.65265    18.042418    23.528625    22.155923           90           90           90 
   49000    274.37995   -142.13408   -111.52658   -142.13408            0   -1974.1553    18.238098    23.334006    22.108625            0            0            0    9408.7207   -1395.7053   -1025.3546   -3501.4061   -280.37977   -1367.7593   -1259.4773    18.238098    23.334006    22.108625           90           90           90 
   49500    289.31251   -140.75892   -108.48568   -140.75892            0   -544.38359    18.319973    23.337071    22.206157            0            0            0    9493.8986   -3166.6609     1702.116   -168.60592   -632.88669    432.95897   -1664.3806    18.319973    23.337071    22.206157           90           90           90 
   50000    286.63981   -143.51953   -111.54443   -143.51953            0    -197.1667     18.12046    23.439364     22.24013            0            0            0    9446.0962    2527.7771     74.44484   -3193.7221   -300.65947   -600.10389   -467.45317     18.12046    23.439364     22.24013           90           90           90 
   50500    274.14656   -143.87895   -113.29749   -143.87895            0   -72.472774    17.902469    23.527246    22.092713            0            0            0    9305.3575   -2648.2268    184.47172    2246.3368   -1213.9807     621.8461    708.33955    17.902469    23.527246    22.092713           90           90           90 
   51000    269.89164    -142.2699   -112.16308    -142.2699            0    1038.4229     18.01232      23.7126    22.135846            0            0            0    9454.6388   -2683.4352   -679.48112     6478.185   -1333.6473   -455.07011    1072.4631     18.01232      23.7126    22.135846           90           90           90 
   51500    274.44676   -144.51311   -113.89816   -144.51311            0    550.54914    18.129705    23.632209    22.264334            0            0            0    9539.0421    2791.2324   -534.89578   -604.68915   -1044.3451     392.9845   -279.36987    18.129705    23.632209    22.264334           90           90           90 
   52000    254.52532   -144.07556   -115.68288   -144.07556            0   -2783.3689    18.123082    23.243081    22.134878            0            0            0    9324.0132    -3992.309   -1032.4799   -3325.3178   -3510.3387    1522.1066    816.08409    18.123082    23.243081    22.134878           90           90           90 
   52500    282.57106   -143.67471   -112.15349   -143.67471            0    6.5374163    18.236256    23.257127    22.225227            0            0            0    9426.2282    497.78548    344.80358   -822.97681    2476.7758   -377.63265   -635.42746    18.236256    23.257127    22.225227           90           90           90 
   53000    265.29291   -143.27333   -113.67951   -143.27333            0    1474.4056    18.158016    23.467238    22.150745            0            0            0    9438.8416    522.82763    2960.1591     940.2302   -2275.6062    802.62288    685.21829    18.158016    23.467238    22.150745           90           90           90 
   53500    272.58306   -144.72919   -114.32214   -144.72919            0   -169.67454    17.926942    23.732899    22.076309            0            0            0    9392.5486     681.6953   -4658.3703    3467.6514     164.6218   -1595.2278    669.93571    17.926942    23.732899    22.076309           90           90           90 
   54000    276.17416   -143.20343   -112.39579   -143.20343            0     465.8235    17.918788    23.822975    22.248803            0            0            0    9497.5434    3094.4462   -965.43521   -731.54046    110.32504    369.17494     1701.103    17.918788    23.822975    22.248803           90           90           90 
   54500     262.1903   -144.73245   -115.48473   -144.73245            0    622.40912    18.047039    23.325158    22.313248            0            0            0    9392.7625    1188.3992    1484.7683   -805.94012    535.28606   -42.950729    503.58014    18.047039    23.325158    22.313248           90           90           90 
   55000    266.72735   -143.85564    -114.1018   -143.85564            0    1082.3061    18.333395    22.977222    22.178275            0            0            0    9342.6093    484.49459    2411.7768    350.64699   -160.93273    923.35856    2171.0951    18.333395    22.977222    22.178275           90           90           90 
   55500    258.03961   -143.52603   -114.74133   -143.52603            0    1183.7981    18.453481    23.258205    22.149298            0            0            0    9506.3643    492.15417    4068.8964   -1009.6564    2423.5837   -1267.6721   -1035.6646    18.453481    23.258205    22.149298           90           90           90 
   56000    270.47721   -142.40325   -112.23111   -142.40325            0    1312.1686    18.113728    23.512883    22.054436            0            0            0     9393.116    1599.0725    2489.8088   -152.37546    70.186969   -770.06182    359.23333    18.113728    23.512883    22.054436           90           90           90 
   56500    277.25886   -142.81649   -111.88784   -142.81649            0    841.92846    17.941517    23.720577    22.191095            0            0            0    9444.1558    3343.5305   -45.678657   -772.06645    1213.9661    961.49966    1294.5616    17.941517    23.720577    22.191095           90           90           90 
   57000    276.58122   -144.15288   -113.29983   -144.15288            0    -64.48891    17.925454    23.614973     22.28314            0            0            0    9432.6562    1535.8709   -8.4461975   -1720.8914    1491.3356   -112.07584   -489.99492    17.925454    23.614973     22.28314           90           90           90 
   57500    274.49602   -144.30315    -113.6827   -144.30315            0   -1363.4575    18.080837    23.413516    22.186953            0            0            0    9392.5352    426.29646   -1909.9147   -2606.7542   -3860.5914    1363.9717   -1609.6006    18.080837    23.413516    22.186953           90           90           90 
   58000    269.53828   -143.08494   -113.01754   -143.08494            0   -551.51465    18.254209    23.274842    22.073042            0            0            0    9378.0371   -4648.9027   -1070.2993     4064.658   -336.09543   -510.62634    1076.1136    18.254209    23.274842    22.073042           90           90           90 
   58500    271.48643   -144.02368   -113.73896   -144.02368            0   -1372.2108    18.256533    23.308346    22.145014            0            0            0    9423.3591   -2318.3761   -1393.5078    -404.7485    740.59365     -563.526   -853.06868    18.256533    23.308346    22.145014           90           90           90 
   59000    274.55462    -142.9857   -112.35872    -142.9857            0    -146.9277    18.086133    23.521908    22.296641            0            0            0    9485.4447    259.35911   -3205.2148    2505.0726    1655.5062    1060.8445    298.32962    18.086133    23.521908    22.296641           90           90           90 
   59500    272.36533   -143.69073   -113.30797   -143.69073            0   -512.65758    17.831783    23.644557    22.207756            0            0            0    9363.3366    1060.7752   -1210.7788   -1387.9691   -762.65266     729.9592    566.74465    17.831783    23.644557    22.207756           90           90           90 
   60000    258.26426   -142.33011   -113.52034   -142.33011            0   -183.43985    17.948932    23.659884    22.171012            0            0            0    9415.3561   -158.51649   -422.27069    30.467635    -716.9441    -2944.201   -237.53124    17.948932    23.659884    22.171012           90           90           90 
   60500    261.21638   -142.82286   -113.68378   -142.82286            0   -1459.9179     18.18789    23.453722    22.119533            0            0            0    9435.6119   -4344.4642   -2859.9026    2824.6131    1300.4123   -1695.0761    480.23968     18.18789    23.453722    22.119533           90           90           90 
   61000     268.8252    -143.5789   -113.59105    -143.5789            0   -934.27366    18.241415    23.193392    22.088567            0            0            0    9345.2369   -2138.9987    908.78785   -1572.6102   -128.68442    1035.3628    -519.7077    18.241415    23.193392    22.088567           90           90           90 
   61500    271.01749   -143.35029   -113.11788   -143.35029            0   -795.15735    18.299692    23.365616    22.274945            0            0            0    9524.4009   -459.72157   -787.34761   -1138.4029   -457.25175     851.7145    230.50676    18.299692    23.365616    22.274945           90           90           90 
   62000    276.72835   -143.02117    -112.1517   -143.02117            0    708.05717    18.049933    23.510645    22.189684            0            0            0    9416.5375    2342.9393    3154.7427   -3373.5106    2046.9458    1931.0113   -69.617225    18.049933    23.510645    22.189684           90           90           90 
   62500    278.54451   -144.20674   -113.13468   -144.20674            0   -234.07251    17.896465    23.690153    22.172468            0            0            0    9400.4613    1112.1296   -1056.9873   -757.35981    770.83297   -307.65042   -1917.2383    17.896465    23.690153    22.172468           90           90           90 
   63000    281.61865   -142.10281   -110.68783   -142.10281            0    -841.0129    17.951215    23.748545    22.193977            0            0            0    9461.6311    2539.7353   -4524.3783   -538.39566    557.61786   -2049.8339    -286.2626    17.951215    23.748545    22.193977           90           90           90 
   63500    266.52977   -143.59389   -113.86209   -143.59389            0    1227.9411    18.136484    23.518634     22.14891            0            0            0    9447.5143   -182.68007   -522.41481    4388.9183    -2040.505   -530.92696   -501.40737    18.136484    23.518634     22.14891           90           90           90 
   64000     269.9669   -142.17464   -112.05942   -142.17464            0    303.72764    18.364862    23.144192    22.301619            0            0            0    9479.0783    1371.3665   -119.19428   -340.98927   -76.879213   -1573.0255    -403.2399    18.364862    23.144192    22.301619           90           90           90 
   64500    272.61678   -142.93679   -112.52598   -142.93679            0    544.99617    18.329853    22.934472    22.386118            0            0            0    9410.7996    1507.6431    2823.8329   -2696.4875   -1218.4896    2424.8616   -6.0746939    18.329853    22.934472    22.386118           90           90           90 
   65000    260.85195    -144.4921   -115.39367    -144.4921            0     624.1155     18.06046    23.397835    22.208173            0            0            0    9384.6334    3105.7831    4161.1431   -5394.5797    2538.5789    316.21401    29.282613     18.06046    23.397835    22.208173           90           90           90 
   65500    273.92621   -144.32489   -113.76801   -144.32489            0   -550.55603    17.851605    24.110575    22.033691            0            0            0    9483.5749    1943.6643   -2395.2108   -1200.1216    281.99573   -1080.6033   -497.77507    17.851605    24.110575    22.033691           90           90           90 
   66000    286.72049   -143.25176   -111.26765   -143.25176            0   -566.39285    17.856989    23.920031    22.065555            0            0            0     9425.075    1382.9366   -1290.5445   -1791.5707    -691.3524   -873.96545   -169.24968    17.856989    23.920031    22.065555           90           90           90 
   66500    276.50059   -142.78011   -111.93605   -142.78011            0    -559.3122    18.034835    23.506138    22.236143            0            0            0    9426.5531    -1526.173   -248.34679     96.58324   -1009.0414    112.49453   -1261.8422    18.034835    23.506138    22.236143           90           90           90 
   67000    271.67201   -144.08452    -113.7791   -144.08452            0   -641.44304    18.242637    23.285233    22.301915            0            0            0    9473.4974    585.92653     1165.483   -3675.7387     1652.109    44.136199    346.51836    18.242637    23.285233    22.301915           90           90           90 
   67500    262.46646   -143.23629   -113.95776   -143.23629            0   -2242.9229    18.304806     23.32254    22.300722            0            0            0    9520.5033   -3273.1021    719.52863   -4175.1951    2103.7611   -236.34387    -547.7698    18.304806     23.32254    22.300722           90           90           90 
   68000     268.5726   -143.79347   -113.83379   -143.79347            0    2078.5063    18.074128    23.371604    22.114691            0            0            0    9341.7178    1162.4698    3501.0856    1571.9635   -1264.8578    562.24923     202.4325    18.074128    23.371604    22.114691           90           90           90 
   68500    273.45704   -143.22145    -112.7169   -143.22145            0   -190.49172    18.026702    23.681303    22.175513            0            0            0    9466.6329    -3270.015   -1126.0961    3824.6359   -597.55245     290.5666    538.83784    18.026702    23.681303    22.175513           90           90           90 
   69000    252.76199    -142.9081   -114.71212    -142.9081            0   -1800.1948    18.039286    23.731837    22.241363            0            0            0    9521.6474   -23.310645   -3998.7354   -1378.5382   -22.811272   -7.0208223     580.6033    18.039286    23.731837    22.241363           90           90           90 
   69500    261.44133   -144.13909   -114.97491   -144.13909            0   -3095.6172      18.0174    23.414999    22.187809            0            0            0     9360.535    -1929.086   -2676.8247   -4680.9408   -1630.8753   -127.31042    738.39282      18.0174    23.414999    22.187809           90           90           90 
   70000    267.35905   -143.98871   -114.16441   -143.98871            0   -915.16625    18.174319     23.31068     22.23393            0            0            0    9419.5319   -223.92074   -2218.8323    -302.7457    1586.0367    -156.2859    1524.2295    18.174319     23.31068     22.23393           90           90           90 
   70500    275.29235   -144.56137   -113.85209   -144.56137            0    603.78462    18.263111    23.343339    22.246784            0            0            0    9484.2933   -1124.0834    1771.8738    1163.5635    1479.3853    1633.7642    157.35993    18.263111    23.343339    22.246784           90           90           90 
   71000    257.40825   -142.82011   -114.10583   -142.82011            0   -588.93599    18.125771    23.451404    22.126393            0            0            0    9405.3714   -3289.6063     1042.379    480.41931   -701.56831   -450.70099   -956.35354    18.125771    23.451404    22.126393           90           90           90 
   71500    272.23397   -144.20483   -113.83672   -144.20483            0   -104.78054    17.905937    23.665318    22.100438            0            0            0    9365.0538   -671.81238   -1626.0632    1983.5339    130.30778    924.32536    4.2864912    17.905937    23.665318    22.100438           90           90           90 
   72000    279.64658   -141.21997   -110.02497   -141.21997            0   -2323.3035    17.889683    23.845386    22.305555            0            0            0    9515.2462   -312.06631   -2050.2878   -4607.5562     396.1979    773.48723    1714.5653    17.889683    23.845386    22.305555           90           90           90 
   72500    277.60422   -142.44372   -111.47655   -142.44372            0   -268.26475    17.994373    23.565217    22.324717            0            0            0    9466.6017   -508.62908    1690.7021   -1986.8672    612.24898   -605.37474    50.945594    17.994373    23.565217    22.324717           90           90           90 
   73000    255.44846    -142.3451   -113.84944    -142.3451            0   -3225.0894    18.283028    23.206184    22.147415            0            0            0      9396.69   -5560.9489   -2362.9556   -1751.3637   -1946.2219   -1879.9835    643.00252    18.283028    23.206184    22.147415           90           90           90 
   73500    265.38465   -142.55525   -112.95119   -142.55525            0    -2272.528    18.405982    23.084925    22.063834            0            0            0    9374.9384   -3237.6607     -2394.93   -1184.9932   -928.51417   -140.78939   -130.02866    18.405982    23.084925    22.063834           90           90           90 
   74000    268.60472   -143.54716    -113.5839   -143.54716            0   -1671.5385    18.280116    23.439492     22.17357            0            0            0    9500.8566   -832.07757   -2391.0123   -1791.5258   -914.36506     1474.617    1895.0417    18.280116    23.439492     22.17357           90           90           90 
   74500    270.16741   -143.16546   -113.02788   -143.16546            0   -378.30258    17.991279    23.754932    22.240775            0            0            0    9505.2981    2386.7009   -2258.4678   -1263.1408    690.77961    -354.0511   -233.86204    17.991279    23.754932    22.240775           90           90           90 
   75000    282.12563   -144.20296   -112.73142   -144.20296            0   -738.11731    17.871497    23.654273    22.196475            0            0            0    9383.2772    1495.3037   -2886.3745   -823.28116    1356.0282    1481.6687   -1122.8212    17.871497    23.654273    22.196475           90           90           90 
   75500    267.61009   -144.17259   -114.32028   -144.17259            0   -18.108615    18.107176    23.538186    22.249164            0            0            0     9482.818   -2981.9062   -188.55799    3116.1383   -353.44158   -537.65159    1491.3199    18.107176    23.538186    22.249164           90           90           90 
   76000    275.59396   -144.01436   -113.27144   -144.01436            0   -1692.5561    18.265417    23.315978    22.255083            0            0            0    9477.9069     -1936.56   -1696.8426   -1444.2658   -603.84003    508.73867    1357.5657    18.265417    23.315978    22.255083           90           90           90 
   76500    249.88966   -144.83728   -116.96171   -144.83728            0    2510.5839    18.199873    23.220379    22.102428            0            0            0    9340.6617    4026.4759    3528.5815   -23.305577    523.74443   -1751.5041    -1028.249    18.199873    23.220379    22.102428           90           90           90 
   77000     257.1388   -145.05924   -116.37502   -145.05924            0   -749.36121    18.205981    23.543605    22.153425            0            0            0    9495.7208   -1122.5986    445.47939   -1570.9645    1907.1589   -440.28733    454.65054    18.205981    23.543605    22.153425           90           90           90 
   77500    268.29952   -143.41247   -113.48326   -143.41247            0   -2821.4132    18.042649    23.661456    22.135515            0            0            0    9449.9908   -2428.0161    -2444.812   -3591.4115   -1404.0772   -1387.4499   -840.11155    18.042649    23.661456    22.135515           90           90           90 
   78000     281.8405   -142.78629   -111.34656   -142.78629            0    1140.3069    17.928581    23.561208    22.202517            0            0            0    9378.7653    -709.2954    2085.0313     2045.185   -925.99649    689.07233    1596.6884    17.928581    23.561208    22.202517           90           90           90 
   78500    272.65692   -145.69662   -115.28133   -145.69662            0   -1178.9254    18.094265    23.500199    22.347472            0            0            0     9502.566   -948.61969   -4235.4713    1647.3148   -189.76184   -1151.8287    112.66624    18.094265    23.500199    22.347472           90           90           90 
   79000    268.01893   -144.68401   -114.78609   -144.68401            0   -427.12413    18.166576    23.329915     22.25256            0            0            0    9431.1841    970.29606    577.37371   -2829.0421   -1396.7064   -63.141557    244.63831    18.166576    23.329915     22.25256           90           90           90 
   79500    274.25177   -142.45922   -111.86602   -142.45922            0   -184.91675    18.142901    23.336483    22.122116            0            0            0    9366.3157     3177.548   -880.02268   -2852.2756   -565.56428    141.00048     1301.758    18.142901    23.336483    22.122116           90           90           90 
   80000    264.68846   -141.64972   -112.12333   -141.64972            0   -2771.7277    18.124376    23.509296    22.125308            0            0            0    9427.4013   -5386.6903   -2392.5618   -535.93088    775.34682    331.68247   -651.44482    18.124376    23.509296    22.125308           90           90           90 
   80500    271.28822   -143.30072   -113.03811   -143.30072            0    1113.9639    18.082567    23.538756    22.211944            0            0            0    9454.3171    480.28087    4416.8149   -1555.2039    823.69651   -1092.3991   -394.10965    18.082567    23.538756    22.211944           90           90           90 
   81000    264.56559   -142.98517   -113.47248   -142.98517            0    326.61715    18.076293    23.386991    22.211876            0            0            0     9390.073     1340.743    925.83098   -1286.7225    2867.6041   -893.59697   -29.669819    18.076293    23.386991    22.211876           90           90           90 
   81500    263.81715   -143.46566   -114.03646   -143.46566            0    1104.0479    18.114529    23.308437    22.130157            0            0            0    9343.8251    1148.9543     5313.295   -3150.1058   -4176.1339    870.72472    509.26514    18.114529    23.308437    22.130157           90           90           90 
   82000    274.09371   -145.51315   -114.93758   -145.51315            0   -1307.2866    18.151169    23.504604    22.101768            0            0            0    9429.4111    88.023349    -2329.613   -1680.2701    1497.0948    611.24613   -1680.7966    18.151169    23.504604    22.101768           90           90           90 
   82500    269.35315   -141.38798   -111.34123   -141.38798            0    121.23591    18.080273    23.578104    22.154867            0            0            0    9444.5878   -745.59567   -1070.3312    2179.6346   -743.90101   -1657.4741    358.79601    18.080273    23.578104    22.154867           90           90           90 
   83000    265.71093    -141.5972   -111.95674    -141.5972            0   -1624.4577    17.997715     23.47345    22.409236            0            0            0    9467.1954    1109.6839   -1563.7183   -4419.3389   -1995.5208   -379.42534   -1671.7371    17.997715     23.47345    22.409236           90           90           90 
   83500    274.72105   -143.63609   -112.99055   -143.63609            0   -52.313923    17.967703    23.288288    22.343891            0            0            0    9349.5115    395.24063   -1786.1062    1233.9238    1747.6864    588.32257   -1006.5408    17.967703    23.288288    22.343891           90           90           90 
   84000    277.97523   -142.22337   -111.21482   -142.22337            0    -354.3263    18.195791    23.468913    22.091153            0            0            0    9433.7054    1147.1718   -119.24622   -2090.9044   -601.38558   -257.74512   -39.279189    18.195791    23.468913    22.091153           90           90           90 
   84500    270.53487   -142.35125   -112.17268   -142.35125            0   -2726.4786    18.319145    23.636884    21.935131            0            0            0    9498.0763   -1965.9937    -7468.778    1255.3359    149.98532   -507.82497   -527.17129    18.319145    23.636884    21.935131           90           90           90 
   85000    266.36004   -143.34986     -113.637   -143.34986            0    3048.6893    18.070604    23.383191    22.059312            0            0            0    9321.1266     6997.464    2250.9634   -102.35949    841.67357   -2963.0995   -414.93988    18.070604    23.383191    22.059312           90           90           90 
   85500    287.75249    -144.1645   -112.06528    -144.1645            0    403.47002    17.993874    23.363016    22.447369            0            0            0    9436.6754     -1363.17    1642.1801    931.39992   -893.07309   -1361.6023    -1054.657    17.993874    23.363016    22.447369           90           90           90 
   86000    270.56951       -143.6   -113.41756       -143.6            0   -1375.8464    17.992981    23.446771    22.370367            0            0            0    9437.5498    -2668.348    1025.6311   -2484.8223    1.8515478    251.03316    948.62675    17.992981    23.446771    22.370367           90           90           90 
   86500    262.48472   -143.61298   -114.33241   -143.61298            0     1763.998    18.057482    23.542347    22.080116            0            0            0    9386.5996    -245.5687   -536.73482    6074.2976    765.89855    501.87518    517.57255    18.057482    23.542347    22.080116           90           90           90 
   87000    265.88035     -144.814   -115.15464     -144.814            0   -2355.7905    18.155493    23.510698    22.134556            0            0            0    9448.0981   -1914.9325   -1458.1581   -3694.2809    2527.4491    317.12807    1242.9678    18.155493    23.510698    22.134556           90           90           90 
   87500    271.78182   -144.16878   -113.85111   -144.16878            0    225.86714    18.105639     23.32595    22.301754            0            0            0    9418.7275    506.53805   -762.22194    933.28531   -1182.1581    609.17601   -967.51899    18.105639     23.32595    22.301754           90           90           90 
   88000    267.41996   -143.16528   -113.33418   -143.16528            0    710.52554    18.020738    23.225384     22.29094            0            0            0    9329.6179   -1350.8166    4398.2666   -915.87336   -118.15314     226.3678   -58.990955    18.020738    23.225384     22.29094           90           90           90 
   88500    268.58209   -143.98273   -114.02199   -143.98273            0   -2418.1617    18.135794    23.596513    22.239672            0            0            0    9517.2784    1846.9098   -5538.8743   -3562.5205   -661.64473    119.43606   -422.20749    18.135794    23.596513    22.239672           90           90           90 
   89000    268.02964   -146.00533   -116.10622   -146.00533            0    2384.2015    18.097804    23.655484    21.898124            0            0            0    9374.8562    2460.3673         1889    2803.2372   -511.30268   -397.21988   -616.73002    18.097804    23.655484    21.898124           90           90           90 
   89500    262.63984   -145.61713   -116.31926   -145.61713            0   -56.244611    18.084729    23.598229    21.962343            0            0            0    9372.8161    2672.7338   -2288.5013   -552.96631    122.98013   -62.331528   -990.16523    18.084729    23.598229    21.962343           90           90           90 
   90000    264.20917   -145.99989   -116.52695   -145.99989            0   -3478.6844    18.060526    23.419498    22.479057            0            0            0    9507.9322   -2457.8332   -2484.3168   -5493.9034    159.03404   -1118.1286    -55.29786    18.060526    23.419498    22.479057           90           90           90 
   90500    273.90448   -144.12682   -113.57237   -144.12682            0    2238.7322     17.94388    23.132181    22.425578            0            0            0    9308.4332    2448.1987    474.41694    3793.5809    179.59527    2225.2495   -1591.4542     17.94388    23.132181    22.425578           90           90           90 
   91000    263.97589   -142.90389   -113.45698   -142.90389            0   -846.85408    18.186577    23.422377     22.28896            0            0            0    9494.4921    -624.2076   -326.06082   -1590.2938    686.74285   -2900.6847    152.48554    18.186577    23.422377     22.28896           90           90           90 
   91500    260.77214   -145.34518   -116.25566   -145.34518            0    2768.5206    18.161529    23.554397    22.036015            0            0            0    9426.6518    2202.8661    1172.1013    4930.5943    443.46197    1848.8771   -239.94572    18.161529    23.554397    22.036015           90           90           90 
   92000    261.20899   -143.73845    -114.6002   -143.73845            0    2787.5249    18.070505    23.556022    22.059568            0            0            0    9390.0791     3943.278    4625.5325   -206.23595   -164.65365    264.69577    2235.1186    18.070505    23.556022    22.059568           90           90           90 
   92500     263.6525   -143.26357   -113.85273   -143.26357            0    53.215705    18.051145    23.521532    22.201636            0            0            0    9426.6058     888.4475    2137.4354   -2866.2358   -991.37653   -1081.3712    1032.3611    18.051145    23.521532    22.201636           90           90           90 
   93000    273.95979   -144.43465   -113.87403   -144.43465            0   -1866.4562    18.110498    23.399355    22.274039            0            0            0    9439.1576   -3085.9677   -338.70379   -2174.6971    2457.7536    81.555114   -1276.1126    18.110498    23.399355    22.274039           90           90           90 
   93500    265.98228   -143.97095   -114.30023   -143.97095            0    1384.2172    18.134294    23.411021    22.191868            0            0            0    9421.3874     3264.765    1562.9001    -675.0136    224.39008    37.817314   -905.98356    18.134294    23.411021    22.191868           90           90           90 
   94000    251.99289   -142.64713   -114.53694   -142.64713            0    614.35378    18.060534    23.456585    22.141191            0            0            0      9379.86    188.13431    2442.1133   -787.18628    315.08924    473.42907   -80.751609    18.060534    23.456585    22.141191           90           90           90 
   94500    264.48267   -143.64091   -114.13747   -143.64091            0   -1395.2185    18.116015    23.663357    22.317574            0            0            0    9567.2252   -985.61515   -769.24921   -2430.7913    1495.5745   -1576.6058    177.65402    18.116015    23.663357    22.317574           90           90           90 
   95000    262.12724   -145.36734   -116.12666   -145.36734            0    3513.1261    18.011274    23.489327    22.125849            0            0            0    9360.8427     4544.816    2162.8768    3831.6855    91.972023   -763.06275    257.13744    18.011274    23.489327    22.125849           90           90           90 
   95500    259.30151   -143.04798    -114.1225   -143.04798            0   -425.99498    18.079627    23.461649    22.062965            0            0            0    9358.6213    1224.5843   -2130.6244   -371.94492    1859.6967   -9.2387632     1250.722    18.079627    23.461649    22.062965           90           90           90 
   96000    277.94515   -143.39532   -112.39012   -143.39532            0   -27.032752    18.193893    23.474076    22.300437            0            0            0    9524.1784     917.7753   -1395.6198    396.74627   -60.215047     458.9369    766.16835    18.193893    23.474076    22.300437           90           90           90 
   96500    273.11444   -142.53676   -112.07044   -142.53676            0    724.86192    18.117344    23.205629     22.27525            0            0            0    9365.0576    2184.1411   -241.56056    232.00518    310.47692    914.10561    1897.5633    18.117344    23.205629     22.27525           90           90           90 
   97000    274.37298    -144.1375   -113.53078    -144.1375            0   -1303.9744    18.098296    23.278984    22.217495            0            0            0    9360.4516   -1059.2419   -2223.3776   -629.30358    261.30935    -682.8917   -325.23252    18.098296    23.278984    22.217495           90           90           90 
   97500    260.55391   -142.16789   -113.10271   -142.16789            0    1204.7085    18.131823    23.678089    22.149095            0            0            0    9509.2024    3155.6508    2079.4964   -1621.0218   -1286.4615   -716.37311   -430.60953    18.131823    23.678089    22.149095           90           90           90 
   98000    265.16614   -144.27681   -114.69713   -144.27681            0    466.90594    17.941514    23.821172    21.966321            0            0            0    9388.1395     1391.413   -895.97016    905.27499    199.16673    294.22362   -401.86848    17.941514    23.821172    21.966321           90           90           90 
   98500    261.00125   -142.34155   -113.22647   -142.34155            0    1017.8809      17.9465    23.640537    22.240927            0            0            0    9436.0442      2529.04    1358.3813   -833.77849   -2091.3576   -386.82195    1369.8733      17.9465    23.640537    22.240927           90           90           90 
   99000    263.09063   -143.30171   -113.95356   -143.30171            0    37.436787    18.094873    23.256424    22.513989            0            0            0    9474.3827   -17.191213   -822.47489    951.97647   -1668.7007    1327.3649   -1864.5345    18.094873    23.256424    22.513989           90           90           90 
   99500    269.34638   -141.24838   -111.20239   -141.24838            0    2958.5608    18.171202    23.029141    22.251017            0            0            0    9311.3197    3756.1963    4777.8356    341.65068    876.30743   -627.88754   -2302.3942    18.171202    23.029141    22.251017           90           90           90 
  100000    253.47844   -140.86735   -112.59145   -140.86735            0   -1801.9269    18.361517    23.401228    22.123343            0            0            0    9506.0038   -4513.9102   -306.11177    -585.7588    649.38189    1207.7063    277.95406    18.361517    23.401228    22.123343           90           90           90 
  100500     271.3975   -142.79801   -112.52321   -142.79801            0    886.46987    18.186112    23.581878    22.053968            0            0            0    9458.1243    117.79087    491.39148    2050.2273    2505.7882   -946.65934   -772.88782    18.186112    23.581878    22.053968           90           90           90 
  101000    274.82786   -144.38046     -113.723   -144.38046            0   -267.86528     17.93429    23.557847    22.169886            0            0            0    9366.6275    -665.0079   -1539.5358    1400.9479   -508.64439   -1256.9102   -203.25905     17.93429    23.557847    22.169886           90           90           90 
  101500    256.64123   -142.47048   -113.84177   -142.47048            0    206.85882    17.891289    23.571592    22.383508            0            0            0    9439.7107    1309.3232    3057.6877   -3746.4345    172.11736   -451.44023   -1240.3361    17.891289    23.571592    22.383508           90           90           90 
  102000    265.46111   -143.01832   -113.40573   -143.01832            0      1666.58    18.034191    23.487534    22.310539            0            0            0    9450.2682    2845.2362    1772.0721    382.43151   -2019.4697    741.36156    2086.4021    18.034191    23.487534    22.310539           90           90           90 
  102500    265.12425   -143.53563   -113.96062   -143.53563            0   -2204.2439    18.220788    23.351807    22.112399            0            0            0    9408.5678   -1510.6366     -2498.59   -2603.5052   -1382.3784    1921.3996   -299.50061    18.220788    23.351807    22.112399           90           90           90 
  103000    267.31886   -142.74488   -112.92506   -142.74488            0     -1866.92     18.26728    23.289163    22.159966            0            0            0     9427.507   -1228.7753   -2931.3749   -1440.6098   -1761.2751    1236.8427   -381.35344     18.26728    23.289163    22.159966           90           90           90 
  103500    265.88594   -144.19869   -114.53871   -144.19869            0    1361.1365    18.124298    23.340595    22.300364            0            0            0    9433.7652    2631.5542   -693.35719    2145.2124    1731.1449   -239.72264    5.3505385    18.124298    23.340595    22.300364           90           90           90 
  104000    263.91907   -142.02563   -112.58506   -142.02563            0   -1804.9406    17.933357    23.554552    22.267279            0            0            0      9405.97   -2152.3184    412.00558   -3674.5089   -1043.7209   -554.08885    313.31379    17.933357    23.554552    22.267279           90           90           90 
  104500    270.07757   -144.61336    -114.4858   -144.61336            0    709.48697    17.971007    23.760357    22.232782            0            0            0    9493.3433   -866.63401    527.20452    2467.8904   -647.90706   -2499.3275    806.56811    17.971007    23.760357    22.232782           90           90           90 
  105000    269.54183   -142.38168   -112.31389   -142.38168            0   -315.17768    18.087053    23.501114    22.070812            0            0            0    9381.5493    2186.9536   -1853.8427   -1278.6439     389.8742    74.250542   -1557.0199    18.087053    23.501114    22.070812           90           90           90 
  105500    278.46265   -143.27644   -112.21352   -143.27644            0   -351.41001     18.32373    23.214531    22.184485            0            0            0    9436.7652   -1703.3086    2708.9874   -2059.9089   -111.65398    742.01101   -117.18579     18.32373    23.214531    22.184485           90           90           90 
  106000    270.74325    -143.0362   -112.83438    -143.0362            0    529.28727    18.340005    23.228867    22.325081            0            0            0    9510.8762     247.1663    1936.5966   -595.90106    259.45159   -279.93828    754.99179    18.340005    23.228867    22.325081           90           90           90 
  106500    265.77164   -143.17622   -113.52899   -143.17622            0    1783.3102    17.985592     23.31666    22.167697            0            0            0    9296.3325    3787.2874    4707.8366   -3145.1933   -2345.2819   -1146.4867    1390.8167    17.985592     23.31666    22.167697           90           90           90 
  107000    252.84193   -142.22395   -114.01905   -142.22395            0   -2185.7401    17.973465    23.827415    22.191749            0            0            0    9503.8655   -1627.1328   -4053.6741   -876.41337    724.94676    23.393095   -105.92916    17.973465    23.827415    22.191749           90           90           90 
  107500    269.18519   -143.40753   -113.37952   -143.40753            0    415.30157    17.976858    23.748642    22.096694            0            0            0     9433.652    506.28708   -775.24566    1514.8633    -394.6136    850.84651    195.89735    17.976858    23.748642    22.096694           90           90           90 
  108000    278.01502   -143.20778   -112.19478   -143.20778            0    1076.3436    18.110888    23.459759    22.086017            0            0            0    9383.8422    1453.4692    2227.1401   -451.57864    -1284.385   -231.05719   -529.86635    18.110888    23.459759    22.086017           90           90           90 
  108500    278.73168   -142.88313   -111.79019   -142.88313            0    -2209.205    18.245776    23.394126    22.253481            0            0            0    9498.7642   -4230.6194   -2316.8036   -80.192026   -1651.8596    1205.7541    468.64656    18.245776    23.394126    22.253481           90           90           90 
  109000    271.21176   -144.02595   -113.77187   -144.02595            0   -24.958553    18.139655    23.401099    22.222068            0            0            0    9432.9979    2330.2373   -3.0638071   -2402.0492     82.11972   -297.62021   -2710.9699    18.139655    23.401099    22.222068           90           90           90 
  109500    269.40222    -142.5689   -112.51668    -142.5689            0     270.5165    18.068389    23.525619    22.239662            0            0            0    9453.4138    -1081.526    537.50019    1355.5753   -1491.3485    780.27068   -771.39435    18.068389    23.525619    22.239662           90           90           90 
  110000    266.31482   -142.75318   -113.04536   -142.75318            0   -263.68488    18.081052    23.659123    22.241839            0            0            0    9514.6541    3352.0496   -4464.3104    321.20615    287.99805    169.86124   -1864.3028    18.081052    23.659123    22.241839           90           90           90 
  110500    266.96085   -144.52964   -114.74975   -144.52964            0    1144.5237    18.050573    23.487471    22.100714            0            0            0    9369.8703   -2070.5398    877.72062    4626.3904     476.2164   -873.01522    2004.4179    18.050573    23.487471    22.100714           90           90           90 
  111000    263.79646   -142.95399   -113.52709   -142.95399            0   -1341.4918    18.211888    23.379238    22.278646            0            0            0    9485.8037    -430.4387    2057.5508   -5651.5875   -1967.0962   -53.888734   -1002.5605    18.211888    23.379238    22.278646           90           90           90 
  111500    279.16415   -144.39303   -113.25185   -144.39303            0   -1682.3259    18.263908    23.344734    22.316769            0            0            0    9515.1133   -560.36573   -1968.4577   -2518.1542    750.24271    801.58549    2569.9644    18.263908    23.344734    22.316769           90           90           90 
[...]
  373500     259.6121   -143.80505   -114.84493   -143.80505            0   -145.04469    18.283645    23.563723    22.021613            0            0            0    9487.5878   -1215.5021   -492.35356    1272.7216   -1900.1262    1465.5441    1061.5757    18.283645    23.563723    22.021613           90           90           90 
  374000    272.13091   -143.18087   -112.82425   -143.18087            0   -130.95016    18.335088    23.346143    22.094475            0            0            0    9457.6193   -1669.0334     1415.803    -139.6201    273.41228   -793.69109    1108.1178    18.335088    23.346143    22.094475           90           90           90 
  374500    280.94996    -142.7337   -111.39331    -142.7337            0     2502.994    18.094256    23.127789    22.306277            0            0            0    9334.7335    2975.2811     5140.995   -607.29427   -738.18276    494.82583    2126.2846    18.094256    23.127789    22.306277           90           90           90 
  375000     274.9403   -141.94106   -111.27106   -141.94106            0   -284.73395    18.065183    23.487218    22.554013            0            0            0     9569.688   -616.88722    3494.3819   -3731.6965     275.3779    454.53539    1606.6668    18.065183    23.487218    22.554013           90           90           90 
  375500    274.47804   -143.83749   -113.21905   -143.83749            0   -2844.7306    18.019632    23.656908    22.150233            0            0            0    9442.3957   -1278.6441   -5257.5393   -1998.0085   -470.05272   -2669.3546    1585.2172    18.019632    23.656908    22.150233           90           90           90 
  376000    272.44719   -143.37274   -112.98084   -143.37274            0    1078.2469    18.083967    23.653889    21.960802            0            0            0    9393.8681   -113.81304   -2016.4728    5365.0266    1041.4096   -307.79856    27.058487    18.083967    23.653889    21.960802           90           90           90 
  376500    280.44973   -142.46626   -111.18167   -142.46626            0   -1274.7769    18.249564    23.598336    22.250738            0            0            0    9582.4887   -1644.6235    -2440.041    260.33373    509.92539    259.87693    82.057941    18.249564    23.598336    22.250738           90           90           90 
  377000    266.11174   -144.57636    -114.8912   -144.57636            0    389.01056     18.13799    23.284328    22.310562            0            0            0    9422.4402    80.006061     4707.729   -3620.7034   -833.05945    669.33517    1644.4004     18.13799    23.284328    22.310562           90           90           90 
  377500    265.43922   -143.70441   -114.09427   -143.70441            0   -315.35341    18.105984    23.349099    22.297069            0            0            0    9426.2731   -1206.4864    1078.1511   -817.72494   -1882.8993   -16.533839   -745.79675    18.105984    23.349099    22.297069           90           90           90 
  378000    266.47494   -143.51072   -113.78504   -143.51072            0   -161.99949    18.073426    23.577688    22.245035            0            0            0    9479.2679    1283.2061    -1946.257     177.0524    972.00232    107.74621   -1001.5533    18.073426    23.577688    22.245035           90           90           90 
  378500    265.55429   -144.83775   -115.21477   -144.83775            0   -3069.9934    18.048532    23.642078    22.112012            0            0            0    9435.3016   -2720.2022   -3168.4333   -3321.3447   -1589.9445   -1005.7478    1478.3935    18.048532    23.642078    22.112012           90           90           90 
  379000    267.18495   -142.67071   -112.86583   -142.67071            0   -476.28561    18.159814    23.520032    22.095664            0            0            0    9437.4868   -3222.1939   -171.60612    1964.9432   -1206.7093   -119.36579   -446.47286    18.159814    23.520032    22.095664           90           90           90 
  379500    256.88093   -142.88852   -114.23307   -142.88852            0    868.04599    18.213652    23.352015    22.180166            0            0            0    9433.7892    1816.1982    433.82913    354.11064   -281.08963   -1013.9299    443.36866    18.213652    23.352015    22.180166           90           90           90 
  380000    277.57602   -145.45805   -114.49402   -145.45805            0    242.23589    18.199306    23.324434    22.299408            0            0            0     9465.842   -1356.9553    1960.6825    122.98043    610.52307   -226.91177   -1577.3077    18.199306    23.324434    22.299408           90           90           90 
  380500    268.13058   -145.15043   -115.24006   -145.15043            0   -141.25288    18.014084    23.430949    22.237292            0            0            0    9386.0739    196.33564   -1918.6385    1298.5443   -1854.1692    -522.7032   -818.09898    18.014084    23.430949    22.237292           90           90           90 
  381000    260.21223   -143.13352   -114.10645   -143.13352            0   -1809.5539    17.940347    23.769821    22.161361            0            0            0    9450.4649    2166.2114    -3162.548   -4432.3251   -293.08015    271.64759     1808.999    17.940347    23.769821    22.161361           90           90           90 
  381500    290.55923   -142.84968   -110.43737   -142.84968            0    815.81936    17.978279    23.789094    22.096916            0            0            0     9450.563     944.5109    479.85783    1023.0894   -677.97799   -601.27237    1647.8631    17.978279    23.789094    22.096916           90           90           90 
  382000    273.40547   -143.31553   -112.81674   -143.31553            0    1318.0127     18.20426    23.502908    22.176636            0            0            0    9488.3408   -698.84957   -802.66689    5455.5545   -591.06718    1223.4112    -195.7018     18.20426    23.502908    22.176636           90           90           90 
  382500    284.71891   -142.68695   -110.92613   -142.68695            0    -2128.243    18.345047    23.134345    22.238184            0            0            0    9437.8997    -3523.658     667.0778   -3528.1487    1304.8412   -388.69132   -246.24121    18.345047    23.134345    22.238184           90           90           90 
  383000    265.24998    -141.1227   -111.53366    -141.1227            0   -1739.2502    18.202881    23.107573    22.158113            0            0            0    9320.2431   -3388.8692   -3406.2114    1577.3299   -690.50222    -1218.902   -897.50186    18.202881    23.107573    22.158113           90           90           90 
  383500    273.99801    -141.4319   -110.86701    -141.4319            0    6.5909632    18.108438    23.599279     22.31698            0            0            0    9537.0739   -1147.2537   -686.47484    1853.5014    445.70035   -1227.5981   -27.560822    18.108438    23.599279     22.31698           90           90           90 
  384000     273.7768   -143.87566   -113.33544   -143.87566            0    871.12489    17.967006    23.798432    22.284357            0            0            0    9528.4917     1862.424   -430.90045    1181.8512     -947.896    319.05216    587.28493    17.967006    23.798432    22.284357           90           90           90 
  384500    266.54067   -143.97447   -114.24146   -143.97447            0   -773.46809    17.922945    23.506862    22.069782            0            0            0    9298.2686   -2472.4566   -13.562184    165.61452    2579.2652   -2290.9878   -533.04156    17.922945    23.506862    22.069782           90           90           90 
  385000    262.70488     -144.172   -114.86687     -144.172            0   -499.51055    18.164184    23.491534    22.175771            0            0            0    9462.5026   -1230.3365   -1293.0941    1024.8989    1474.7824    809.41885    1243.5202    18.164184    23.491534    22.175771           90           90           90 
  385500    268.52552   -145.58015   -115.62572   -145.58015            0    665.17252    18.209059    23.410576    22.217061            0            0            0    9470.7901   -1743.3318    3597.9644    140.88496    -1360.095    1569.6262    106.65446    18.209059    23.410576    22.217061           90           90           90 
  386000    267.54096   -143.46083   -113.61624   -143.46083            0    400.09027    18.146593    23.378179    22.250407            0            0            0    9439.3857    1102.2694    1700.9565   -1602.9551     4896.004   -1106.3021   -356.55071    18.146593    23.378179    22.250407           90           90           90 
  386500    277.52241   -142.80973   -111.85169   -142.80973            0    1947.7633    18.062089    23.466036    22.265019            0            0            0    9436.9311    815.45618    4260.1644    767.66922    273.32291    2735.5469    1831.2471    18.062089    23.466036    22.265019           90           90           90 
  387000    281.41184   -144.72699   -113.33507   -144.72699            0   -179.60491    17.991533    23.620853     22.19793            0            0            0     9433.573    2465.5169   -1008.9774   -1995.3542    349.30518   -177.09175    909.68449    17.991533    23.620853     22.19793           90           90           90 
  387500    273.35287   -143.67757   -113.18464   -143.67757            0    60.664491    18.080215    23.761881     22.11653            0            0            0    9501.7014    2984.7915    -1085.197   -1717.6011     94.14655   -920.97333     301.4956    18.080215    23.761881     22.11653           90           90           90 
  388000    255.99465   -143.87494   -115.31835   -143.87494            0    1541.8067    18.215891     23.56043    22.137728            0            0            0    9500.9428   -2534.1287    1868.3676    5291.1814   -499.20723    348.57828   -895.02428    18.215891     23.56043    22.137728           90           90           90 
  388500    261.96006   -144.82241   -115.60037   -144.82241            0    1295.6759    18.201005    23.145794    22.282207            0            0            0     9386.975    82.418059    357.33161    3447.2779    1956.9654   -1400.3421   -49.911527    18.201005    23.145794    22.282207           90           90           90 
  389000    267.68797   -145.09367   -115.23267   -145.09367            0    302.59439    18.201398    23.183405    22.416057            0            0            0    9458.9121    901.21254    2290.9946   -2284.4239   -2412.8808    331.28389    2059.8423    18.201398    23.183405    22.416057           90           90           90 
  389500    262.68308   -144.65479    -115.3521   -144.65479            0    1218.5774    18.086929    23.508813    22.148249            0            0            0    9417.4851    1243.6756    1922.6502    489.40641   -631.59505    885.58616   -2318.6488    18.086929    23.508813    22.148249           90           90           90 
  390000    252.56058   -144.11211    -115.9386   -144.11211            0    1384.3331    17.982394    23.796477    22.005615            0            0            0    9416.5903    915.11167   -260.38492    3498.2725    284.41753    863.49373   -124.66165    17.982394    23.796477    22.005615           90           90           90 
  390500     269.3667   -143.79799   -113.74973   -143.79799            0    944.80091     17.95807    23.746088    22.210441            0            0            0    9471.2854    2158.8418    2780.3306   -2104.7696   -1676.8999    537.93104    480.95251     17.95807    23.746088    22.210441           90           90           90 
  391000    274.34801   -142.95493   -112.35099   -142.95493            0    956.16206    17.997129    23.323556    22.379024            0            0            0    9393.7528    335.50588    2127.0083    405.97194    -808.4569    1517.4447    208.64424    17.997129    23.323556    22.379024           90           90           90 
  391500    285.80509    -143.0976   -111.21561    -143.0976            0    802.73113    18.257188     23.18967     22.33091            0            0            0    9454.4195    355.46433    2282.8373   -230.10825   -1563.2062   -1393.3242   -295.63098    18.257188     23.18967     22.33091           90           90           90 
  392000    266.39062   -145.04514   -115.32887   -145.04514            0    282.17758    18.292109    23.390768    22.141184            0            0            0      9473.47   -793.95766    2100.3799   -459.88946   -555.56559    111.97018    881.46745    18.292109    23.390768    22.141184           90           90           90 
  392500    253.86228   -144.25461   -115.93589   -144.25461            0      511.156    18.032449    23.539268    21.979136            0            0            0    9329.4982   -538.41445   -1782.5229    3854.4054   -1035.8713   -661.72732   -1178.3905    18.032449    23.539268    21.979136           90           90           90 
  393000     272.1172   -143.08138   -112.72629   -143.08138            0   -7.2971222    18.061834    23.711834    22.227129            0            0            0    9519.4171    27.724972   -2251.7318    2202.1154    2464.3326   -788.97081    1110.7118    18.061834    23.711834    22.227129           90           90           90 
  393500    287.37577   -142.20379    -110.1466   -142.20379            0   -781.18745    18.033496    23.495881    22.327929            0            0            0    9460.6307   -1740.9485    1344.3762   -1946.9901   -800.08502   -74.449429    -1225.224    18.033496    23.495881    22.327929           90           90           90 
  394000    265.65397   -143.51759   -113.88348   -143.51759            0    1698.1087     18.02815    23.314895    22.266382            0            0            0    9359.1042    2931.8621    917.62911     1244.835     1155.034    434.81418   -1588.3006     18.02815    23.314895    22.266382           90           90           90 
  394500    266.32941   -144.24589   -114.53644   -144.24589            0   -1706.9703     18.20607     23.42417    22.197824            0            0            0    9466.5298   -451.84465    524.78992   -5193.8561   -791.13059   -1111.2929    716.61389     18.20607     23.42417    22.197824           90           90           90 
  395000    265.04695   -141.62903   -112.06264   -141.62903            0   -440.24247     18.25956    23.578681    22.091154            0            0            0    9511.0442   -3205.5375    1009.3197    875.49035    2178.4546    92.827957    2301.5281     18.25956    23.578681    22.091154           90           90           90 
  395500    260.14768   -143.30713   -114.28726   -143.30713            0    994.13763    18.031204    23.531478    22.106101            0            0            0     9379.638    2763.4503   -4235.8636    4454.8261   -1303.6294   -2090.9862     129.4285    18.031204    23.531478    22.106101           90           90           90 
  396000    264.13975   -143.89595   -114.43077   -143.89595            0   -994.16801    17.936293     23.46079    22.417486            0            0            0    9433.2692   -1586.5707    1888.4098   -3284.3432   -1218.2887    536.51247    273.48179    17.936293     23.46079    22.417486           90           90           90 
  396500    268.49843   -145.34726   -115.39585   -145.34726            0   -1427.6501    18.033734    23.475639    22.355174            0            0            0    9464.1392   -1069.8119   -3003.5853   -209.55302   -170.27126   -721.75418    20.485713    18.033734    23.475639    22.355174           90           90           90 
  397000    271.46757   -144.17682   -113.89421   -144.17682            0    187.12805    18.241374    23.459733     22.05752            0            0            0    9439.2457   -2188.9826   -552.04808    3302.4148   -196.17219    1303.2345    1013.4592    18.241374    23.459733     22.05752           90           90           90 
  397500    279.10103   -144.09033   -112.95619   -144.09033            0   -79.334036     18.26982    23.417454    22.016413            0            0            0    9419.3406   -3580.6354    336.61356    3006.0197   -29.147583    -1760.688    1408.8752     18.26982    23.417454    22.016413           90           90           90 
  398000    259.41029   -142.88765   -113.95004   -142.88765            0   -1521.3727    18.089201    23.446969    22.307796            0            0            0    9461.5598   -514.20016   -2794.0663   -1255.8516     2381.018   -1212.6143   -6.8714997    18.089201    23.446969    22.307796           90           90           90 
  398500    286.09957   -144.14013   -112.22529   -144.14013            0   -198.91424    17.925615    23.442413    22.379508            0            0            0    9404.3097   -2277.7635    1413.5738    267.44698   -2173.4123    200.07944    -409.6377    17.925615    23.442413    22.379508           90           90           90 
  399000    256.05294   -145.02608   -116.46299   -145.02608            0    2169.9247    18.021455    23.556683    22.190895            0            0            0    9420.6054    5839.7293    2331.9667   -1661.9219    1574.6902   -933.01587   -1172.5442    18.021455    23.556683    22.190895           90           90           90 
  399500    265.63694     -143.942    -114.3098     -143.942            0   -1172.3155    18.268344    23.601527    22.002865            0            0            0    9486.7733   -1664.3616   -4162.7989     2310.214    1053.2561    1182.9329   -1778.8842    18.268344    23.601527    22.002865           90           90           90 
  400000    254.59123   -143.62746   -115.22743   -143.62746            0   -2259.5978    18.340852    23.436122      22.0813            0            0            0    9491.3916   -1224.5317   -1170.5232   -4383.7384   -1669.5794   -506.23032   -541.23487    18.340852    23.436122      22.0813           90           90           90 
Loop time of 2131.67 on 1 procs for 400000 steps with 864 atoms

Performance: 8.106 ns/day, 2.961 hours/ns, 187.646 timesteps/s
73.9% CPU use with 1 MPI tasks x 1 OpenMP threads

MPI task timing breakdown:
Section |  min time  |  avg time  |  max time  |%varavg| %total
---------------------------------------------------------------
Pair    | 1860.9     | 1860.9     | 1860.9     |   0.0 | 87.30
Bond    | 0.058707   | 0.058707   | 0.058707   |   0.0 |  0.00
Neigh   | 244.26     | 244.26     | 244.26     |   0.0 | 11.46
Comm    | 8.245      | 8.245      | 8.245      |   0.0 |  0.39
Output  | 1.959      | 1.959      | 1.959      |   0.0 |  0.09
Modify  | 14.626     | 14.626     | 14.626     |   0.0 |  0.69
Other   |            | 1.595      |            |       |  0.07

Nlocal:        864.000 ave         864 max         864 min
Histogram: 1 0 0 0 0 0 0 0 0 0
Nghost:        3738.00 ave        3738 max        3738 min
Histogram: 1 0 0 0 0 0 0 0 0 0
Neighs:         0.00000 ave           0 max           0 min
Histogram: 1 0 0 0 0 0 0 0 0 0
FullNghs:      165390.0 ave      165390 max      165390 min
Histogram: 1 0 0 0 0 0 0 0 0 0

Total # of neighbors = 165390
Ave neighs/atom = 191.42361
Ave special neighs/atom = 0.0000000
Neighbor list builds = 40000
Dangerous builds not checked

unfix		3
unfix		2

write_data	data.final.${pid}
write_data	data.final.0
System init for write_data ...

write_restart   restart.lmp.${pid}
write_restart   restart.lmp.0
System init for write_restart ...
Unloading pair style deepmd
Unloading compute style deepmd
Unloading fix style deepmd
Total wall time: 0:35:37
