LAMMPS data file via MDAnalysis

        1728  atoms
           0  bonds
           0  angles
           0  dihedrals
           0  impropers

           2  atom types
           0  bond types
           0  angle types
           0  dihedral types
           0  improper types

0.000000 17.841999 xlo xhi
0.000000 45.801891 ylo yhi
0.000000 21.767000 zlo zhi


Masses

1 15.999400
2 1.007940

Atoms

1 0 1 -1.179400 1.231608 2.293128 1.934677
2 0 2 0.589700 0.417590 2.004598 2.309369
3 0 2 0.589700 1.256883 3.235377 2.097771
4 0 1 -1.179400 3.092149 6.483585 20.426794
5 0 2 0.589700 3.885679 6.197677 20.008814
6 0 2 0.589700 2.930346 7.355639 20.075136
7 0 1 -1.179400 7.575823 9.507577 16.652586
8 0 2 0.589700 7.667685 9.527167 17.586800
9 0 2 0.589700 6.720747 9.870205 16.492563
10 0 1 -1.179400 3.472305 6.594723 6.209035
11 0 2 0.589700 2.646388 6.183104 6.014075
12 0 2 0.589700 3.397958 7.479668 5.859069
13 0 1 -1.179400 0.219550 10.290941 8.690022
14 0 2 0.589700 0.264009 11.146805 9.108025
15 0 2 0.589700 0.965026 9.814828 9.020202
16 0 1 -1.179400 3.058516 14.805681 6.159454
17 0 2 0.589700 3.020581 14.777188 7.097179
18 0 2 0.589700 3.748259 14.197406 5.933809
19 0 1 -1.179400 1.096539 2.050085 21.006884
20 0 2 0.589700 1.163829 2.147669 0.184325
21 0 2 0.589700 1.208802 2.937007 20.672148
22 0 1 -1.179400 9.632254 13.224780 16.865723
23 0 2 0.589700 10.373588 13.753332 16.611813
24 0 2 0.589700 9.674517 13.196817 17.803278
25 0 1 -1.179400 0.670027 20.730234 20.034565
26 0 2 0.589700 0.705769 20.912443 19.113525
27 0 2 0.589700 0.338076 19.836634 20.091572
28 0 1 -1.179400 5.326431 2.487476 1.565281
29 0 2 0.589700 4.787224 1.891174 2.064629
30 0 2 0.589700 5.290510 3.315308 2.035204
31 0 1 -1.179400 7.140568 22.310419 6.474147
32 0 2 0.589700 7.910901 22.206215 5.945843
33 0 2 0.589700 6.479730 21.804647 6.027223
34 0 1 -1.179400 0.588723 2.308497 9.287059
35 0 2 0.589700 0.659003 3.218420 9.569768
36 0 2 0.589700 1.460177 1.959623 9.369628
37 0 1 -1.179400 2.471067 22.310049 8.298391
38 0 2 0.589700 1.684733 22.025229 8.730403
39 0 2 0.589700 3.158298 22.111471 8.908674
40 0 1 -1.179400 7.876843 1.195594 19.752558
41 0 2 0.589700 7.098673 1.634582 20.055895
42 0 2 0.589700 7.567413 46.186214 19.361755
43 0 1 -1.179400 0.666463 10.664864 1.627576
44 0 2 0.589700 1.458610 10.312597 1.996543
45 0 2 0.589700 0.549984 11.509381 2.053878
46 0 1 -1.179400 14.266715 20.841383 19.248652
47 0 2 0.589700 14.955340 21.248112 19.747938
48 0 2 0.589700 13.486792 21.297642 19.521441
49 0 1 -1.179400 7.324942 14.229675 15.795109
50 0 2 0.589700 7.331374 15.099424 16.187035
51 0 2 0.589700 8.072994 13.787617 16.162891
52 0 1 -1.179400 0.181155 13.248965 17.122938
53 0 2 0.589700 0.329348 13.378492 18.041355
54 0 2 0.589700 17.311283 13.827987 16.919659
55 0 1 -1.179400 13.707644 13.570035 2.627553
56 0 2 0.589700 13.743359 13.390532 3.549109
57 0 2 0.589700 13.941576 12.739754 2.223061
58 0 1 -1.179400 9.507435 12.876957 9.471349
59 0 2 0.589700 8.668818 13.236013 9.234918
60 0 2 0.589700 9.537627 12.950622 10.406983
61 0 1 -1.179400 11.400890 21.846897 1.310850
62 0 2 0.589700 12.226823 21.473021 1.568740
63 0 2 0.589700 11.422115 22.744001 1.637482
64 0 1 -1.179400 7.573890 9.082586 1.871497
65 0 2 0.589700 7.685609 8.156212 1.663347
66 0 2 0.589700 7.584751 9.112774 2.809873
67 0 1 -1.179400 9.724682 13.102283 12.287086
68 0 2 0.589700 9.889608 12.221124 12.614637
69 0 2 0.589700 10.456715 13.620173 12.585210
70 0 1 -1.179400 5.764786 2.263826 16.186714
71 0 2 0.589700 5.629914 2.359369 15.262261
72 0 2 0.589700 5.041636 1.729155 16.477875
73 0 1 -1.179400 13.954082 18.381996 20.623045
74 0 2 0.589700 14.179342 19.191471 20.175369
75 0 2 0.589700 13.142248 18.108376 20.233158
76 0 1 -1.179400 10.100436 2.849282 13.141705
77 0 2 0.589700 10.205892 3.641654 12.625655
78 0 2 0.589700 10.256230 3.135164 14.024137
79 0 1 -1.179400 2.805706 21.248434 0.146686
80 0 2 0.589700 2.111588 21.037571 21.302420
81 0 2 0.589700 3.258155 21.980322 21.498476
82 0 1 -1.179400 5.317438 2.459624 5.885730
83 0 2 0.589700 4.611248 1.831745 5.954238
84 0 2 0.589700 6.055148 1.934530 5.614957
85 0 1 -1.179400 7.054805 22.152380 9.154864
86 0 2 0.589700 7.069930 22.301088 8.227482
87 0 2 0.589700 7.897513 21.777269 9.349024
88 0 1 -1.179400 4.495275 21.190281 12.317328
89 0 2 0.589700 4.586704 21.254017 11.384969
90 0 2 0.589700 4.736296 20.288176 12.518626
91 0 1 -1.179400 12.377883 9.364050 2.136868
92 0 2 0.589700 12.230197 9.220439 3.053349
93 0 2 0.589700 11.640450 9.883749 1.855522
94 0 1 -1.179400 0.197921 21.301229 9.423342
95 0 2 0.589700 17.289454 21.771494 9.116445
96 0 2 0.589700 0.052285 21.194180 10.344945
97 0 1 -1.179400 16.400133 9.270041 16.788853
98 0 2 0.589700 16.449522 8.369617 16.474268
99 0 2 0.589700 15.552547 9.576166 16.515551
100 0 1 -1.179400 4.768833 18.367496 8.748064
101 0 2 0.589700 5.446802 17.722010 8.896677
102 0 2 0.589700 4.894053 18.646929 7.858813
103 0 1 -1.179400 10.150212 10.488544 13.131066
104 0 2 0.589700 9.443991 9.902081 12.900760
105 0 2 0.589700 10.156587 10.489065 14.069948
106 0 1 -1.179400 12.139724 1.125842 2.299781
107 0 2 0.589700 12.111670 1.248402 3.230534
108 0 2 0.589700 11.303843 1.437214 1.997732
109 0 1 -1.179400 14.396016 5.089295 2.012863
110 0 2 0.589700 13.798136 5.613844 1.502789
111 0 2 0.589700 15.179671 5.616464 2.051470
112 0 1 -1.179400 1.105017 5.212976 9.623416
113 0 2 0.589700 0.908562 5.314122 10.536212
114 0 2 0.589700 1.919021 5.676662 9.506616
115 0 1 -1.179400 9.788819 13.100100 19.534048
116 0 2 0.589700 10.377634 13.744420 19.903101
117 0 2 0.589700 8.931822 13.439157 19.729601
118 0 1 -1.179400 14.095843 21.416693 2.032007
119 0 2 0.589700 14.004081 21.597805 2.949385
120 0 2 0.589700 14.710352 22.071379 1.728034
121 0 1 -1.179400 3.206579 9.438728 2.559411
122 0 2 0.589700 3.353868 9.452738 3.486618
123 0 2 0.589700 2.915102 8.547282 2.380194
124 0 1 -1.179400 4.922076 13.152800 16.622862
125 0 2 0.589700 4.990403 13.321796 17.544495
126 0 2 0.589700 5.694232 13.550272 16.255810
127 0 1 -1.179400 9.639501 20.918901 19.454569
128 0 2 0.589700 8.955879 21.477627 19.793602
129 0 2 0.589700 10.435320 21.364111 19.697487
130 0 1 -1.179400 15.832817 22.935637 8.584215
131 0 2 0.589700 15.803861 23.840216 8.889749
132 0 2 0.589700 14.995287 22.571968 8.817681
133 0 1 -1.179400 1.278394 2.438978 15.906963
134 0 2 0.589700 1.037460 3.252479 16.339211
135 0 2 0.589700 0.541248 1.859552 16.035053
136 0 1 -1.179400 5.331398 5.010595 2.749160
137 0 2 0.589700 5.361692 5.124332 3.680922
138 0 2 0.589700 4.641801 5.593442 2.465861
139 0 1 -1.179400 7.632087 9.209000 19.313578
140 0 2 0.589700 6.949488 9.607403 19.827374
141 0 2 0.589700 7.707867 8.318160 19.648520
142 0 1 -1.179400 5.466227 5.093466 19.634834
143 0 2 0.589700 5.496714 4.197857 19.964672
144 0 2 0.589700 5.512019 4.994547 18.702076
145 0 1 -1.179400 8.127179 6.770269 5.526637
146 0 2 0.589700 7.335128 6.260225 5.453283
147 0 2 0.589700 8.229950 6.917336 6.448699
148 0 1 -1.179400 15.739462 14.341571 16.285925
149 0 2 0.589700 15.661860 15.242987 16.591959
150 0 2 0.589700 15.751377 14.418007 15.350096
151 0 1 -1.179400 14.357670 10.654096 20.701084
152 0 2 0.589700 14.432274 10.743875 21.632875
153 0 2 0.589700 14.324593 11.554048 20.383097
154 0 1 -1.179400 9.575345 13.142682 2.138625
155 0 2 0.589700 10.363784 13.615160 1.922768
156 0 2 0.589700 9.650869 12.309444 1.682788
157 0 1 -1.179400 6.970649 16.871370 19.542620
158 0 2 0.589700 7.656114 17.433657 19.872129
159 0 2 0.589700 7.115592 16.844423 18.615318
160 0 1 -1.179400 7.853865 6.649238 20.310972
161 0 2 0.589700 7.313380 6.073413 19.790329
162 0 2 0.589700 7.587162 6.476746 21.195255
163 0 1 -1.179400 10.265269 5.427968 4.795729
164 0 2 0.589700 10.987054 5.865429 5.217246
165 0 2 0.589700 9.507943 5.917789 5.075930
166 0 1 -1.179400 3.300905 44.954948 8.573923
167 0 2 0.589700 2.506068 44.451977 8.485231
168 0 2 0.589700 3.660533 44.671825 9.395739
169 0 1 -1.179400 11.169125 22.407763 5.367474
170 0 2 0.589700 12.025103 22.246908 5.012926
171 0 2 0.589700 11.010117 23.336035 5.202640
172 0 1 -1.179400 5.108041 12.785932 2.372778
173 0 2 0.589700 4.388278 13.147939 1.884283
174 0 2 0.589700 5.187677 11.885039 2.065763
175 0 1 -1.179400 9.686110 3.128823 8.281769
176 0 2 0.589700 8.900284 2.662995 8.519894
177 0 2 0.589700 9.717392 3.069638 7.345183
178 0 1 -1.179400 16.220520 14.479310 1.995851
179 0 2 0.589700 15.418695 14.065193 2.269978
180 0 2 0.589700 16.080807 15.414210 2.140898
181 0 1 -1.179400 1.206581 5.330566 5.412782
182 0 2 0.589700 0.419504 5.798544 5.642573
183 0 2 0.589700 1.074487 4.443082 5.738748
184 0 1 -1.179400 7.014380 16.674973 9.386164
185 0 2 0.589700 7.812402 17.140753 9.192581
186 0 2 0.589700 7.204759 15.759137 9.190443
187 0 1 -1.179400 4.939080 20.718386 1.893163
188 0 2 0.589700 5.614078 21.341904 1.663120
189 0 2 0.589700 4.256818 20.875216 1.265856
190 0 1 -1.179400 12.298908 6.715405 1.228947
191 0 2 0.589700 12.279387 6.836013 0.297729
192 0 2 0.589700 12.328449 7.604086 1.576427
193 0 1 -1.179400 16.281813 9.376804 12.495060
194 0 2 0.589700 16.217508 8.480807 12.818981
195 0 2 0.589700 16.207129 9.288581 11.563131
196 0 1 -1.179400 16.109671 6.897894 13.175012
197 0 2 0.589700 16.869457 6.443814 12.847520
198 0 2 0.589700 15.383467 6.420682 12.805818
199 0 1 -1.179400 5.036593 12.987047 5.232203
200 0 2 0.589700 4.909373 12.781953 4.323952
201 0 2 0.589700 5.903512 13.354620 5.274540
202 0 1 -1.179400 15.859230 17.091648 16.944828
203 0 2 0.589700 16.569698 17.525991 16.501589
204 0 2 0.589700 15.104640 17.621387 16.736341
205 0 1 -1.179400 16.408983 14.632353 5.932955
206 0 2 0.589700 16.567287 15.483457 5.533553
207 0 2 0.589700 16.219845 14.836698 6.830550
208 0 1 -1.179400 12.716310 1.770335 16.987993
209 0 2 0.589700 11.914001 2.127895 16.646868
210 0 2 0.589700 12.560358 1.678833 17.909529
211 0 1 -1.179400 11.625307 14.568853 8.469452
212 0 2 0.589700 10.946609 14.013629 8.823545
213 0 2 0.589700 11.415076 15.449368 8.771811
214 0 1 -1.179400 14.513908 2.382060 1.615692
215 0 2 0.589700 13.656295 2.102685 1.885322
216 0 2 0.589700 14.479914 3.338225 1.641428
217 0 1 -1.179400 5.302043 10.401011 1.187312
218 0 2 0.589700 6.106473 9.914932 1.280212
219 0 2 0.589700 4.648332 9.825253 1.556432
220 0 1 -1.179400 14.753674 4.896610 19.518526
221 0 2 0.589700 13.963120 5.211674 19.921694
222 0 2 0.589700 15.442898 5.344712 19.981600
223 0 1 -1.179400 3.124486 6.259769 16.324562
224 0 2 0.589700 3.070889 7.182018 16.570026
225 0 2 0.589700 3.185229 6.273506 15.387714
226 0 1 -1.179400 5.289148 18.108707 1.057901
227 0 2 0.589700 4.581444 17.666672 1.498227
228 0 2 0.589700 5.308686 18.985415 1.434161
229 0 1 -1.179400 11.849549 9.287558 4.651580
230 0 2 0.589700 12.034701 8.465860 5.096165
231 0 2 0.589700 12.602660 9.835364 4.815798
232 0 1 -1.179400 2.791395 14.665415 13.185576
233 0 2 0.589700 3.557446 14.164023 12.952728
234 0 2 0.589700 2.846509 14.760715 14.118193
235 0 1 -1.179400 17.045689 0.740183 16.232363
236 0 2 0.589700 16.361908 1.362718 16.026958
237 0 2 0.589700 17.168823 46.042061 15.441259
238 0 1 -1.179400 3.097093 17.254229 5.452248
239 0 2 0.589700 3.079235 16.338259 5.724112
240 0 2 0.589700 3.949695 17.565321 5.703706
241 0 1 -1.179400 13.776722 13.264281 9.441317
242 0 2 0.589700 13.782647 13.376795 10.373694
243 0 2 0.589700 13.108665 13.862984 9.138983
244 0 1 -1.179400 9.893085 10.642212 15.783922
245 0 2 0.589700 9.673866 11.496969 16.145281
246 0 2 0.589700 9.132938 10.102360 15.940997
247 0 1 -1.179400 5.003506 21.237080 4.708729
248 0 2 0.589700 4.219960 21.721539 4.916658
249 0 2 0.589700 4.872759 20.937120 3.826736
250 0 1 -1.179400 15.738256 23.020269 15.600799
251 0 2 0.589700 15.855126 22.801983 14.694120
252 0 2 0.589700 15.655976 23.973663 15.613124
253 0 1 -1.179400 3.198779 6.776799 1.717843
254 0 2 0.589700 3.172839 6.659438 0.786381
255 0 2 0.589700 2.468485 6.269460 2.036924
256 0 1 -1.179400 2.369031 9.216485 9.833160
257 0 2 0.589700 2.691620 8.345179 9.615849
258 0 2 0.589700 3.017965 9.816914 9.494723
259 0 1 -1.179400 0.737114 10.559320 13.502787
260 0 2 0.589700 17.790970 10.179131 13.171988
261 0 2 0.589700 0.646022 10.517178 14.436357
262 0 1 -1.179400 16.708052 6.428148 20.546146
263 0 2 0.589700 17.427103 5.947707 20.167145
264 0 2 0.589700 16.662544 7.240712 20.052031
265 0 1 -1.179400 6.981516 22.341627 1.344128
266 0 2 0.589700 7.333449 23.226032 1.417251
267 0 2 0.589700 7.614835 21.783958 1.770935
268 0 1 -1.179400 7.442173 16.889585 12.126814
269 0 2 0.589700 7.188354 16.715141 11.239125
270 0 2 0.589700 7.461241 16.027081 12.533452
271 0 1 -1.179400 12.389184 1.498987 19.534416
272 0 2 0.589700 13.237056 1.728894 19.871346
273 0 2 0.589700 11.792217 2.056043 20.011320
274 0 1 -1.179400 5.589237 2.878903 8.681171
275 0 2 0.589700 5.736856 2.836359 7.754855
276 0 2 0.589700 6.232604 2.289757 9.048090
277 0 1 -1.179400 5.562576 5.047133 16.753424
278 0 2 0.589700 5.502677 4.138152 16.465466
279 0 2 0.589700 4.693914 5.395373 16.643473
280 0 1 -1.179400 11.779881 8.890969 16.898050
281 0 2 0.589700 11.845645 8.975746 17.830954
282 0 2 0.589700 11.091129 9.494172 16.656826
283 0 1 -1.179400 9.681613 10.412119 8.210858
284 0 2 0.589700 9.821323 11.305777 8.516800
285 0 2 0.589700 10.270709 9.877936 8.721506
286 0 1 -1.179400 9.844026 10.597535 20.230782
287 0 2 0.589700 9.011614 10.241210 19.969791
288 0 2 0.589700 9.768191 11.539366 20.081587
289 0 1 -1.179400 3.552078 0.806117 16.823820
290 0 2 0.589700 3.471363 0.653179 17.747150
291 0 2 0.589700 2.792735 1.322371 16.600510
292 0 1 -1.179400 3.081010 17.317524 2.629991
293 0 2 0.589700 2.977262 16.402384 2.375142
294 0 2 0.589700 3.156346 17.288933 3.565456
295 0 1 -1.179400 7.455688 14.396815 13.140490
296 0 2 0.589700 7.364853 14.240899 14.062402
297 0 2 0.589700 8.303375 14.045096 12.926831
298 0 1 -1.179400 10.095460 5.340443 2.148412
299 0 2 0.589700 10.848593 5.874040 1.944159
300 0 2 0.589700 10.088404 5.293349 3.086152
301 0 1 -1.179400 9.186320 17.880455 6.119279
302 0 2 0.589700 9.223008 18.767159 5.767647
303 0 2 0.589700 9.930231 17.435757 5.746214
304 0 1 -1.179400 14.228142 18.725540 1.533285
305 0 2 0.589700 14.346637 18.638378 0.605802
306 0 2 0.589700 14.416125 19.645418 1.712361
307 0 1 -1.179400 7.004793 16.588186 5.287277
308 0 2 0.589700 7.071463 16.732523 4.361499
309 0 2 0.589700 7.812472 16.926317 5.634768
310 0 1 -1.179400 14.114009 18.839537 13.142491
311 0 2 0.589700 13.945221 19.718981 12.812486
312 0 2 0.589700 13.363770 18.327541 12.882121
313 0 1 -1.179400 12.092427 6.600915 8.279614
314 0 2 0.589700 11.262392 6.332735 8.633213
315 0 2 0.589700 12.713243 6.004588 8.673159
316 0 1 -1.179400 7.549825 14.336740 20.346151
317 0 2 0.589700 7.303266 14.308983 21.251776
318 0 2 0.589700 7.504118 15.263784 20.117027
319 0 1 -1.179400 9.081800 18.147640 1.329286
320 0 2 0.589700 9.742323 18.079407 1.993979
321 0 2 0.589700 8.372016 17.610332 1.647340
322 0 1 -1.179400 6.891504 22.364820 15.761507
323 0 2 0.589700 7.063093 22.066967 14.885833
324 0 2 0.589700 7.647448 22.091684 16.251076
325 0 1 -1.179400 16.464325 6.678895 15.827963
326 0 2 0.589700 16.334332 6.590061 14.902175
327 0 2 0.589700 15.832774 6.086412 16.209879
328 0 1 -1.179400 11.268682 22.444260 8.023067
329 0 2 0.589700 11.130445 23.372118 8.207645
330 0 2 0.589700 11.401469 22.409246 7.094210
331 0 1 -1.179400 3.086309 6.624598 13.596053
332 0 2 0.589700 3.190831 7.539077 13.339245
333 0 2 0.589700 3.870438 6.193341 13.297385
334 0 1 -1.179400 0.642538 21.531986 17.168158
335 0 2 0.589700 17.779781 21.913347 16.684254
336 0 2 0.589700 1.404857 21.989014 16.850636
337 0 1 -1.179400 15.934975 8.862890 9.666976
338 0 2 0.589700 16.644672 9.323642 9.248877
339 0 2 0.589700 15.173455 9.380976 9.455456
340 0 1 -1.179400 0.552430 18.758121 6.122991
341 0 2 0.589700 1.419917 18.504808 5.860176
342 0 2 0.589700 0.538522 18.614677 7.051185
343 0 1 -1.179400 0.671695 18.703238 1.698795
344 0 2 0.589700 1.430124 18.192036 1.935964
345 0 2 0.589700 0.548349 18.522289 0.785089
346 0 1 -1.179400 13.602515 18.574734 5.826136
347 0 2 0.589700 14.419328 18.142870 5.635084
348 0 2 0.589700 12.947467 17.939266 5.571352
349 0 1 -1.179400 2.661746 22.721806 15.836893
350 0 2 0.589700 2.459106 22.636124 14.923922
351 0 2 0.589700 3.338784 22.075764 15.987409
352 0 1 -1.179400 15.548979 22.414883 6.007843
353 0 2 0.589700 16.319342 22.109083 5.561156
354 0 2 0.589700 15.767988 22.354816 6.919008
355 0 1 -1.179400 7.699303 1.394316 9.561292
356 0 2 0.589700 7.589400 0.491317 9.269950
357 0 2 0.589700 7.557260 1.355666 10.488639
358 0 1 -1.179400 10.367418 2.641222 20.624557
359 0 2 0.589700 10.310687 3.535403 20.294462
360 0 2 0.589700 9.578100 2.218549 20.327723
361 0 1 -1.179400 5.324480 10.529131 20.266768
362 0 2 0.589700 5.176991 11.431721 19.991201
363 0 2 0.589700 5.281262 10.564712 21.204031
364 0 1 -1.179400 0.718785 5.645416 12.351862
365 0 2 0.589700 0.700421 4.774601 12.741122
366 0 2 0.589700 1.402952 6.106918 12.809711
367 0 1 -1.179400 14.677659 2.392620 20.822432
368 0 2 0.589700 14.693454 3.310588 20.557003
369 0 2 0.589700 14.599198 2.424793 0.003374
370 0 1 -1.179400 13.639921 18.728601 8.685459
371 0 2 0.589700 13.606410 18.506983 7.772680
372 0 2 0.589700 14.198182 18.061586 9.062982
373 0 1 -1.179400 0.765245 13.431044 2.604588
374 0 2 0.589700 0.872383 13.327173 3.531793
375 0 2 0.589700 17.765963 13.828111 2.506973
376 0 1 -1.179400 6.985664 14.053142 8.744862
377 0 2 0.589700 6.073126 13.913073 8.923567
378 0 2 0.589700 7.077716 13.858476 7.830187
379 0 1 -1.179400 17.761698 21.262045 12.169268
380 0 2 0.589700 17.806973 20.391203 12.556273
381 0 2 0.589700 0.657495 21.725538 12.514647
382 0 1 -1.179400 2.210714 17.239683 9.345985
383 0 2 0.589700 3.046625 17.639122 9.170065
384 0 2 0.589700 2.330384 16.312799 9.144529
385 0 1 -1.179400 5.242265 18.669752 6.211158
386 0 2 0.589700 5.910328 18.076946 5.897880
387 0 2 0.589700 5.272887 19.415682 5.623612
388 0 1 -1.179400 9.299250 18.096819 20.299051
389 0 2 0.589700 9.127625 18.120539 21.221882
390 0 2 0.589700 9.570601 18.987577 20.087860
391 0 1 -1.179400 12.348907 6.819934 5.672877
392 0 2 0.589700 12.504120 6.916101 6.594078
393 0 2 0.589700 13.087157 6.321252 5.358957
394 0 1 -1.179400 1.018572 10.823483 20.777924
395 0 2 0.589700 0.262634 10.317722 20.522322
396 0 2 0.589700 0.924052 10.936982 21.705412
397 0 1 -1.179400 9.020146 20.812712 2.312180
398 0 2 0.589700 9.010065 19.955338 1.894917
399 0 2 0.589700 9.782413 21.246887 1.965054
400 0 1 -1.179400 14.019590 13.258080 12.272943
401 0 2 0.589700 14.748343 13.722022 12.653241
402 0 2 0.589700 14.071749 12.374252 12.629563
403 0 1 -1.179400 17.736595 18.440104 8.742958
404 0 2 0.589700 0.641367 18.037027 9.138214
405 0 2 0.589700 17.710579 19.324459 9.101165
406 0 1 -1.179400 16.711334 1.301500 2.739679
407 0 2 0.589700 16.750883 0.420090 2.375760
408 0 2 0.589700 15.870586 1.635651 2.477111
409 0 1 -1.179400 11.236127 22.771908 16.087551
410 0 2 0.589700 11.329150 23.690800 16.333382
411 0 2 0.589700 12.065297 22.376024 16.299355
412 0 1 -1.179400 0.035139 21.413074 4.955448
413 0 2 0.589700 0.246571 21.252949 4.054186
414 0 2 0.589700 0.155530 20.565023 5.373840
415 0 1 -1.179400 7.603189 6.270847 1.333423
416 0 2 0.589700 7.077716 5.619143 1.777717
417 0 2 0.589700 8.487144 6.051898 1.569878
418 0 1 -1.179400 9.950280 2.679288 5.535396
419 0 2 0.589700 9.202871 2.199730 5.214515
420 0 2 0.589700 10.015067 3.443817 4.974217
421 0 1 -1.179400 12.016262 6.817597 12.916041
422 0 2 0.589700 12.213497 7.738946 12.755086
423 0 2 0.589700 12.123095 6.712912 13.843194
424 0 1 -1.179400 12.744058 24.739542 0.528356
425 0 2 0.589700 13.102743 25.169151 1.287042
426 0 2 0.589700 11.868040 25.080536 0.464402
427 0 1 -1.179400 5.104169 13.112389 12.531099
428 0 2 0.589700 5.203945 12.185768 12.744207
429 0 2 0.589700 5.983087 13.449960 12.495827
430 0 1 -1.179400 15.982408 17.070662 12.220021
431 0 2 0.589700 15.245729 17.579376 12.521903
432 0 2 0.589700 16.726652 17.626213 12.398870
433 0 1 -1.179400 5.305043 21.132277 19.330418
434 0 2 0.589700 5.066880 20.400301 19.886656
435 0 2 0.589700 4.764855 21.857557 19.620718
436 0 1 -1.179400 14.367556 2.774891 5.899253
437 0 2 0.589700 14.504359 2.915359 6.817885
438 0 2 0.589700 15.114534 2.266943 5.622419
439 0 1 -1.179400 16.180386 1.586792 12.601539
440 0 2 0.589700 16.386906 0.725030 12.954252
441 0 2 0.589700 15.342241 1.802046 12.970530
442 0 1 -1.179400 11.865597 9.174193 9.451256
443 0 2 0.589700 12.598365 9.732153 9.236035
444 0 2 0.589700 11.945726 8.422596 8.875434
445 0 1 -1.179400 0.740126 10.638632 16.332489
446 0 2 0.589700 0.564371 11.507038 16.686134
447 0 2 0.589700 17.840258 10.115773 16.570955
448 0 1 -1.179400 7.122772 16.578819 2.426704
449 0 2 0.589700 6.984391 15.756655 1.966260
450 0 2 0.589700 6.531464 17.197437 2.021116
451 0 1 -1.179400 0.503534 13.459042 19.892656
452 0 2 0.589700 0.548460 12.569434 20.236172
453 0 2 0.589700 17.489985 13.760960 20.114328
454 0 1 -1.179400 4.511818 12.954689 9.894275
455 0 2 0.589700 4.679869 13.024564 10.815508
456 0 2 0.589700 4.673015 12.034501 9.692178
457 0 1 -1.179400 5.279170 2.760407 13.510613
458 0 2 0.589700 6.117552 2.491857 13.177521
459 0 2 0.589700 4.670717 2.515313 12.836513
460 0 1 -1.179400 9.993018 5.148786 19.562361
461 0 2 0.589700 10.052007 5.258246 18.631477
462 0 2 0.589700 9.383465 5.821351 19.837357
463 0 1 -1.179400 15.753648 45.394684 18.408028
464 0 2 0.589700 16.063118 45.926434 19.124910
465 0 2 0.589700 16.282677 45.665314 17.678736
466 0 1 -1.179400 0.594122 2.970559 13.239697
467 0 2 0.589700 17.543041 2.727306 13.122186
468 0 2 0.589700 0.767711 2.792901 14.145849
469 0 1 -1.179400 11.845156 17.616722 16.871469
470 0 2 0.589700 11.125705 18.039700 16.432129
471 0 2 0.589700 12.610397 18.032934 16.509993
472 0 1 -1.179400 5.028068 18.249626 15.668363
473 0 2 0.589700 4.856838 19.088013 16.087822
474 0 2 0.589700 4.842327 18.408018 14.761178
475 0 1 -1.179400 7.743816 8.884640 12.425909
476 0 2 0.589700 6.906548 9.246621 12.662817
477 0 2 0.589700 7.636199 7.937322 12.506346
478 0 1 -1.179400 6.979790 14.187108 1.107191
479 0 2 0.589700 7.807753 13.933402 1.475597
480 0 2 0.589700 6.358395 13.597856 1.509971
481 0 1 -1.179400 9.041916 18.578220 16.073412
482 0 2 0.589700 9.183872 18.301178 15.185952
483 0 2 0.589700 8.867447 19.516703 16.012714
484 0 1 -1.179400 14.247284 10.796293 13.416492
485 0 2 0.589700 13.547546 10.327269 12.990571
486 0 2 0.589700 15.028794 10.363464 13.113200
487 0 1 -1.179400 2.915127 1.127086 5.719165
488 0 2 0.589700 2.211127 1.754776 5.808623
489 0 2 0.589700 3.023415 1.024400 4.791964
490 0 1 -1.179400 11.352803 22.698038 13.260463
491 0 2 0.589700 10.604708 22.132607 13.135558
492 0 2 0.589700 11.323218 22.936193 14.169361
493 0 1 -1.179400 7.749738 1.374334 2.350677
494 0 2 0.589700 6.952263 1.683818 1.957055
495 0 2 0.589700 8.417054 1.940595 1.991852
496 0 1 -1.179400 7.537278 22.313938 20.343010
497 0 2 0.589700 6.856900 21.908436 19.831627
498 0 2 0.589700 7.283999 22.153923 21.233465
499 0 1 -1.179400 0.581934 17.988619 20.652126
500 0 2 0.589700 17.759848 17.401407 20.338226
501 0 2 0.589700 1.359308 17.706474 20.202589
502 0 1 -1.179400 0.177477 18.724112 13.007406
503 0 2 0.589700 0.875477 18.250454 12.583577
504 0 2 0.589700 0.330714 18.590414 13.924422
505 0 1 -1.179400 14.237220 5.268727 16.847866
506 0 2 0.589700 14.449804 4.373068 16.593817
507 0 2 0.589700 14.269705 5.256592 17.786137
508 0 1 -1.179400 13.635740 21.561743 12.273651
509 0 2 0.589700 12.823389 21.773430 12.698026
510 0 2 0.589700 13.403976 21.431574 11.372733
511 0 1 -1.179400 9.609599 18.227985 13.529968
512 0 2 0.589700 8.854934 17.831581 13.127249
513 0 2 0.589700 9.571730 19.149000 13.277231
514 0 1 -1.179400 14.435726 2.319716 8.689640
515 0 2 0.589700 14.999426 1.569264 8.840103
516 0 2 0.589700 13.605471 2.053015 9.043797
517 0 1 -1.179400 7.565207 14.055917 5.969661
518 0 2 0.589700 7.371083 14.909454 5.591605
519 0 2 0.589700 8.245160 13.696653 5.425496
520 0 1 -1.179400 7.768882 6.747182 15.903208
521 0 2 0.589700 6.971537 6.395021 16.260944
522 0 2 0.589700 7.747252 7.678369 16.119343
523 0 1 -1.179400 16.758993 8.870131 5.072327
524 0 2 0.589700 17.485674 9.405090 5.354056
525 0 2 0.589700 16.855478 8.047522 5.542565
526 0 1 -1.179400 7.410480 7.193546 8.339248
527 0 2 0.589700 7.393966 7.948188 8.916561
528 0 2 0.589700 8.179782 6.706808 8.590583
529 0 1 -1.179400 12.424884 9.414245 12.152252
530 0 2 0.589700 11.534369 9.673682 12.312405
531 0 2 0.589700 12.466423 9.271779 11.224733
532 0 1 -1.179400 13.641661 21.156385 4.573365
533 0 2 0.589700 14.236398 21.406115 5.257960
534 0 2 0.589700 13.521646 20.213951 4.685332
535 0 1 -1.179400 16.268410 22.388107 20.462189
536 0 2 0.589700 17.106276 21.968315 20.354338
537 0 2 0.589700 16.235069 23.047716 19.782644
538 0 1 -1.179400 12.096335 6.478035 15.558199
539 0 2 0.589700 11.996283 7.359235 15.910858
540 0 2 0.589700 12.914274 6.168448 15.907341
541 0 1 -1.179400 16.772898 6.249156 6.101056
542 0 2 0.589700 15.949576 5.991188 5.725191
543 0 2 0.589700 16.588806 6.365198 7.014716
544 0 1 -1.179400 14.119861 5.074840 9.199162
545 0 2 0.589700 14.067309 4.135562 9.371938
546 0 2 0.589700 15.038566 5.245596 9.091944
547 0 1 -1.179400 13.682732 13.029384 17.073244
548 0 2 0.589700 14.469238 13.385067 16.695482
549 0 2 0.589700 13.759593 12.082443 16.960033
550 0 1 -1.179400 0.853012 10.492731 6.179521
551 0 2 0.589700 0.443188 10.292132 7.001271
552 0 2 0.589700 0.816607 11.447012 6.116601
553 0 1 -1.179400 4.640594 21.154848 9.638183
554 0 2 0.589700 5.471059 21.483540 9.338905
555 0 2 0.589700 4.467310 20.395050 9.094035
556 0 1 -1.179400 3.005069 14.602531 1.690337
557 0 2 0.589700 2.117270 14.365706 1.893505
558 0 2 0.589700 3.081111 14.452870 0.766098
559 0 1 -1.179400 11.620860 14.954564 1.620230
560 0 2 0.589700 12.391950 14.495422 1.912711
561 0 2 0.589700 11.747354 15.063211 0.695988
562 0 1 -1.179400 15.993100 17.249311 5.211932
563 0 2 0.589700 16.734264 17.672716 5.613224
564 0 2 0.589700 16.192732 17.248228 4.294442
565 0 1 -1.179400 9.435757 20.598906 12.323822
566 0 2 0.589700 9.552752 20.779917 11.409295
567 0 2 0.589700 8.553007 20.871376 12.504729
568 0 1 -1.179400 3.790816 0.710831 19.588272
569 0 2 0.589700 3.124767 1.022820 20.175917
570 0 2 0.589700 4.001371 45.635155 19.898556
571 0 1 -1.179400 0.707794 5.011445 16.724976
572 0 2 0.589700 1.515378 5.483787 16.597565
573 0 2 0.589700 0.052481 5.581825 16.350689
574 0 1 -1.179400 16.637215 9.188268 19.667084
575 0 2 0.589700 15.820700 9.584175 19.923260
576 0 2 0.589700 16.643154 9.250810 18.730202
577 0 1 -1.179400 5.072212 10.488599 6.200994
578 0 2 0.589700 5.657276 10.158220 5.541420
579 0 2 0.589700 4.990835 11.422864 6.013780
580 0 1 -1.179400 4.883661 10.442704 9.030125
581 0 2 0.589700 5.640843 9.985424 9.359347
582 0 2 0.589700 4.925992 10.321545 8.099731
583 0 1 -1.179400 2.762190 17.089666 16.825296
584 0 2 0.589700 2.637441 16.170195 16.596138
585 0 2 0.589700 3.584862 17.325089 16.434090
586 0 1 -1.179400 13.569804 21.566936 9.396760
587 0 2 0.589700 12.891257 21.954153 8.869553
588 0 2 0.589700 13.533215 20.631392 9.201782
589 0 1 -1.179400 9.135901 20.610600 5.078695
590 0 2 0.589700 9.727421 21.352577 5.131097
591 0 2 0.589700 8.835530 20.614597 4.189020
592 0 1 -1.179400 7.593811 1.776855 12.760520
593 0 2 0.589700 7.507334 1.033372 13.345491
594 0 2 0.589700 8.364864 2.234222 13.055752
595 0 1 -1.179400 1.111548 5.138482 2.521323
596 0 2 0.589700 0.454448 5.641372 2.065854
597 0 2 0.589700 0.942023 5.307258 3.429871
598 0 1 -1.179400 10.413175 2.820774 15.971321
599 0 2 0.589700 9.670129 2.387950 16.359249
600 0 2 0.589700 10.390145 3.711603 16.313969
601 0 1 -1.179400 5.021771 18.499798 20.199450
602 0 2 0.589700 5.007264 18.270376 21.110870
603 0 2 0.589700 5.663485 17.913609 19.825157
604 0 1 -1.179400 2.270080 17.116106 12.225904
605 0 2 0.589700 2.441916 17.189751 11.305649
606 0 2 0.589700 2.453595 16.200665 12.429769
607 0 1 -1.179400 13.815345 3.020752 13.218060
608 0 2 0.589700 13.919925 3.847241 12.756169
609 0 2 0.589700 12.928943 2.757118 13.042435
610 0 1 -1.179400 7.079690 16.988995 16.787523
611 0 2 0.589700 6.296383 17.411135 16.474514
612 0 2 0.589700 7.772687 17.580643 16.531359
613 0 1 -1.179400 15.906615 14.287279 20.953121
614 0 2 0.589700 15.900784 14.425957 0.127950
615 0 2 0.589700 16.023827 15.161973 20.590300
616 0 1 -1.179400 9.171015 21.298012 16.715612
617 0 2 0.589700 9.436575 21.066050 17.587057
618 0 2 0.589700 9.851656 21.876287 16.403183
619 0 1 -1.179400 15.909718 22.946125 12.785267
620 0 2 0.589700 15.066108 22.557484 12.623298
621 0 2 0.589700 16.520813 22.316801 12.427627
622 0 1 -1.179400 16.461025 6.220656 8.940965
623 0 2 0.589700 17.291470 5.968808 9.305012
624 0 2 0.589700 16.275293 7.073666 9.324346
625 0 1 -1.179400 2.698578 8.938764 16.964857
626 0 2 0.589700 2.832690 9.102865 17.880110
627 0 2 0.589700 1.938591 9.455705 16.745281
628 0 1 -1.179400 16.219271 14.314993 13.072123
629 0 2 0.589700 16.308897 15.203872 12.735581
630 0 2 0.589700 16.941635 13.834474 12.699550
631 0 1 -1.179400 11.666883 14.822964 16.058886
632 0 2 0.589700 11.670793 15.761403 16.243591
633 0 2 0.589700 12.398345 14.476464 16.540823
634 0 1 -1.179400 14.518078 10.276709 6.127539
635 0 2 0.589700 15.347183 9.908829 5.871508
636 0 2 0.589700 14.509371 11.153322 5.750662
637 0 1 -1.179400 0.662648 13.027314 12.281639
638 0 2 0.589700 0.776702 12.154689 12.650210
639 0 2 0.589700 1.361233 13.546596 12.649351
640 0 1 -1.179400 11.899681 14.477713 5.699636
641 0 2 0.589700 11.861368 14.532941 6.636196
642 0 2 0.589700 11.196251 13.888163 5.468390
643 0 1 -1.179400 11.451624 17.200293 4.897550
644 0 2 0.589700 11.761225 16.325474 5.120063
645 0 2 0.589700 11.613553 17.278631 3.975879
646 0 1 -1.179400 0.864115 4.731154 19.554556
647 0 2 0.589700 1.702444 5.113245 19.754444