LAMMPS data file via write_data, version 29 Sep 2021, timestep = 400000

972 atoms
2 atom types

-0.023093614333642876 20.014146614334322 xlo xhi
-0.10466538108209278 20.09571838107905 ylo yhi
0.15893515801080582 20.641836841989058 zlo zhi

Masses

1 1.008
2 15.999

Atoms # full

2 0 2 0 2.0037183913540835 2.3269593923158096 0.3791947897265597 0 0 0
31 0 1 0 1.1844912932994824 2.054076620073563 2.2709731831339126 0 0 0
32 0 2 0 0.9991663670386297 1.1137992319692274 2.4098336245240906 0 0 0
33 0 2 0 1.000480025545026 2.599527568072297 3.0239531834707813 0 0 0
5 0 2 0 3.257040342504479 1.3709137428929425 3.6408689744512754 0 0 0
18 0 2 0 4.276346428360742 3.311049634423942 3.395663278225516 0 0 0
4 0 1 0 4.176037019610521 1.6168165824138063 3.390580191481835 0 0 0
35 0 2 0 4.750878103033203 2.5519021824038766 1.1627007445299549 0 0 0
36 0 2 0 6.301471645469086 2.6463633700066516 1.4821921418831798 0 0 0
34 0 1 0 5.624466202485791 2.633439447902491 0.7941840488982566 0 0 0
67 0 1 0 7.955860672409586 2.162670291541109 2.278509893372185 0 0 0
272 0 2 0 7.665360375923663 0.36126584842526854 2.7042775314120164 0 1 0
6 0 2 0 4.660692607294213 1.5539092465227304 4.254830709918069 0 0 0
230 0 2 0 4.474228123272264 0.12392467124947143 2.016020695739054 0 1 0
68 0 2 0 8.40229127084299 2.758299752554544 2.899096948840974 0 0 0
69 0 2 0 8.523948956010726 2.2568041929973877 1.5428645329856887 0 0 0
40 0 1 0 10.842078426320388 1.255580002138755 3.1317669910293118 0 0 0
39 0 2 0 10.568820166591768 2.185520094638403 0.35756964416172143 0 0 0
41 0 2 0 10.03840034071005 1.0096685939086891 3.5969470541784485 0 0 0
54 0 2 0 10.792388755057265 3.184888158315886 3.525321544384014 0 0 0
37 0 1 0 9.622093342620516 2.1970425236187263 0.17498741449574595 0 0 0
42 0 2 0 11.576500666088192 0.8994361023081687 3.654956623686843 0 0 0
266 0 2 0 10.969290759963014 0.058918868183736095 2.004250295712626 0 1 0
70 0 1 0 12.358540354973828 2.3919456904992042 0.34206137815623394 0 0 0
72 0 2 0 13.166730026034756 2.2595977393941435 0.8099181695086762 0 0 0
103 0 1 0 14.411120316302824 1.7310243990072096 2.026100541764868 0 0 0
105 0 2 0 14.242821089548407 0.802446998462563 2.145285360570517 0 0 0
104 0 2 0 15.236354139842643 1.8061399326816097 1.5604801668605304 0 0 0
84 0 2 0 14.389432602263476 3.1755751378871584 3.2112184756241193 0 0 0
73 0 1 0 16.465494115374916 2.2421362905919464 0.3371430251306443 0 0 0
108 0 2 0 19.75975470902921 2.272449672737437 1.216127439505518 0 0 0
76 0 1 0 17.627283517323995 0.8809972541256237 3.5774648953397343 0 0 0
77 0 2 0 17.584037849814937 0.4934036616343582 2.699783457418465 0 0 0
89 0 2 0 17.39253855231373 2.91454499902964 3.5437254977587007 0 0 0
106 0 1 0 19.260857085896376 1.9396826651768406 0.4396500233513239 0 0 0
107 0 2 0 18.364339360102374 2.260762583568549 0.4920407434312751 0 0 0
78 0 2 0 18.513158377065313 0.6601854427291438 3.945785996000724 0 0 0
88 0 1 0 17.293081837034403 3.8568519818743514 3.3932604199815968 0 0 0
96 0 2 0 16.01157005317471 0.8248730513583427 4.179331112248869 0 0 0
10 0 1 0 1.3161356793052272 4.296451864268617 3.6113944245852845 0 0 0
12 0 2 0 2.229895884173716 4.392733262889518 3.8294054205447035 0 0 0
20 0 2 0 0.7930957583277621 5.280442164268842 2.3882646194706503 0 0 0
19 0 1 0 0.7403764001656155 5.85371133789061 1.5971877878252507 0 0 0
21 0 2 0 0.8709215316810649 6.751140462510425 1.979776651539947 0 0 0
675 0 2 0 1.9539732826929994 5.3437460452073395 0.5067778431397716 0 0 1
112 0 1 0 3.9648528415370703 7.8096339545038465 3.7184714114087885 0 0 0
16 0 1 0 4.184755278452169 4.260716760896389 3.6953222499316207 0 0 0
14 0 2 0 4.295950719618283 5.826079849384821 0.9575664990990083 0 0 0
17 0 2 0 4.455654465934421 4.891428095175252 2.9907604016387968 0 0 0
114 0 2 0 4.311594046990353 7.475811700523511 2.93670328987554 0 0 0
13 0 1 0 4.765616909106465 6.178081380054203 1.7435016882691061 0 0 0
15 0 2 0 5.734881967177621 6.111709161980698 1.6695915584023264 0 0 0
55 0 1 0 7.2883966270171126 5.727513141115438 1.8281639244496735 0 0 0
56 0 2 0 7.291244770609339 5.082498331097846 2.5812636925799857 0 0 0
177 0 2 0 7.574030051384712 7.754467315465024 2.405596848565769 0 0 0
46 0 1 0 7.9327377278322855 4.351047412262248 4.086416706311189 0 0 0
52 0 1 0 10.815818673204094 4.101521787559095 3.7732989205709946 0 0 0
57 0 2 0 8.062653165317373 5.399124929327332 1.2899656654887726 0 0 0
51 0 2 0 10.948496660170177 5.380645896941422 2.291716925931477 0 0 0
49 0 1 0 11.167266171234523 6.02822047299696 1.626979166068387 0 0 0
50 0 2 0 10.640761407598811 5.845936040059289 0.8120457566444602 0 0 0
150 0 2 0 10.807957547601195 7.480175907715421 2.667793637865482 0 0 0
149 0 2 0 9.932328440376015 7.61763618710614 3.9648240486205495 0 0 0
148 0 1 0 10.776368835006323 7.894862663427781 3.5079513505295163 0 0 0
82 0 1 0 14.631041997627682 3.981636448339631 3.691043162996111 0 0 0
83 0 2 0 14.284416266957306 4.641672140709651 3.1182146671188558 0 0 0
91 0 1 0 13.819827267696398 5.686281870401292 1.6202719825644416 0 0 0
92 0 2 0 14.23126075780791 6.46960414869942 2.034943201928523 0 0 0
93 0 2 0 12.846094503164274 5.843903972420343 1.5448287022521998 0 0 0
747 0 2 0 14.967644660764458 5.097735564561866 0.2979484370084108 0 0 1
204 0 2 0 15.634160102475219 7.416448437160042 4.008162046538931 0 0 0
86 0 2 0 18.192238330095865 4.843318802573588 1.8283149002093275 0 0 0
85 0 1 0 17.956264511680384 5.504409846299503 1.1562330796887093 0 0 0
87 0 2 0 18.84468396960894 5.634201333529145 0.7886642131881714 0 0 0
185 0 2 0 17.893933006782124 7.146038834628649 2.4207436678556906 0 0 0
746 0 2 0 16.490700637780904 5.002540867521782 0.2661296050293511 0 0 1
184 0 1 0 17.543063308714416 7.650359347565222 3.1847116530238666 0 0 0
90 0 2 0 16.32398161950299 3.9782794701685136 3.4651994861286823 0 0 0
139 0 1 0 0.9594658301446668 8.528226660069576 2.2065212913286842 0 0 0
141 0 2 0 1.6918587911415324 8.817047809390102 1.5897111670987651 0 0 0
119 0 2 0 1.2948244138178295 9.753057144556827 3.4560371282678997 0 0 0
118 0 1 0 1.3946666700530574 10.631228886668454 3.867300172131763 0 0 0
110 0 2 0 3.5251748478303537 9.185444830755788 0.4612404982885275 0 0 0
120 0 2 0 2.3549801272736555 10.764842670136039 3.9438990467391273 0 0 0
109 0 1 0 2.5646436547341787 9.054677260608686 0.3458404737136225 0 0 0
129 0 2 0 0.9716317057782511 11.801054487198229 2.4949626395424995 0 0 0
140 0 2 0 0.1477062041317374 8.716782100704972 1.6553453750663598 0 0 0
124 0 1 0 4.293804365235569 10.537976726064455 3.6724710063347046 0 0 0
126 0 2 0 4.361271776895598 9.589239539740829 3.7227793223773467 0 0 0
176 0 2 0 6.57877463820408 8.836596968265274 1.9557015389884898 0 0 0
175 0 1 0 7.359016685375666 8.694550253631416 2.5043981361167176 0 0 0
155 0 2 0 7.985476585475103 10.226424542757519 3.3317893656867326 0 0 0
122 0 2 0 4.51442117702125 11.995466066125992 2.308366067245073 0 0 0
142 0 1 0 5.333465382101265 9.106841373873342 0.6309096241392551 0 0 0
156 0 2 0 8.055933428302634 11.751060204696634 3.0605724746995215 0 0 0
154 0 1 0 8.350632571309783 11.05144470682552 3.7398123089948174 0 0 0
147 0 2 0 8.756655347203294 9.478416894935725 1.129654746031143 0 0 0
162 0 2 0 11.144025496904815 9.711697318725596 3.34566110867489 0 0 0
179 0 2 0 11.240599479464256 9.12103908894841 0.758217872037962 0 0 0
160 0 1 0 11.153763554396697 10.70477677415231 3.368609482852355 0 0 0
158 0 2 0 11.537169939828487 11.913941333317585 2.3281827344559645 0 0 0
161 0 2 0 10.283081721504136 10.832269505552201 3.698278069593912 0 0 0
145 0 1 0 9.45109712641922 9.520852465955544 0.4392226199514121 0 0 0
178 0 1 0 12.166341520953761 8.924708700876783 0.5900791623290349 0 0 0
211 0 1 0 14.35466600119715 8.470858370740729 2.396032373053217 0 0 0
212 0 2 0 14.457087226235572 9.115372782571917 3.0522948328335935 0 0 0
213 0 2 0 13.491312379368566 8.592723350847736 1.9908664023298754 0 0 0
183 0 2 0 15.855597329807336 8.927312328512702 1.0988327623666874 0 0 0
190 0 1 0 15.234032192917043 10.722243673389947 3.8428088922476094 0 0 0
191 0 2 0 14.989192510126934 11.316278502229094 3.133751226580739 0 0 0
192 0 2 0 16.179988368024706 10.621052263657049 3.7277960427668226 0 0 0
181 0 1 0 16.108754695875533 9.217672312785268 0.24425889869412742 0 0 0
186 0 2 0 17.91821748986509 8.592349261368227 3.1239825882920327 0 0 0
216 0 2 0 17.95559475005945 9.175095330713116 0.3660659351596709 0 0 0
197 0 2 0 18.08008075945838 11.296463699494582 2.91393285559688 0 0 0
196 0 1 0 17.940384991809022 10.587553322604784 3.5507825444138814 0 0 0
214 0 1 0 18.92351975471627 9.079193156864298 0.3568331701644447 0 0 0
782 0 2 0 1.8726805269027793 12.34750208452883 0.590280707314147 0 0 1
127 0 1 0 0.94872959744963 12.626194245592377 2.058082626066981 0 0 0
249 0 2 0 0.9554807684029043 14.610789302306966 2.604077167664402 0 0 0
221 0 2 0 3.3496123584204227 14.672072376726632 3.9389627822139124 0 0 0
247 0 1 0 1.0095979591015103 15.557979611009067 2.424805873816437 0 0 0
218 0 2 0 2.1437493980580276 15.856022831789994 0.9894650497284634 0 0 0
248 0 2 0 0.2891113454855391 15.804629573659494 1.850262696409462 0 0 0
128 0 2 0 0.045863661696063304 12.77508165719931 1.7743761589147018 0 0 0
123 0 2 0 4.316424447104342 12.339623692535973 0.7670645818765269 0 0 0
220 0 1 0 4.164558093029127 14.834811817357988 3.3641682054766937 0 0 0
222 0 2 0 4.1642060143079345 14.109487753049052 2.704450635264959 0 0 0
121 0 1 0 4.7593029968405 12.629317437455153 1.6199562759778934 0 0 0
165 0 2 0 6.613493983577088 12.463172348404271 1.5058353374613915 0 0 0
163 0 1 0 7.5206860751475295 12.752050238894775 1.7424400541196845 0 0 0
164 0 2 0 7.265605796461052 13.688890336775536 1.7793945255564385 0 0 0
283 0 1 0 7.534285047221648 15.656320279800239 2.220366130233501 0 0 0
285 0 2 0 8.314865278365092 15.801787548601549 1.647487956341794 0 0 0
818 0 2 0 10.279541244202733 12.429922317059207 0.5913189197968529 0 0 1
819 0 2 0 8.754944624577526 12.546555888352465 0.6830252129240637 0 0 1
157 0 1 0 11.845280304212109 12.663545065749876 1.7129197394199969 0 0 0
159 0 2 0 11.588998768326025 13.492412480392804 2.1704437361518827 0 0 0
256 0 1 0 10.77140896941 14.988974853226427 3.0663953223177516 0 0 0
257 0 2 0 11.089157737572785 15.901430941197962 3.1790654853255007 0 0 0
258 0 2 0 9.879546545358103 14.993020199432777 3.4689671709242558 0 0 0
255 0 2 0 10.370603841015535 15.9176021001171 0.317452165212631 0 0 0
855 0 2 0 15.390505567928253 12.230473542483024 0.40935395043040307 0 0 1
199 0 1 0 14.567605803651542 12.521572026560056 1.8322615685550583 0 0 0
200 0 2 0 13.572444723738474 12.571819024088967 1.8184299508780142 0 0 0
201 0 2 0 14.784301528795176 13.471856573272394 1.8286203994499022 0 0 0
319 0 1 0 14.372036940670267 15.191053865928826 1.952439299617924 0 0 0
321 0 2 0 14.460893466938987 15.818447721913222 2.7123222905192885 0 0 0
286 0 1 0 12.023618840129938 15.806725355132258 0.49819792146894204 0 0 0
320 0 2 0 13.515955319546753 15.43725949121413 1.5463473386121853 0 0 0
291 0 2 0 15.704435326226859 15.598338068198252 1.0994298638082114 0 0 0
195 0 2 0 17.47671402236214 12.398953077245995 0.9802688056521787 0 0 0
193 0 1 0 18.23301397135531 12.72419033358381 1.4844917453337079 0 0 0
194 0 2 0 17.96401698444126 13.548932672696159 1.9394444839616278 0 0 0
292 0 1 0 17.609858525100034 14.884369477929978 3.0911972430981827 0 0 0
294 0 2 0 16.78182256595605 14.60598669967013 3.5165689507941464 0 0 0
293 0 2 0 17.547931406740776 15.841176807298128 3.019718141311585 0 0 0
322 0 1 0 18.962889319221322 15.987525134960848 0.6368175957129376 0 0 0
289 0 1 0 16.26954929462908 15.874728061062216 0.3697478544601167 0 0 0
290 0 2 0 17.157562134188225 15.875410340676993 0.7013562024626719 0 0 0
227 0 2 0 1.5983742056236845 16.97608001489784 3.4941546593413952 0 0 0
235 0 1 0 0.5463443180830215 19.5097061431445 1.7840378789750824 0 0 0
236 0 2 0 0.925374049056622 18.96821596927764 2.507331741897371 0 0 0
237 0 2 0 1.1066923536349291 19.25532157198903 1.0492004501204457 0 0 0
226 0 1 0 1.6616513682041192 17.89961029497016 3.665083161680996 0 0 0
228 0 2 0 2.6437659136631964 18.067887315939178 3.789568845236677 0 0 0
891 0 2 0 3.414706298571302 18.846301586209144 0.35202794439093776 0 0 1
251 0 2 0 4.2599735054148775 16.15635676813659 0.7191225768029853 0 0 0
284 0 2 0 6.792022686993508 16.135600376819287 1.7706127237505807 0 0 0
232 0 1 0 4.32438367789945 17.704428966333236 3.504894986673185 0 0 0
234 0 2 0 4.775359953141567 17.98060815458916 2.715478616962454 0 0 0
233 0 2 0 4.367661796768084 16.724136304332095 3.4219358764593686 0 0 0
250 0 1 0 5.213143237304529 16.326690399180116 0.8115937547762584 0 0 0
229 0 1 0 4.810478499760394 19.69809796065114 1.3570891973259476 0 0 0
231 0 2 0 5.753433543325315 19.75766911915492 1.6120255359671918 0 0 0
271 0 1 0 7.423840598333453 19.66762008800894 2.424906593870413 0 0 0
273 0 2 0 7.766576227467945 19.041958755230464 3.1148887789703394 0 0 0
252 0 2 0 5.3684099047215526 17.094537336201086 0.2513133164663045 0 0 0
263 0 2 0 8.155097186510897 16.806607985235985 3.5217123493881313 0 0 0
262 0 1 0 8.45665435462057 17.479301528575593 4.160125061373755 0 0 0
927 0 2 0 8.201948650041967 19.07531721036384 0.9289905490977337 0 0 1
265 0 1 0 11.209612715589799 19.52875594646329 1.4103669461076636 0 0 0
267 0 2 0 10.351286165032613 19.360138480863473 0.9316732249402547 0 0 0
268 0 1 0 11.147488283187958 17.78030345241338 3.542688927427134 0 0 0
269 0 2 0 11.314067828852183 18.259234704863342 2.7347631540506723 0 0 0
264 0 2 0 9.448053142384545 17.491461035720274 4.001864206608795 0 0 0
270 0 2 0 11.87207960972383 17.96934429335633 4.199629580159095 0 0 0
926 0 2 0 8.809639343350515 17.797587770470376 0.16099453414719278 0 0 1
307 0 1 0 13.923086142336249 19.28839716477302 1.8730088516581358 0 0 0
308 0 2 0 12.982314764072823 19.390601488405064 1.8041889795984205 0 0 0
309 0 2 0 13.955124535311048 18.558349602520867 2.5046806954727865 0 0 0
963 0 2 0 15.24853129735712 18.926187495452243 0.6475273616219342 0 0 1
298 0 1 0 14.71775909189716 17.021178575201382 3.8706631907390725 0 0 0
300 0 2 0 15.639988435976136 17.40152595992889 3.885346752969643 0 0 0
301 0 1 0 17.849896746635448 19.262737418330463 1.6229212053153437 0 0 0
302 0 2 0 17.257983392663927 19.011376173181844 0.8939221626379398 0 0 0
303 0 2 0 18.705936587910397 19.508959023722934 1.1950714267599072 0 0 0
306 0 2 0 17.630628661841666 18.246868304216225 2.9645054829675797 0 0 0
304 0 1 0 17.45572473681806 17.5517949785515 3.6411407902423507 0 0 0
22 0 1 0 2.215231675154431 0.6553907114331358 4.821815265718437 0 0 0
23 0 2 0 2.2282134419340935 1.3713028573167487 5.488052824034851 0 0 0
325 0 1 0 2.4628175108480703 2.3542402965958984 6.709183901826729 0 0 0
327 0 2 0 2.2144580435093486 3.2645878460408806 6.4990225238223776 0 0 0
326 0 2 0 3.390910132461203 2.5238641217643756 7.0392926814504 0 0 0
101 0 2 0 0.610627240997192 0.40395848624114294 5.067355970660601 1 0 0
28 0 1 0 6.01550007630934 0.8600532338999365 5.252164587383619 0 0 0
29 0 2 0 6.994294500907465 0.7376528178794689 5.196536228075719 0 0 0
358 0 1 0 5.165803671884354 2.3417068685448075 7.174377628475037 0 0 0
359 0 2 0 5.472592069401005 1.7618260463077178 6.427189534143846 0 0 0
360 0 2 0 5.600706725615153 2.0165673139609575 7.971416617221849 0 0 0
8 0 2 0 5.626630196164786 3.9235523853707637 6.565516456452984 0 0 0
30 0 2 0 5.756660715333853 -0.04091752903750022 5.427637415714349 0 0 0
58 0 1 0 8.845808750173349 0.33745297215841075 4.9492081975930935 0 0 0
59 0 2 0 8.916719361954197 1.188396781026438 5.453452006675735 0 0 0
361 0 1 0 9.18814597720219 2.435318738007434 6.988451462119987 0 0 0
362 0 2 0 10.082839412361762 2.474209178025137 7.390901917741035 0 0 0
363 0 2 0 8.926735929896173 3.3564404133900374 6.78736177837212 0 0 0
394 0 1 0 11.876238957364567 2.4509475434970294 7.119020382931301 0 0 0
66 0 2 0 12.162789011856901 1.257166818539323 5.890008519378551 0 0 0
396 0 2 0 12.19548536377842 3.16341109654653 6.516312820244666 0 0 0
64 0 1 0 12.471429821917127 0.6441285548095206 5.219462926695585 0 0 0
65 0 2 0 13.385509466493213 0.9034753253641852 5.085542017885643 0 0 0
94 0 1 0 15.288292722309338 0.6992906004625076 4.807682014947791 0 0 0
95 0 2 0 15.407796131960863 1.4378610112061172 5.395211445723387 0 0 0
395 0 2 0 12.588303244829174 2.2330699107252268 7.7663163490210625 0 0 0
397 0 1 0 16.078227334984284 2.5512431837123346 6.6829588739242745 0 0 0
100 0 1 0 19.7126021840131 0.4430056562348059 5.454968001718286 0 0 0
398 0 2 0 16.99276215236713 2.238000774005331 6.760304301640582 0 0 0
430 0 1 0 18.856992374978272 2.4200624886551414 7.27284985191321 0 0 0
431 0 2 0 19.226580058424535 1.6904760871702584 6.770155352289046 0 0 0
432 0 2 0 19.046035834014845 3.233271543874643 6.7249103161654356 0 0 0
399 0 2 0 16.089915239720103 3.559002068712104 6.698382610192548 0 0 0
131 0 2 0 2.148607274678593 7.436678767848128 4.4400631784313624 0 0 0
11 0 2 0 0.8587471157193217 4.519369604010642 4.42081903805345 0 0 0
25 0 1 0 2.184146610541298 4.905775521938643 6.757945879370556 0 0 0
26 0 2 0 2.0952256951521417 5.7462307731084294 6.345142542027675 0 0 0
27 0 2 0 2.896176710934554 5.0828704480312625 7.4105521550250515 0 0 0
130 0 1 0 1.7714902409860096 7.226791771393281 5.329035189831142 0 0 0
132 0 2 0 0.8246901424016495 7.419342903320266 5.2872376478493 0 0 0
344 0 2 0 0.8532961916376605 5.39159972772952 8.056103151172954 0 0 0
337 0 1 0 3.975723468164707 6.304157735034425 8.238390216963516 0 0 0
113 0 2 0 4.6023591346940735 7.634522466670867 4.425436971831254 0 0 0
48 0 2 0 7.411609601383947 4.518605237019451 4.897012759456903 0 0 0
9 0 2 0 5.248909903870962 4.615383590625204 5.261175796826235 0 0 0
7 0 1 0 5.854299715022103 4.6907483189204005 6.026179366838142 0 0 0
136 0 1 0 5.906750193276289 7.657362604999737 5.75273368499671 0 0 0
137 0 2 0 5.742066429208759 6.799325419597391 6.181271688909912 0 0 0
138 0 2 0 6.81246448525171 7.547843265808689 5.440107166135361 0 0 0
63 0 2 0 7.915083866429483 5.549720203145822 7.463201943905035 0 0 0
339 0 2 0 4.935802239085198 6.054767350882389 8.173522050460884 0 0 0
47 0 2 0 8.820134986217505 4.248231013416904 4.4356182296553 0 0 0
53 0 2 0 11.41359869123861 4.100749446988381 4.558474311939031 0 0 0
61 0 1 0 8.681517038304934 5.3446893898902434 6.869619165735398 0 0 0
167 0 2 0 8.819613781144488 6.8133332784421 5.669088985899519 0 0 0
62 0 2 0 9.48310866441479 5.387022706510972 7.476673980596826 0 0 0
166 0 1 0 8.704186941923068 7.583448720716314 5.061026855742779 0 0 0
173 0 2 0 11.9273100653627 7.503719059644975 4.832135183859883 0 0 0
44 0 2 0 13.483581319638908 4.186305938859204 4.861484123443098 0 0 0
43 0 1 0 12.873554146021824 4.468392774712288 5.624163886491788 0 0 0
45 0 2 0 12.747117737731898 5.418259097200392 5.560496054111925 0 0 0
172 0 1 0 12.410619940713438 7.211381448193042 5.55485845040517 0 0 0
202 0 1 0 15.1112796854524 7.292357652263342 4.816964472321056 0 0 0
174 0 2 0 13.3538817455666 7.357357953425518 5.2907553232753886 0 0 0
99 0 2 0 15.754917943507225 5.76361367183328 5.937235656849034 0 0 0
416 0 2 0 14.116663898423369 5.575257240934925 7.870076447343002 0 0 0
97 0 1 0 15.71666012629739 5.264277390276597 6.762575615239783 0 0 0
203 0 2 0 15.586999853597089 7.907999029427527 5.389218645912275 0 0 0
81 0 2 0 18.476535394598642 4.489614148715037 4.8451392376571425 0 0 0
79 0 1 0 19.1051751364678 4.756265447299139 5.545732042932823 0 0 0
80 0 2 0 18.974902745694134 5.712166159458655 5.748145466845091 0 0 0
98 0 2 0 16.54426124209477 5.481521910007253 7.260745501063745 0 0 0
208 0 1 0 18.899412529727872 7.4938862011057665 5.579781837908374 0 0 0
209 0 2 0 18.379899892631624 7.631365313568309 4.748200957584171 0 0 0
433 0 1 0 2.3343106910588167 9.214577345579935 7.025402006162975 0 0 0
435 0 2 0 2.2833032046027437 8.347959081864015 6.595839632547177 0 0 0
434 0 2 0 3.27198872340856 9.343349516235783 7.104922316004104 0 0 0
135 0 2 0 2.9379376327245925 11.298636944959162 6.581188255291551 0 0 0
189 0 2 0 0.3442703485243221 11.020599306178113 5.219635541688102 1 0 0
125 0 2 0 4.947787567396975 10.821331173544053 4.368287823542105 0 0 0
468 0 2 0 5.338081277814181 9.074153080981493 6.684947078706758 0 0 0
466 0 1 0 5.161778750946973 9.859409562799843 7.2022827156656355 0 0 0
467 0 2 0 5.433069127508552 10.606351017343307 6.683797813328209 0 0 0
115 0 1 0 6.2501564830896434 11.68714933506028 5.424304743232213 0 0 0
116 0 2 0 6.997806568662338 11.498896705137977 4.817344233913807 0 0 0
500 0 2 0 7.775092787225829 9.039560470060003 8.304496591601875 0 0 0
168 0 2 0 8.817743863165022 8.392920529894264 5.665874425325815 0 0 0
469 0 1 0 9.08141400554436 9.595597143527431 6.889168312418232 0 0 0
471 0 2 0 10.023520979198732 9.587144502956928 7.030351649784416 0 0 0
470 0 2 0 8.80294623379992 10.496989786134403 6.685796078718684 0 0 0
502 0 1 0 11.764309391189693 9.422281592899763 7.074208397349832 0 0 0
503 0 2 0 11.967024584443063 8.661075072966257 6.41218185612942 0 0 0
152 0 2 0 12.334147617887604 11.084562068867056 4.838158139996468 0 0 0
504 0 2 0 12.14835326050224 10.161247400307985 6.564790257173777 0 0 0
507 0 2 0 15.422609006774902 8.729671946538819 7.63476564876288 0 0 0
151 0 1 0 12.969806770968086 11.325718734832083 5.5174288264547275 0 0 0
153 0 2 0 13.843337410844256 10.992245214629916 5.189691676293711 0 0 0
207 0 2 0 15.80389600458962 11.089625138737361 6.3549386647412165 0 0 0
505 0 1 0 15.842754149512793 9.159194148732373 6.897721416039593 0 0 0
537 0 2 0 13.254206711054149 8.857667665238655 8.118130282284099 0 0 0
198 0 2 0 18.45412450584433 10.842261820764636 4.338065113192772 0 0 0
210 0 2 0 18.770913610344085 8.301553207861696 6.14078956862982 0 0 0
506 0 2 0 16.77984163191144 9.349320836216789 7.17940627878118 0 0 0
538 0 1 0 18.600551180739174 9.616294811513605 7.47537419702744 0 0 0
540 0 2 0 18.914564353304876 10.405474665635257 6.998623136467348 0 0 0
187 0 1 0 19.52847678443253 11.292169938692684 5.588340675612301 0 0 0
539 0 2 0 19.314565461909506 9.398450618950854 8.084696235155535 0 0 0
133 0 1 0 2.93507752838829 12.259961008586869 6.811409448388232 0 0 0
134 0 2 0 3.7486753362042182 12.478103435735132 7.330761487414293 0 0 0
238 0 1 0 2.423039580127862 14.318148425842644 5.119230464509405 0 0 0
239 0 2 0 1.4532892962700286 14.154671675096623 5.184802809515557 0 0 0
240 0 2 0 2.7296278103915967 13.659735814946588 5.817477430880263 0 0 0
542 0 2 0 2.6970698270645177 15.48278102615672 6.237285913885617 0 0 0
453 0 2 0 1.1538190342170378 12.343119555964087 7.765645293341088 0 0 0
573 0 2 0 1.74450147876282 15.770211039148437 8.247806584596928 0 0 0
117 0 2 0 6.098192440135375 12.70564593584839 5.343380192288655 0 0 0
246 0 2 0 5.27503602157849 14.613618447626449 4.5517626274686 0 0 0
244 0 1 0 6.050653807711336 14.342574998951712 5.183211689163434 0 0 0
245 0 2 0 6.050825209202305 14.896758285281644 5.999011227347048 0 0 0
276 0 2 0 7.7745159693671555 14.409237189901154 4.9040253502296665 0 0 0
169 0 1 0 9.044915462870893 12.285809583602473 6.647656212978537 0 0 0
489 0 2 0 8.084792076835262 12.549106880679421 8.07807846929308 0 0 0
170 0 2 0 8.972721204387158 12.9851361068549 5.959304921480608 0 0 0
274 0 1 0 8.768333157688001 14.43047209195201 4.896326680361219 0 0 0
171 0 2 0 9.837909947093097 12.504882339645851 7.1002234396798105 0 0 0
275 0 2 0 8.869059248163024 15.111995225368721 5.609901585576667 0 0 0
578 0 2 0 8.913892830782762 15.698532200104527 7.743634951046309 0 0 0
577 0 1 0 9.425157952948952 15.990603526801937 6.9377997693470075 0 0 0
205 0 1 0 15.784345933189176 12.043787950229353 6.58851569284035 0 0 0
281 0 2 0 12.045310813191731 14.286760627636458 4.5256420696674216 0 0 0
612 0 2 0 12.475979623703731 15.52174911625464 6.49532609430253 0 0 0
282 0 2 0 12.615430736965948 13.388432687148315 5.639486029770804 0 0 0
206 0 2 0 15.03295148152919 12.06117614909394 7.211544478777055 0 0 0
280 0 1 0 12.626404549987852 14.269822003736135 5.239590589872012 0 0 0
311 0 2 0 14.625064919954692 14.282746383102952 5.0121572805673695 0 0 0
310 0 1 0 15.58010409685506 14.236589503015823 4.881193280440644 0 0 0
312 0 2 0 15.793695329142468 13.381012669641363 5.3824439549269 0 0 0
645 0 2 0 14.874748809969569 15.674209178098272 8.201160263218204 0 0 0
644 0 2 0 13.360546282118243 15.964015261379362 8.328824045158838 0 0 0
614 0 2 0 16.041117769549363 15.829415423919455 6.251583321817938 0 0 0
318 0 2 0 18.73470125335753 14.385092884312732 4.524680846609065 0 0 0
188 0 2 0 19.649478316347132 12.21457019187704 5.463744586131436 0 0 0
518 0 2 0 17.28511750856393 12.281584281602345 7.596998141897863 0 0 0
316 0 1 0 19.421791835592465 14.048918100123096 5.075279852883876 0 0 0
317 0 2 0 19.23942596323682 14.437165167210802 5.964926136900075 0 0 0
648 0 2 0 19.62973920361465 15.647626072882238 8.000033197964676 0 0 0
646 0 1 0 19.1367202476885 15.640919499512453 7.1481914400504465 0 0 0
647 0 2 0 18.24872489805556 15.952680980241595 7.309967909066559 0 0 0
519 0 2 0 18.695203316162658 12.700895303405343 8.067542982469377 0 0 0
543 0 2 0 3.8206276328553654 16.119327706452307 7.090221564466026 0 0 0
541 0 1 0 2.8755886873119003 16.11159989116686 6.918789412974805 0 0 0
24 0 2 0 2.346415396371042 20.088880637158546 5.406585332188463 0 -1 0
241 0 1 0 2.5512602649201375 19.014057369667828 6.815209274325649 0 0 0
242 0 2 0 2.653896649718715 18.11343768621197 6.460243308512557 0 0 0
243 0 2 0 3.2866499506069173 19.120457064610523 7.468011489413818 0 0 0
560 0 2 0 0.9776295670464477 18.993121181478198 8.168824599178812 0 0 0
297 0 2 0 0.33007827026885184 17.964222659158665 5.082328995827109 1 0 0
575 0 2 0 6.507151369776427 16.06044567161637 7.967126398941014 0 0 0
574 0 1 0 5.791963371373587 16.218425204203445 7.287764745801604 0 0 0
224 0 2 0 5.361419424568154 17.988051573599005 4.73350091032786 0 0 0
223 0 1 0 6.02636449118963 18.255378307538468 5.4813966487370775 0 0 0
225 0 2 0 6.908197210845027 17.871099616304907 5.241185543145862 0 0 0
576 0 2 0 5.8883557787699 17.13465949427207 6.975623966426834 0 0 0
611 0 2 0 11.345624123790284 16.194677031755322 7.31118795879432 0 0 0
60 0 2 0 8.785301505935186 19.885064596144908 5.716368716176676 0 -1 0
278 0 2 0 8.046501671449592 19.130588724842287 7.536063581697513 0 0 0
277 0 1 0 8.828045348463622 18.89242638606064 6.999707224102056 0 0 0
579 0 2 0 9.186689280377328 16.91638585162302 6.8140531735355125 0 0 0
279 0 2 0 9.52030632378225 19.0665670618735 7.66297258046474 0 0 0
610 0 1 0 12.300851077600516 16.305397773586527 7.097554339516266 0 0 0
261 0 2 0 12.730644794179877 17.71390579815799 6.17507587191734 0 0 0
259 0 1 0 13.017474057915702 18.29626258890278 5.431901911710382 0 0 0
299 0 2 0 14.204340540851414 17.431407951596036 4.571685158586489 0 0 0
260 0 2 0 12.876329160411183 19.20857856039632 5.705383878413024 0 0 0
315 0 2 0 15.12193021481324 19.039525149130068 7.370248469963659 0 0 0
314 0 2 0 15.357133205895526 19.527327549136032 5.923897997366977 0 0 0
313 0 1 0 15.698958695785933 18.928812148092717 6.6188961135640465 0 0 0
613 0 1 0 16.415472224499673 16.270080153912943 7.061089797416821 0 0 0
615 0 2 0 16.297574842947313 17.24780561415476 6.94237756102325 0 0 0
305 0 2 0 18.11356410658805 17.820675889811838 4.323870288662512 0 0 0
102 0 2 0 19.565996425272733 19.676977388527355 5.756692038291823 0 -1 0
295 0 1 0 19.795460026551016 17.967625089453872 5.890581181542359 0 0 0
296 0 2 0 19.891234391439856 17.05089119620257 6.266429097927142 0 0 0
627 0 2 0 17.247803911682553 19.609461776944283 7.636358787681849 0 0 0
356 0 2 0 1.6652237914050163 2.1572206243002108 8.386899925142814 0 0 0
357 0 2 0 0.18334919375818765 2.1446376809390713 8.467500673901792 0 0 0
561 0 2 0 0.6547573317204132 0.06916367975880897 8.965797095707856 0 1 0
355 0 1 0 0.9450416786595666 2.010484803165864 9.043814145837807 0 0 0
335 0 2 0 0.8996726846784784 3.372786497563013 10.209506653607225 0 0 0
346 0 1 0 2.3467395476993165 0.34135605542930325 11.808575819330573 0 0 0
347 0 2 0 2.8148917440039583 0.7555837661432517 11.0706684437966 0 0 0
348 0 2 0 1.412708329228603 0.42778098411708687 11.608918066688576 0 0 0
392 0 2 0 7.8979206394355765 2.0019664177654146 8.453133945100078 0 0 0
329 0 2 0 4.005682729166759 2.8110135738603614 10.068128123977596 0 0 0
328 0 1 0 4.123045594081304 1.864555531827441 10.166683783760956 0 0 0
330 0 2 0 5.023151775464788 1.7302797935581167 10.52831363769719 0 0 0
393 0 2 0 7.392878014201431 0.9597447624828663 9.37739705885145 0 0 0
353 0 2 0 6.738491155983057 0.6589918691075143 11.981001704400374 0 0 0
391 0 1 0 7.2008823700966325 1.8817283577459385 9.114511869150972 0 0 0
554 0 2 0 4.150805651820015 -0.0459899334180296 9.390506662887802 0 1 0
372 0 2 0 7.6013549784839745 3.264019854224154 10.243366751237266 0 0 0
352 0 1 0 5.763132140559246 0.6495679743437759 12.10807156480673 0 0 0
382 0 1 0 8.710882741669502 0.9037676068900138 11.951293999788808 0 0 0
366 0 2 0 10.109940819890989 0.6867083433630015 10.641736043663242 0 0 0
364 0 1 0 10.876314397456762 1.1329774396869776 10.314959712623722 0 0 0
378 0 2 0 10.642381664388527 2.7854218080190196 10.429156180743746 0 0 0
365 0 2 0 11.488546296015496 0.9809621937919633 11.070572289351599 0 0 0
383 0 2 0 8.738165206038566 0.054046899746895194 12.416266789589898 0 0 0
376 0 1 0 10.559792909278036 3.7699789110948676 10.552962092197374 0 0 0
429 0 2 0 14.890210748044574 2.414111541389981 8.353649228893058 0 0 0
427 0 1 0 14.152038943639242 2.050844145797594 8.851108235398689 0 0 0
428 0 2 0 14.132956054883564 2.7061832338367324 9.599883404872276 0 0 0
418 0 1 0 15.355425036629464 0.6399313720917659 11.929820706429128 0 0 0
389 0 2 0 13.566195451171193 0.5905399130528959 12.19850385406468 0 0 0
388 0 1 0 12.587793260847626 0.6168269750157345 12.369186948151 0 0 0
632 0 2 0 14.333637168211713 0.3183499199676462 8.973813640324757 0 1 0
400 0 1 0 17.546562333447984 1.3766353899877943 10.66168086746354 0 0 0
401 0 2 0 17.50770418898898 0.9395432292828179 9.805976414316497 0 0 0