LAMMPS (29 Sep 2021 - Update 2)
  using 1 OpenMP thread(s) per MPI task
echo both

include		in.partitions
variable        pid world 0
include		in.temp
variable        temperature equal 250
variable        tempDamp equal 0.100 # this is 0.1 ps
include		in.pressure
variable        pressure equal 2026.5
variable        pressureDamp equal 1.0 #this is 1ps
include		in.seed
variable        seed world 745823

units           metal
atom_style	full
include		in.box
read_data       iceIII.data
Reading data file ...
  orthogonal box = (0.0000000 0.0000000 0.0000000) to (19.991053 19.991053 20.800772)
  1 by 1 by 1 MPI processor grid
  reading atoms ...
  972 atoms
Finding 1-2 1-3 1-4 neighbors ...
  special bond factors lj:    0        0        0       
  special bond factors coul:  0        0        0       
     0 = max # of 1-2 neighbors
     0 = max # of 1-3 neighbors
     0 = max # of 1-4 neighbors
     1 = max # of special neighbors
  special bonds CPU = 0.000 seconds
  read_data CPU = 0.016 seconds
include 	in.setup
variable	out_freq equal 500
variable	out_freq2 equal 500

timestep        0.0005

neigh_modify    delay 7 every 1

include         in.deepmd
# This is deepMD model

# create groups ###
#group ox type 2
#group hy type 1

mass 2 15.999
mass 1 1.008

pair_style      deepmd ../graph.pb
pair_coeff      * *

bond_style      none
angle_style     none
dihedral_style  none
improper_style  none
neigh_modify exclude none


neighbor        2.0 bin
neigh_modify    every 10 delay 0 check no

thermo          ${out_freq}
thermo          500
thermo_style 	custom step temp pe etotal epair emol press lx ly lz xy xz yz vol pxx pyy pzz pxy pxz pyz cella cellb cellc cellalpha cellbeta cellgamma

restart 	${out_freq} restart.lmp.${pid} restart2.lmp.${pid}
restart 	500 restart.lmp.${pid} restart2.lmp.${pid}
restart 	500 restart.lmp.0 restart2.lmp.${pid}
restart 	500 restart.lmp.0 restart2.lmp.0


include         in.dump
dump            myDump all atom ${out_freq2} dump.water.${pid}
dump            myDump all atom 500 dump.water.${pid}
dump            myDump all atom 500 dump.water.0
dump            myDump2 all dcd ${out_freq2} dump.dcd
dump            myDump2 all dcd 500 dump.dcd
dump_modify     myDump append yes
dump_modify     myDump2 append yes


timer           timeout 04:55:00 every 1000
New timer settings: style=normal  mode=nosync  timeout=04:55:00

fix             2 all nph aniso ${pressure} ${pressure} ${pressureDamp}
fix             2 all nph aniso 2026.5 ${pressure} ${pressureDamp}
fix             2 all nph aniso 2026.5 2026.5 ${pressureDamp}
fix             2 all nph aniso 2026.5 2026.5 1
fix             3 all temp/csvr ${temperature} ${temperature} ${tempDamp} ${seed}
fix             3 all temp/csvr 250 ${temperature} ${tempDamp} ${seed}
fix             3 all temp/csvr 250 250 ${tempDamp} ${seed}
fix             3 all temp/csvr 250 250 0.1 ${seed}
fix             3 all temp/csvr 250 250 0.1 745823
velocity 	all create ${temperature} ${seed} dist gaussian
velocity 	all create 250 ${seed} dist gaussian
velocity 	all create 250 745823 dist gaussian

run             400000

CITE-CITE-CITE-CITE-CITE-CITE-CITE-CITE-CITE-CITE-CITE-CITE-CITE

Your simulation uses code contributions which should be cited:

- USER-DEEPMD package:

@article{Wang_ComputPhysCommun_2018_v228_p178,
  author = {Wang, Han and Zhang, Linfeng and Han, Jiequn and E, Weinan},
  doi = {10.1016/j.cpc.2018.03.016},
  url = {https://doi.org/10.1016/j.cpc.2018.03.016},
  year = 2018,
  month = {jul},
  publisher = {Elsevier {BV}},
  volume = 228,
  journal = {Comput. Phys. Commun.},
  title = {{DeePMD-kit: A deep learning package for many-body potential energy representation and molecular dynamics}},
  pages = {178--184}
}

CITE-CITE-CITE-CITE-CITE-CITE-CITE-CITE-CITE-CITE-CITE-CITE-CITE

Neighbor list info ...
  update every 10 steps, delay 0 steps, check no
  max neighbors/atom: 2000, page size: 100000
  master list distance cutoff = 8
  ghost atom cutoff = 8
  binsize = 4, bins = 5 5 6
  1 neighbor lists, perpetual/occasional/extra = 1 0 0
  (1) pair deepmd, perpetual
      attributes: full, newton on
      pair build: full/bin
      stencil: full/bin/3d
      bin: standard
Per MPI rank memory allocation (min/avg/max) = 7.648 | 7.648 | 7.648 Mbytes
Step Temp PotEng TotEng E_pair E_mol Press Lx Ly Lz Xy Xz Yz Volume Pxx Pyy Pzz Pxy Pxz Pyz Cella Cellb Cellc CellAlpha CellBeta CellGamma 
       0          250   -175.65013   -144.27223   -175.65013            0     37550.22    19.991053    19.991053    20.800772            0            0            0    8312.8663    41329.716     41781.31    29539.634    -62.74363   -1049.3293   -446.25346    19.991053    19.991053    20.800772           90           90           90 
     500    245.34154   -163.09876   -132.30555   -163.09876            0   -2257.3742    20.176281    20.082907     20.65265            0            0            0    8368.4201   -2200.8944    -1335.975   -3235.2532   -512.62773   -806.56016   -770.88145    20.176281    20.082907     20.65265           90           90           90 
    1000    255.75079   -161.80452   -129.70483   -161.80452            0    84.051291    20.290774    20.164693    20.434331            0            0            0    8360.8541   -183.19165    440.46052   -5.1149997   -1304.6294   -57.236272   0.79719771    20.290774    20.164693    20.434331           90           90           90 
    1500    243.18706   -161.75376   -131.23096   -161.75376            0    8488.5992    20.313267    20.207262     20.39908            0            0            0    8373.3229    5922.6787    10895.085    8648.0342    1632.6547   -1533.9503   -375.01111    20.313267    20.207262     20.39908           90           90           90 
    2000    243.07762   -159.68146    -129.1724   -159.68146            0   -2554.1445    20.221269    20.163546    20.416008            0            0            0    8324.2697   -2004.9894   -367.27389   -5290.1703    173.17088     782.0248    139.88971    20.221269    20.163546    20.416008           90           90           90 
    2500    255.81958   -160.35164   -128.24332   -160.35164            0    5891.0037    20.102729    20.255726    20.569796            0            0            0    8375.9261    7132.5626    4444.7402    6095.7084    2040.8487     2037.148   -1564.1796    20.102729    20.255726    20.569796           90           90           90 
    3000    247.54192   -159.37612   -128.30674   -159.37612            0    1079.7818    20.129667    20.286938    20.814725            0            0            0     8500.095    2311.6292    73.964722     853.7515    1047.0272   -390.17509    291.41645    20.129667    20.286938    20.814725           90           90           90 
    3500    249.06068   -160.45503   -129.19503   -160.45503            0    2723.1989    20.166524    20.020374    20.676063            0            0            0    8347.7815    5288.0098    411.42127    2470.1656    525.53951    646.68075    4351.7286    20.166524    20.020374    20.676063           90           90           90 
    4000    242.91616   -160.33279   -129.84399   -160.33279            0    2111.1172    20.346828    19.984039     20.56143            0            0            0    8360.5206    199.18473    2336.9414    3797.2253   -77.186235    496.77831    2960.0074    20.346828    19.984039     20.56143           90           90           90 
    4500    248.96002   -161.23697    -129.9896   -161.23697            0    4099.2993    20.300225    20.134002    20.521716            0            0            0    8387.7338    3973.8615    3576.4187    4747.6177    195.97423   -433.12215   -556.27966    20.300225    20.134002    20.521716           90           90           90 
    5000    244.26156   -160.24557   -129.58792   -160.24557            0   -359.13011    20.128495    20.242785    20.564087            0            0            0    8378.9771    465.00338   -2464.4037    922.01002    -11.14199   -910.63695   -2056.2926    20.128495    20.242785    20.564087           90           90           90 
    5500    235.68814   -160.68229    -131.1007   -160.68229            0    3369.0282    20.002703    20.207294    20.516509            0            0            0    8292.7831    3247.6193    3458.2816    3401.1837    1795.7536   -333.13632   -987.76962    20.002703    20.207294    20.516509           90           90           90 
    6000    251.24503   -160.91371   -129.37954   -160.91371            0   -3594.3673    20.180867    20.342976    20.647238            0            0            0    8476.4941   -3022.8828   -4537.7151   -3222.5041   -741.61272   -206.93404   -1746.2375    20.180867    20.342976    20.647238           90           90           90 
    6500    253.41793   -162.15112   -130.34423   -162.15112            0    2876.2022    20.172321    20.088711    20.486072            0            0            0    8301.6923      2282.33    3108.9982    3237.2785   -1403.4915   -910.43428    3139.8781    20.172321    20.088711    20.486072           90           90           90 
    7000    249.67739   -159.59956   -128.26215   -159.59956            0    195.37863    20.363401    20.051439    20.503147            0            0            0     8371.753   -970.72819    1108.4582    448.40586   -808.99357   -1010.8507   -3902.4143    20.363401    20.051439    20.503147           90           90           90 
    7500    258.29953   -160.51999    -128.1004   -160.51999            0    3602.5597    20.290832    20.055895    20.537163            0            0            0    8357.6148     7299.025    3155.6182    353.03597    1586.9105    1340.6183    316.64029    20.290832    20.055895    20.537163           90           90           90 
    8000    259.78871   -162.58865   -129.98215   -162.58865            0    2857.3232    20.114669    20.170853    20.636981            0            0            0    8373.0434     2887.885    3989.1204    1694.9642    247.65837   -4249.1065    3018.6728    20.114669    20.170853    20.636981           90           90           90 
    8500    241.71265   -161.14689   -130.80915   -161.14689            0   -2960.8197    20.055625    20.429492    20.733911            0            0            0    8495.2272   -3033.5462    -6590.321    741.40818    1587.4769    2166.7622   -2451.8565    20.055625    20.429492    20.733911           90           90           90 
    9000    255.76789   -159.93458   -127.83274   -159.93458            0    4676.5829     19.97309    20.234109    20.587421            0            0            0    8320.1526    5308.6295    6393.0869    2328.0323    1645.5733    494.22434   -3882.0467     19.97309    20.234109    20.587421           90           90           90 
    9500    250.50536   -159.48856   -128.04723   -159.48856            0    2422.1005    20.292347    20.054228    20.648406            0            0            0    8402.8142     2353.298    2884.1112    2028.8922    95.468057    1232.2026   -105.95363    20.292347    20.054228    20.648406           90           90           90 
   10000    254.89223   -159.76006   -127.76813   -159.76006            0    386.75531    20.389425    20.126507    20.649524            0            0            0     8473.902    122.27447    206.92959    831.06187    6.2394988    -2519.538   -1606.4192    20.389425    20.126507    20.649524           90           90           90 
   10500    256.19547   -157.92676   -125.77125   -157.92676            0    4059.6615    20.216423    20.141717    20.566939            0            0            0    8374.7234   -763.03458    7849.6576    5092.3615    1126.4723    1171.1894    -246.0919    20.216423    20.141717    20.566939           90           90           90 
   11000    248.52714   -159.33068   -128.13764   -159.33068            0    2568.7835    20.147918    20.154884    20.594609            0            0            0    8363.0372    6830.8189   -3215.1112    4090.6428     524.0724    795.80832    3944.2433    20.147918    20.154884    20.594609           90           90           90 
   11500    242.11613   -159.93992   -129.55153   -159.93992            0   -346.33484    20.255572    20.245824     20.65855            0            0            0    8471.8805   -523.70154   -719.87705    204.57409   -635.79763   -3170.3033   -2110.5542    20.255572    20.245824     20.65855           90           90           90 
   12000    249.77496   -159.52763   -128.17797   -159.52763            0    2219.1379    20.111424    20.241345    20.576182            0            0            0    8376.1987      2400.86    2166.7942    2089.7595    1083.3479    64.166396    1380.8414    20.111424    20.241345    20.576182           90           90           90 
   12500    243.99124    -158.4676   -127.84387    -158.4676            0    1616.4216    20.122736    20.180527    20.656519            0            0            0    8388.3526    2829.5254   -1837.2857    3857.0252    365.08178   -820.34617   -443.63391    20.122736    20.180527    20.656519           90           90           90 
   13000    262.87603   -160.59406   -127.60006   -160.59406            0    653.98622    20.206287    20.159614    20.756214            0            0            0    8455.0635    1418.0494    3471.9069   -2927.9977   -180.17503   -2125.8451    1411.2994    20.206287    20.159614    20.756214           90           90           90 
   13500    258.10564   -162.00635    -129.6111   -162.00635            0    4307.5872    20.227102     20.13895    20.530246            0            0            0    8363.0494    4812.6992    3974.3523    4135.7102    -834.0934   -317.06888    774.59398    20.227102     20.13895    20.530246           90           90           90 
   14000    253.38787   -162.37724   -130.57413   -162.37724            0    2003.3677     20.27813    20.257372     20.24949            0            0            0    8318.1186    2871.1338    1644.1553     1494.814   -724.71965   -480.72078    417.29513     20.27813    20.257372     20.24949           90           90           90 
   14500    241.13714    -161.6415   -131.37599    -161.6415            0    -2874.539    20.294643    20.338901    20.211882            0            0            0    8342.8729   -4291.8646   -3222.4207   -1109.3318   -539.17285   -2088.1559    1036.3389    20.294643    20.338901    20.211882           90           90           90 
   15000    248.11416   -159.79424   -128.65304   -159.79424            0    871.11746    20.192772    20.223588    20.638285            0            0            0    8428.0627    3149.7695   -1060.0919    523.67481   -247.74307    236.33179    501.02189    20.192772    20.223588    20.638285           90           90           90 
   15500    253.62307   -160.91288   -129.08025   -160.91288            0    4347.0454    19.998311    20.076363    20.984455            0            0            0     8425.119    4946.0841    4428.0786    3666.9735    873.76356   -2086.2209   -1558.1752    19.998311    20.076363    20.984455           90           90           90 
   16000    254.78302   -160.57672   -128.59849   -160.57672            0    1476.8907    20.068769    20.179413    20.976593            0            0            0    8495.0161    1224.9786    3279.5365   -73.842874   -2034.7276    1491.4655    1896.8654    20.068769    20.179413    20.976593           90           90           90 
   16500    255.25697   -160.20345   -128.16574   -160.20345            0    3208.5148     20.25972    20.179028    20.603004            0            0            0      8422.95   -194.92324    5247.8281    4572.6396   -1167.5323    1120.8962    1011.2131     20.25972    20.179028    20.603004           90           90           90 
   17000     259.3109   -161.05045   -128.50392   -161.05045            0    2002.7034    20.287066    20.097808    20.305154            0            0            0    8278.9305     640.5446    3093.0756    2274.4898   -1848.0325   -1260.8494   -4004.4753    20.287066    20.097808    20.305154           90           90           90 
   17500    244.28159   -159.63742   -128.97724   -159.63742            0    3389.7453    20.352376    20.246912    20.458898            0            0            0    8430.5546    2181.5915    4037.0308    3950.6137    331.87722    2055.7271    853.42692    20.352376    20.246912    20.458898           90           90           90 
   18000     246.4059   -161.55301   -130.62621   -161.55301            0    6968.1658    20.136552    20.216663    20.567032            0            0            0    8372.7131    9127.9544    7320.5857    4455.9573   -253.57109   -2718.0343   -905.15645    20.136552    20.216663    20.567032           90           90           90 
   18500      252.298   -161.70433   -130.03801   -161.70433            0    2041.7685     20.05568    20.198571    20.677884            0            0            0    8376.5297    2980.9281     1687.052    1457.3252   -341.72539   -211.54384   -712.59322     20.05568    20.198571    20.677884           90           90           90 
   19000    249.33088   -160.84803   -129.55411   -160.84803            0    4795.6908     20.09793    20.218954    20.601726            0            0            0    8371.6994    6541.4576    3514.2584    4331.3565   -62.731886   -103.73841    1774.8906     20.09793    20.218954    20.601726           90           90           90 
   19500      247.006   -160.26257   -129.26045   -160.26257            0    493.40826    20.318824    20.210279     20.48445            0            0            0    8411.9209   -209.95906    388.02992    1302.1539    454.83982   -950.29903    144.21458    20.318824    20.210279     20.48445           90           90           90 
   20000    247.61024   -161.82481   -130.74685   -161.82481            0    4407.2175     20.39103    20.127888    20.385421            0            0            0    8366.7551       2342.6    5809.2953    5069.7573    285.22232   -1626.1491   -1954.2063     20.39103    20.127888    20.385421           90           90           90 
   20500    253.04487   -161.84063   -130.08056   -161.84063            0    2835.3427     20.16128    20.050201    20.467277            0            0            0     8273.645    1366.4434    3375.0063    3764.5784   -283.51174    573.68698   -1670.2467     20.16128    20.050201    20.467277           90           90           90 
   21000    234.17787    -159.8139   -130.42186    -159.8139            0    663.04231    20.137738    20.246202    20.844949            0            0            0    8498.7505    96.024389    2756.6678   -863.56527   -36.961846   -1165.7515   -1197.0988    20.137738    20.246202    20.844949           90           90           90 
   21500    243.77892     -161.872   -131.27491     -161.872            0   -485.57701    20.035051     20.19348    20.792929            0            0            0     8412.349    2286.6986   -3564.4043   -179.02537    600.26983   -1677.7108    265.99605    20.035051     20.19348    20.792929           90           90           90 
   22000    252.34691    -160.9527   -129.28024    -160.9527            0   -582.83676    20.180854    20.173219    20.568746            0            0            0    8373.7995   -2081.6513   -1587.9178    1921.0589    620.69056    2411.3557   -4143.4606    20.180854    20.173219    20.568746           90           90           90 
   22500    254.16997   -161.22756   -129.32628   -161.22756            0    658.08116    20.371717    20.270073    20.469996            0            0            0    8452.8022    1373.7995    1968.4212   -1367.9773   -938.13387    -2541.811    484.48649    20.371717    20.270073    20.469996           90           90           90 
   23000    245.35991   -161.64265   -130.84713   -161.64265            0    5504.6825     20.26577    20.152636    20.404703            0            0            0    8333.4583    2410.1183    7724.1565    6379.7727    764.24566    2881.1357   -2199.5171     20.26577    20.152636    20.404703           90           90           90 
   23500    247.25181   -159.85444   -128.82147   -159.85444            0    3685.7396    20.227586      20.1924    20.586615            0            0            0    8408.4693    2653.9521    5805.1223    2598.1445    461.49512   -2692.4164    14.978865    20.227586      20.1924    20.586615           90           90           90 
   24000    255.99791   -159.35746   -127.22675   -159.35746            0    2383.3843    20.197869    20.185366    20.703824            0            0            0    8440.9776   -345.77253    5589.6606    1906.2647   -1071.7394    354.94571   -1545.3044    20.197869    20.185366    20.703824           90           90           90 
   24500    257.42248   -160.40985   -128.10034   -160.40985            0    4418.6459     20.20097    20.165631    20.672606            0            0            0    8421.3022     5284.862    4985.3586     2985.717    -10.90982    1730.7009    425.84116     20.20097    20.165631    20.672606           90           90           90 
   25000    247.00339   -159.16041   -128.15862   -159.16041            0    1185.4603    20.284619    20.239522      20.5531            0            0            0    8438.0952    3752.3533   -2662.9166    2466.9441    1271.4837   -534.87865    165.03229    20.284619    20.239522      20.5531           90           90           90 
   25500    246.03932   -158.50908   -127.62829   -158.50908            0     5758.002     20.24594    20.235518    20.382933            0            0            0    8350.6245    5176.3377    6509.5262    5588.1421    602.04404    -1885.927   -1307.5832     20.24594    20.235518    20.382933           90           90           90 
   26000    252.11313   -159.35197   -127.70885   -159.35197            0    1556.6202    20.258391    20.162338    20.445306            0            0            0    8351.0186    3740.4839   -1612.9175    2542.2943   -1558.6677   -140.39747     -3221.08    20.258391    20.162338    20.445306           90           90           90 
   26500    243.86764   -160.33333   -129.72511   -160.33333            0    1849.3933    20.328675    20.078116    20.810684            0            0            0    8494.1198    3664.4423    -40.23025     1923.968    578.43678   -347.68646   -310.96904    20.328675    20.078116    20.810684           90           90           90 
   27000    245.56238    -158.1308   -127.30988    -158.1308            0    1298.7889    20.185322     20.05588    21.029296            0            0            0    8513.3825   -153.63265    3546.5316     503.4678   -1400.7957    1957.1942    1959.5978    20.185322     20.05588    21.029296           90           90           90 
   27500    250.86995   -159.95767   -128.47058   -159.95767            0    3206.2228    19.992356    20.083125    20.719045            0            0            0    8318.8826     510.6368    7465.3478    1642.6838   -686.36153    1181.0248     1326.894    19.992356    20.083125    20.719045           90           90           90 
   28000    249.45246   -161.12026   -129.81108   -161.12026            0    4137.7468    20.214177    20.262631    20.444474            0            0            0    8373.9014    10315.978   -1257.5253    3354.7873    4.6188206   -1551.5256   -1261.0689    20.214177    20.262631    20.444474           90           90           90 
   28500    245.35601   -159.14703     -128.352   -159.14703            0    2022.3718    20.428541     20.32674    20.348671            0            0            0    8449.6969   -696.18889    3971.4082    2791.8961   -1772.7422    2842.5751    3046.8375    20.428541     20.32674    20.348671           90           90           90 
   29000    254.07249   -160.53864    -128.6496   -160.53864            0    2008.2446    20.271151    20.214438    20.353307            0            0            0    8340.1732   -2553.4854    3780.1228    4798.0966    528.55702   -1404.5899   -597.54224    20.271151    20.214438    20.353307           90           90           90 
   29500    250.57909   -159.33407   -127.88348   -159.33407            0    3459.1362    20.117948     20.16092    20.581681            0            0            0    8347.8543    2263.0584    5191.7929    2922.5572   -579.61823    3600.5913    2531.2603    20.117948     20.16092    20.581681           90           90           90 
   30000    258.51878   -158.37317   -125.92607   -158.37317            0    378.64783    20.248963    20.189934    20.825312            0            0            0    8513.9133   -1132.0811    3079.7329    -811.7083    1647.9734   -125.08424   -76.815114    20.248963    20.189934    20.825312           90           90           90 
   30500    258.67503   -160.33248   -127.86576   -160.33248            0    1760.4226    20.246257    20.117543    20.776756            0            0            0    8462.4756    1489.8598    2210.2467    1581.1613   -270.29834    67.571208   -122.12318    20.246257    20.117543    20.776756           90           90           90 
   31000    255.39698   -158.86398   -126.80869   -158.86398            0     5496.389    20.114788    20.126921    20.517935            0            0            0    8306.6605    5760.1504    4017.2052    6711.8113   -180.11045    940.30605    1611.7089    20.114788    20.126921    20.517935           90           90           90 
   31500    254.88078   -160.29327   -128.30278   -160.29327            0    2630.1194    20.181409    20.355263    20.415305            0            0            0    8386.5646   -457.03388    4011.5195    4335.8725   -104.23539   -513.93444   -1936.6477    20.181409    20.355263    20.415305           90           90           90 
   32000    251.02912   -161.02364   -129.51658   -161.02364            0    3796.1205    20.248489    20.289921    20.455556            0            0            0    8403.9655    2682.5699    5968.2147    2737.5768    -406.3569   -595.97933   -759.93611    20.248489    20.289921    20.455556           90           90           90 
   32500    259.77054   -161.06028   -128.45606   -161.06028            0    1068.8126    20.239481    20.122082    20.688428            0            0            0    8425.5797   -289.24361    8.4796306    3487.2019    773.11699    3583.5582   -170.55429    20.239481    20.122082    20.688428           90           90           90 
   33000     257.9014   -160.52781    -128.1582   -160.52781            0    4118.0751     20.14304    20.073748    20.827896            0            0            0    8421.6827    2701.1792    4520.9482    5132.0979    968.49056   -1560.2434   -537.86381     20.14304    20.073748    20.827896           90           90           90 
   33500    253.50612   -160.92356    -129.1056   -160.92356            0    1044.1206    20.156182    20.227445    20.740695            0            0            0    8456.1484    4305.4461   -1739.6752    566.59084    345.02825    522.18267   -927.60214    20.156182    20.227445    20.740695           90           90           90 
   34000    243.78178   -161.58099   -130.98355   -161.58099            0    3143.9545    20.231536    20.322521    20.454081            0            0            0    8409.8141   -1359.2036    4560.6326    6230.4345     445.6304   -1365.6539   -1110.7465    20.231536    20.322521    20.454081           90           90           90 
   34500    237.23475   -161.41592    -131.6402   -161.41592            0    1060.9027    20.203271    20.244992    20.378298            0            0            0    8335.0309   -1907.0535    1218.8181    3870.9435    -783.7968     1190.187    218.76916    20.203271    20.244992    20.378298           90           90           90 
   35000    238.35268   -162.06229   -132.14626   -162.06229            0    5203.7423    20.216657    20.187708    20.498987            0            0            0    8366.2098    6666.5073    4098.3855    4846.3341   -95.497955    2327.5389    1466.3814    20.216657    20.187708    20.498987           90           90           90 
   35500    240.89617   -160.87799   -130.64272   -160.87799            0     2415.777    20.233337    20.144953    20.658505            0            0            0    8420.3984    2067.9595    4426.3772    752.99423    936.42182    1972.7209    139.82945    20.233337    20.144953    20.658505           90           90           90 
   36000    251.60614   -161.21903   -129.63954   -161.21903            0    2598.9164    20.191651    20.135211    20.757122            0            0            0    8439.0812     5163.742    1741.0028    892.00444    183.94973    530.45489   -475.19506    20.191651    20.135211    20.757122           90           90           90 
   36500    250.71732   -160.50853    -129.0406   -160.50853            0    -636.1021    20.142812    20.108955    20.614342            0            0            0     8349.858    1776.8951    -3101.011   -584.19039    1268.1349    693.81522   -1036.5781    20.142812    20.108955    20.614342           90           90           90 
   37000    241.67741   -159.66111    -129.3278   -159.66111            0    3110.8055     20.31731    20.302522    20.445548            0            0            0    8433.6379    2226.6553    3763.5007    3342.2606   -131.61215    631.87333   -1633.9187     20.31731    20.302522    20.445548           90           90           90 
   37500    249.25811   -161.07702   -129.79223   -161.07702            0    2800.9863    20.253088     20.32118    20.207613            0            0            0    8316.7797    2329.0027      3477.01    2596.9463    3669.5179   -1424.4768   -2727.7129    20.253088     20.32118    20.207613           90           90           90 
   38000    254.81908    -160.1742   -128.19145    -160.1742            0   -3611.1509    20.264674      20.2278    20.489739            0            0            0    8398.9442   -3753.4838   -3879.7668   -3200.2021   -284.45323   -1293.2737    41.267758    20.264674      20.2278    20.489739           90           90           90 
   38500    253.43355   -160.24575    -128.4369   -160.24575            0    1692.1847     20.21554    19.935957    20.849924            0            0            0     8402.856    1694.8764    2066.7422    1314.9356    583.35068   -1751.5574    1763.0135     20.21554    19.935957    20.849924           90           90           90 
   39000    241.22335   -160.03827   -129.76194   -160.03827            0    804.72112    20.103387    19.879195    20.969578            0            0            0    8380.2645    704.08084    2823.1699   -1113.0874   -198.53691    5348.4655   -3661.4429    20.103387    19.879195    20.969578           90           90           90 
   39500    248.04554   -159.68077   -128.54818   -159.68077            0    2488.9217    20.144985    20.195812    20.757141            0            0            0     8444.925    3799.9974    2835.7486    831.01905    2489.6844     781.1833    9.7109115    20.144985    20.195812    20.757141           90           90           90 
   40000    260.85517   -161.84761   -129.10726   -161.84761            0    3035.6629    20.184318    20.342858    20.441651            0            0            0    8393.4789     1997.501    5872.1701    1237.3175    -994.7865   -1200.6317    404.66673    20.184318    20.342858    20.441651           90           90           90 
   40500    248.88067   -161.24443   -130.00702   -161.24443            0    3807.1836    20.219282    20.263007    20.343131            0            0            0    8334.6513    1895.1474    3358.4812    6167.9222    1127.2026   -21.056073    1708.6505    20.219282    20.263007    20.343131           90           90           90 
   41000     248.0684   -161.20932   -130.07386   -161.20932            0   -236.36685    20.245853    20.187973    20.516485            0            0            0    8385.5537   -1073.1345    1727.9397   -1363.9057   -690.88702   -1292.5089   -1206.1231    20.245853    20.187973    20.516485           90           90           90 
   41500    242.53342   -158.89313   -128.45237   -158.89313            0    1034.0738    20.207587    20.094471    20.640064            0            0            0    8381.1203   -3514.2499    5437.2824    1179.1889    -1272.547   -1072.6294   -848.33842    20.207587    20.094471    20.640064           90           90           90 
   42000    248.86429   -160.15902   -128.92366   -160.15902            0    2317.9063    20.217133    19.986448    20.703901            0            0            0    8365.7979    3959.5272      1376.38    1617.8116    1920.1023    2661.4321    445.03942    20.217133    19.986448    20.703901           90           90           90 
   42500    251.04286   -159.36936   -127.86057   -159.36936            0   -1604.7318    20.313368    20.027256    20.705047            0            0            0    8423.2482   -3851.8495   -1085.3333    122.98726   -1541.6722    2100.5654     2702.648    20.313368    20.027256    20.705047           90           90           90 
   43000    247.95428   -159.41298   -128.29184   -159.41298            0    1657.2162    20.236366    20.262824     20.52332            0            0            0    8415.5035    3054.7679    422.93981    1493.9409   -499.03998   -207.06411   -145.81561    20.236366    20.262824     20.52332           90           90           90 
   43500    258.96195   -161.58474   -129.08201   -161.58474            0    3104.9707    20.111029     20.42816    20.389154            0            0            0    8376.5031      4995.32    1472.4039    2847.1882   -1903.8685   -1207.2856   -731.87232    20.111029     20.42816    20.389154           90           90           90 
   44000    252.73156   -160.65435   -128.93361   -160.65435            0    3639.5883    20.174641    20.285028    20.413624            0            0            0     8354.136    5108.3638    2990.7727    2819.6284      438.177   -1231.5766   -417.16153    20.174641    20.285028    20.413624           90           90           90 
   44500    247.43983   -160.34402   -129.28746   -160.34402            0    4421.0672    20.323865    20.051658    20.657194            0            0            0    8418.3685      2822.68    4998.0101    5442.5113   -968.07064   -141.07188    -1522.676    20.323865    20.051658    20.657194           90           90           90 
   45000     236.1571   -160.82025   -131.17979   -160.82025            0    3858.0412    20.250094    19.941382    20.847809            0            0            0    8418.6549    4100.0322    1828.5811    5645.5105   -89.365753   -233.59445   -1224.9981    20.250094    19.941382    20.847809           90           90           90 
   45500    243.51591     -160.666   -130.10193     -160.666            0    3392.7009    20.021469    20.128111    20.774166            0            0            0    8371.8717    5204.6594    722.56489    4250.8784   -109.92068   -467.14227    -233.7047    20.021469    20.128111    20.774166           90           90           90 
   46000     238.7629   -159.95592   -129.98841   -159.95592            0    775.21248    20.072199    20.357986     20.50233            0            0            0    8377.8577    1623.3301   -185.37667    887.68395     1215.807   -745.71874   -635.24778    20.072199    20.357986     20.50233           90           90           90 
   46500    243.65015   -159.86464   -129.28372   -159.86464            0    3774.3105    20.334388    20.346682    20.352801            0            0            0     8420.713    4595.8186    1984.9455    4742.1675   -1119.2139    3124.8108   -219.05205    20.334388    20.346682    20.352801           90           90           90 
   47000    247.38297    -159.8686   -128.81916    -159.8686            0    1094.3954     20.32031    20.155427     20.45848            0            0            0    8379.0678    1602.2553    1867.8036   -186.87269    788.31327   -786.77929   -774.85691     20.32031    20.155427     20.45848           90           90           90 
   47500    257.01444   -160.09986   -127.84157   -160.09986            0    2691.8422    20.159819    20.168327    20.649018            0            0            0    8395.6806    3077.0956    1958.5902    3039.8408    -580.0964    40.776759    65.260589    20.159819    20.168327    20.649018           90           90           90 
   48000    251.72475   -159.79673   -128.20236   -159.79673            0    1839.4396    20.128534    20.209282    20.715358            0            0            0    8426.6598   -893.78689    2903.6899    3508.4157   -727.01391    1241.3955    1662.0951    20.128534    20.209282    20.715358           90           90           90 
   48500     243.1975   -159.27192   -128.74781   -159.27192            0    470.82023    20.226739    20.124698    20.603408            0            0            0    8386.7619   -1311.9479    371.24416    2353.1644   -1149.6731    -2118.106     -990.306    20.226739    20.124698    20.603408           90           90           90 
   49000     252.5674   -158.59565   -126.89551   -158.59565            0    2332.5356    20.297667    20.147128    20.526464            0            0            0    8394.0859    4360.8184    1657.6099    979.17841   -18.028075   -3515.1816   -2681.6891    20.297667    20.147128    20.526464           90           90           90 
   49500    256.66585   -157.03745   -124.82291   -157.03745            0    2002.5017    20.244941    20.250727    20.570774            0            0            0    8433.4983     1047.712    655.35214    4304.4411    335.50885   -1962.9894    1804.8988    20.244941    20.250727    20.570774           90           90           90 
   50000    260.07862   -159.57298   -126.93009   -159.57298            0    2179.8698    20.125821    20.362812    20.615488            0            0            0    8448.6042    750.24543     2099.646     3689.718   -3022.2206   -272.62393    107.28961    20.125821    20.362812    20.615488           90           90           90 
   50500    260.38912   -161.42196    -128.7401   -161.42196            0    5551.3718    20.124723    20.189149    20.573361            0            0            0    8358.9777    3155.7234    7642.2561    5856.1359   -847.01262   -552.96102    3349.8418    20.124723    20.189149    20.573361           90           90           90 
   51000    253.86961    -159.5769   -127.71332    -159.5769            0    1365.5149    20.328765    20.033058    20.640306            0            0            0      8405.71    3636.9482    1207.8673    -748.2707   -841.14041     237.0032   -996.27503    20.328765    20.033058    20.640306           90           90           90 
   51500    245.14971   -159.77881   -129.00968   -159.77881            0   -731.21871    20.415597    20.045464    20.639302            0            0            0    8446.4304   -1080.8882   -188.62326   -924.14466   -33.840519   -543.98609    273.29651    20.415597    20.045464    20.639302           90           90           90 
   52000    247.11142   -161.80441   -130.78906   -161.80441            0    3661.5082    20.270299    20.184834    20.465677            0            0            0    8373.5853    3473.8699    3758.7122    3751.9425   -895.31545   -3714.6411   -762.39652    20.270299    20.184834    20.465677           90           90           90 
   52500    249.90498   -159.52496   -128.15898   -159.52496            0    1875.8755     20.10532    20.394543    20.484424            0            0            0    8399.4091    210.42257    3053.7941    2363.4098    291.30527    2030.5335   -121.81776     20.10532    20.394543    20.484424           90           90           90 
   53000     257.6119   -162.14925   -129.81596   -162.14925            0    1669.7012    20.044616    20.291457    20.598412            0            0            0    8378.0836    1284.3596     1028.573    2696.1712    757.32718   -1584.0103   -269.17425    20.044616    20.291457    20.598412           90           90           90 
   53500    254.79201   -160.80034   -128.82099   -160.80034            0   -363.39185    20.266385    20.142361    20.828008            0            0            0    8502.2606   -1401.6076    2960.9227   -2649.4906   -675.08392   -1303.0672    2558.5783    20.266385    20.142361    20.828008           90           90           90 
   54000    260.33781   -160.63108   -127.95566   -160.63108            0    2160.1449    20.229724    20.020788    20.746866            0            0            0     8402.792    1344.7673    1340.6537    3795.0137   -128.06159    410.03485    -1477.035    20.229724    20.020788    20.746866           90           90           90 
   54500    236.02185   -160.53652   -130.91304   -160.53652            0   -339.86339    20.167025     20.18412    20.603055            0            0            0    8386.5488   -2209.7412    627.37831    562.77272   -417.73884    1034.4148    319.63954    20.167025     20.18412    20.603055           90           90           90 
   55000    239.51427   -159.22018   -129.15836   -159.22018            0    1996.1477    20.153378    20.266027    20.409615            0            0            0    8335.8769    2250.1654     1135.536    2602.7416    87.830839   -1252.6364    1301.2961    20.153378    20.266027    20.409615           90           90           90 
   55500    248.91137   -162.05251   -130.81125   -162.05251            0    866.20292    20.373405    20.198997    20.417839            0            0            0    8402.3972    4126.7548   -1565.3029    37.156843   -1634.3395     1163.831   -646.47633    20.373405    20.198997    20.417839           90           90           90 
   56000     256.8013   -159.80255   -127.57101   -159.80255            0    1943.8608    20.388541     20.12494    20.667323            0            0            0    8480.1782    3904.5646    1287.7056    639.31201   -946.30784    1126.9272    2042.9096    20.388541     20.12494    20.667323           90           90           90 
   56500    255.32169   -160.15918   -128.11334   -160.15918            0    2186.6424    20.040556     20.10309    20.750753            0            0            0    8360.0032    3166.1994    1054.3126    2339.4152   -627.18716     850.6164   -2611.3082    20.040556     20.10309    20.750753           90           90           90 
   57000    251.15866   -160.40483   -128.88151   -160.40483            0    84.292647    19.991869    20.305272    20.769405            0            0            0    8431.1395     4260.813   -876.02595   -3131.9091   -938.53067   -220.96963    3511.1192    19.991869    20.305272    20.769405           90           90           90 
   57500      247.478   -160.50129   -129.43993   -160.50129            0    2398.6083    20.248649    20.294516    20.524715            0            0            0    8434.3551    2547.9311   -2101.6221    6749.5159    2193.0458    1704.8662    753.18376    20.248649    20.294516    20.524715           90           90           90 
   58000    251.22654   -160.70808   -129.17623   -160.70808            0    3390.2477    20.423182    20.148363    20.338499            0            0            0    8369.1639    380.27249    6765.0897     3025.381    1084.4052   -460.59035    3177.6447    20.423182    20.148363    20.338499           90           90           90 
   58500    247.09556   -160.10925   -129.09589   -160.10925            0    4163.8276    20.346721    20.097031    20.410197            0            0            0    8345.9066    3497.2755    2594.1839    6400.0235   -591.51339   -472.55943   -2079.9359    20.346721    20.097031    20.410197           90           90           90 
   59000     250.7384   -159.32862   -127.85804   -159.32862            0    3049.9419    20.191311     20.22829    20.694817            0            0            0     8452.502    669.28333    4428.4269    4052.1153   -357.68851    1182.3377    793.52306    20.191311     20.22829    20.694817           90           90           90 
   59500    252.54474   -159.91699   -128.21969   -159.91699            0   -321.27296    20.101388    20.168476    20.836715            0            0            0    8447.5031    130.38702    -1423.887    329.68107    2499.1555    -348.1114    451.47431    20.101388    20.168476    20.836715           90           90           90 
   60000    244.21629   -160.38605   -129.73407   -160.38605            0     463.5488    20.222974    20.029165     20.79366            0            0            0     8422.457    -388.4277    763.39015     1015.684   -904.19734   -358.64789    1267.2485    20.222974    20.029165     20.79366           90           90           90 
   60500    243.45747   -159.99047   -129.43373   -159.99047            0    3434.3588    20.364434    20.104383    20.634879            0            0            0    8448.2161    2887.6614    3351.6884    4063.7266    892.16148      401.217    167.77432    20.364434    20.104383    20.634879           90           90           90 
   61000    252.25826   -160.36972   -128.70838   -160.36972            0    3784.0232    20.237643    20.257901    20.416064            0            0            0    8370.0179   -145.12292    7635.4569    3861.7356   -973.21069     3662.733   -612.57641    20.237643    20.257901    20.416064           90           90           90 
   61500    252.53715   -160.13985    -128.4435   -160.13985            0    4244.6635    20.183433    20.403246    20.395129            0            0            0    8398.8684     2810.174    3932.3813    5991.4353    1559.7732   -371.18717   -195.16669    20.183433    20.403246    20.395129           90           90           90 
   62000    252.97069   -159.50422   -127.75346   -159.50422            0    2575.8427    20.188371    20.228625    20.540659            0            0            0    8388.4556    2322.9452    3286.7185    2117.8645   -1614.1183    817.09678   -1425.3478    20.188371    20.228625    20.540659           90           90           90 
   62500    246.65637   -159.93064   -128.97241   -159.93064            0    2495.5789    20.324575    19.972077    20.827332            0            0            0    8454.3137   -1002.9741    6042.5732    2447.1377    1354.4574   -832.79835    468.75586    20.324575    19.972077    20.827332           90           90           90 
   63000    261.26857   -159.18659   -126.39436   -159.18659            0    3147.1978    20.259872    20.010462    20.946965            0            0            0    8492.0965    3087.4939    2260.5956    4093.5041   -796.88466    757.67088    1060.5205    20.259872    20.010462    20.946965           90           90           90 
   63500    251.57057   -160.95948   -129.38446   -160.95948            0    4450.0972    20.139701    20.259848    20.818458            0            0            0    8494.4987    5937.7594    1420.9421      5991.59    1378.7379    1248.7518   -2117.8449    20.139701    20.259848    20.818458           90           90           90 
   64000    256.92914   -159.42763   -127.18005   -159.42763            0    1182.3618    20.103179    20.197093    20.517763            0            0            0    8330.7409    1900.7074    737.96827    908.40961    364.96958    133.99974    647.93259    20.103179    20.197093    20.517763           90           90           90 
   64500    253.08718   -160.27953   -128.51416   -160.27953            0    2470.2178    20.374746    20.171778     20.45225            0            0            0    8405.7696    3364.7299    909.28508    3136.6384    453.88315    1393.2178   -1530.8589    20.374746    20.171778     20.45225           90           90           90 
   65000    238.22794   -161.19017    -131.2898   -161.19017            0    5026.3289    20.351594    20.242396    20.481147            0            0            0    8437.5165    3311.3516    5640.3614    6127.2736    320.65236   -2289.4197   -1407.2288    20.351594    20.242396    20.481147           90           90           90 
   65500    245.23213   -160.80876   -130.02929   -160.80876            0    4206.1031    20.057976    20.303346    20.626786            0            0            0    8400.1352    2991.3266    4738.0858    4888.8968   -654.89678    774.98255    474.32499    20.057976    20.303346    20.626786           90           90           90 
   66000    257.48503   -158.84071   -126.52335   -158.84071            0    2705.3117    20.013724    20.288997    20.766557            0            0            0    8432.4349    8894.7379   -2189.5516    1410.7487    324.97902    2258.4863   -2743.5172    20.013724    20.288997    20.766557           90           90           90 
   66500    252.85132   -159.64561   -127.90983   -159.64561            0    1458.5702    20.246784    20.124329    20.754864            0            0            0    8456.6305    3653.1174     28.39614    694.19708   -292.21337    1143.0138   -1539.0512    20.246784    20.124329    20.754864           90           90           90 
   67000     247.0561   -160.80331   -129.79491   -160.80331            0   -576.57726    20.354689    20.123352    20.758531            0            0            0    8502.7893   -1502.0205   -1598.1051    1370.3938   -537.98362   -29.279406    1694.8045    20.354689    20.123352    20.758531           90           90           90 
   67500    249.18839   -160.45708   -129.18105   -160.45708            0    1116.4611      20.2267    20.109951    20.721632            0            0            0    8428.6881    2930.0109    313.71406    105.65825     619.7211    1070.8261   -8.1884863      20.2267    20.109951    20.721632           90           90           90 
   68000    246.92248   -160.49623   -129.50459   -160.49623            0     1717.306    20.154095    20.177124    20.687946            0            0            0    8412.7877    4865.8449    238.93306    47.140184    -274.3105   -418.28003   -1315.8287    20.154095    20.177124    20.687946           90           90           90 
   68500    259.14877   -160.72596   -128.19978   -160.72596            0   -764.88659    20.213287    20.170828    20.611092            0            0            0    8403.5286    665.69885   -4797.6784    1837.3198    545.60217    1929.9939   -1341.5131    20.213287    20.170828    20.611092           90           90           90 
   69000     239.2127   -159.90636   -129.88239   -159.90636            0    1681.7599    20.331132    20.178817    20.563396            0            0            0    8436.3019    3971.1287    1208.1685   -134.01747    222.54908   -1907.1026   -810.30198    20.331132    20.178817    20.563396           90           90           90 
   69500    246.47888     -161.039   -130.10304     -161.039            0    3183.5376    20.232012    20.160792    20.536515            0            0            0    8376.7088    1292.1382     4960.067    3298.4077    -164.3976   -280.76645    1159.0051    20.232012    20.160792    20.536515           90           90           90 
   70000    248.43431   -160.76487   -129.58348   -160.76487            0    1502.8323    20.014891    20.229294    20.618691            0            0            0    8348.2422     2524.249    1196.5438    787.70416   -179.71533     2719.919    1006.5153    20.014891    20.229294    20.618691           90           90           90 
   70500    252.99123   -161.71846   -129.96512   -161.71846            0    3241.7341    20.136111    20.263624    20.747518            0            0            0     8465.622    3778.0131     4543.527    1403.6622   -1086.0864     395.3514    -1553.288    20.136111    20.263624    20.747518           90           90           90 
   71000     246.2527   -160.53191   -129.62434   -160.53191            0    3327.7679    20.334229    20.092672    20.628493            0            0            0    8428.1624    4655.1948    4138.7491    1189.3598   -456.65179    760.38928    686.73489    20.334229    20.092672    20.628493           90           90           90 
   71500     254.8334     -160.695   -128.71046     -160.695            0    1511.6849    20.443086    19.952289    20.534057            0            0            0    8375.5616     2349.035   -85.832647    2271.8523    48.452681    2263.2619   -1904.2772    20.443086    19.952289    20.534057           90           90           90 
   72000    252.24356   -158.58264   -126.92315   -158.58264            0    5693.3209    20.259899    20.100426    20.547118            0            0            0    8367.4563     4443.039    7736.0492    4900.8745    220.81791    3557.9925    2306.1385    20.259899    20.100426    20.547118           90           90           90 
   72500    258.18914   -160.50054   -128.09481   -160.50054            0    900.86148    20.137536    20.470274    20.728925            0            0            0    8544.8957    2528.7671    -375.8999    549.71727   -351.17341   -3128.4021    547.11493    20.137536    20.470274    20.728925           90           90           90 
   73000    242.54698    -159.8228   -129.38034    -159.8228            0    4912.0038    19.977441    20.313201    20.728131            0            0            0    8411.5952    2715.8897    6944.2984    5075.8234    1108.4863    455.06353    -277.9699    19.977441    20.313201    20.728131           90           90           90 
   73500    258.21946   -161.12279   -128.71325   -161.12279            0    1949.9808    20.103857    20.073414    20.717105            0            0            0    8360.4505   -1987.4946    5099.4998    2737.9372   -106.64456    1230.6429   -2079.1153    20.103857    20.073414    20.717105           90           90           90 
   74000      245.776   -160.70784   -129.86011   -160.70784            0    3105.6564    20.370463     20.16837    20.660229            0            0            0    8488.0287    4758.1403    712.78465    3846.0444   -753.59935   -2305.9993    174.88028    20.370463     20.16837    20.660229           90           90           90 
   74500    253.59379   -161.23421   -129.40525   -161.23421            0    1032.8893    20.289794     20.19888    20.520063            0            0            0    8409.7601    3810.7562   -1854.8249    1142.7365   -616.46777    413.58826    2732.5312    20.289794     20.19888    20.520063           90           90           90 
   75000    254.61923   -159.89483   -127.93717   -159.89483            0    2608.0977    20.176766     20.17366    20.606003            0            0            0    8387.4512    2890.3526    4263.5995    670.34119   -378.66385   -1560.2632   -3029.4127    20.176766     20.17366    20.606003           90           90           90 
   75500    255.47867   -161.95386   -129.88833   -161.95386            0    2073.9484    20.224979    20.186524    20.774732            0            0            0    8481.7419    2757.1098     1014.142    2450.5933    360.95156    561.21314    10.712704    20.224979    20.186524    20.774732           90           90           90 
   76000     245.9139   -159.75226   -128.88721   -159.75226            0    4805.8224    20.117118    20.126235    20.645577            0            0            0    8359.0195    4387.1245    4489.7778    5540.5647   -1530.1002    2350.0231    266.86282    20.117118    20.126235    20.645577           90           90           90 
   76500    234.74982    -161.7652   -132.30138    -161.7652            0    1350.0789    20.172617    20.393946    20.480746            0            0            0    8425.7637    3502.5652   -3899.4669    4447.1384    244.69104    1027.0633    447.98656    20.172617    20.393946    20.480746           90           90           90 
   77000    236.75098   -161.80777   -132.09278   -161.80777            0    2649.5986    20.209551    20.462994    20.296971            0            0            0    8393.7702    2344.3548    2717.8886    2886.5523   -116.51077    177.43672    1267.1633    20.209551    20.462994    20.296971           90           90           90 
   77500    241.37851    -159.6388   -129.34299    -159.6388            0    1659.2066    20.264064    20.113552    20.387905            0            0            0    8309.7495     1575.671    663.11364    2738.8352    103.03445    2763.9336   -1897.9026    20.264064    20.113552    20.387905           90           90           90 
   78000    264.38967   -159.06549   -125.88152   -159.06549            0    6817.2336     20.38293    19.966177    20.769642            0            0            0    8452.6042    7621.1565    8544.8897    4285.6545    637.61734     344.7781    1445.2531     20.38293    19.966177    20.769642           90           90           90 
   78500    245.33837   -161.20837   -130.41556   -161.20837            0    606.43634    20.238851    20.072204    20.984882            0            0            0    8524.8636    972.36102    948.64247   -101.69446    687.06675   -1376.4871   -1780.8406    20.238851    20.072204    20.984882           90           90           90 
   79000    247.43773   -161.08347   -130.02717   -161.08347            0     5254.035    20.039777    20.139416    20.738719            0            0            0    8369.9272    10860.641    1292.4789    3608.9848   -72.041824   -789.82644    3474.4127    20.039777    20.139416    20.738719           90           90           90 
   79500     244.3143   -159.10569   -128.44141   -159.10569            0     5882.439    20.117365    20.189376    20.437303            0            0            0    8300.7546     4820.411    8404.7827    4422.1235   -1166.5062    2965.8809   -1251.0974    20.117365    20.189376    20.437303           90           90           90 
   80000    248.24564   -159.15217   -127.99447   -159.15217            0    3803.7472    20.356874    20.347378    20.531043            0            0            0    8504.1433   -571.94483    7036.8642    4946.3223    618.93296    731.16419    4087.3753    20.356874    20.347378    20.531043           90           90           90 
   80500    252.36215   -160.31253   -128.63815   -160.31253            0    873.19057    20.214889    20.222092    20.526741            0            0            0    8391.0721   -1933.9558    2053.1499    2500.3776    201.56922    49.326522     929.0109    20.214889    20.222092    20.526741           90           90           90 
   81000    259.01715   -161.86576    -129.3561   -161.86576            0    2239.7728    20.092204    20.147694    20.611142            0            0            0     8343.629    1125.1635    4496.6183    1097.5367   -61.292985    1496.1837    2372.2786    20.092204    20.147694    20.611142           90           90           90 
   81500     248.1265   -160.80559   -129.66283   -160.80559            0    1771.1199    20.205481    20.122302    20.779409            0            0            0    8448.5087    148.63546    2339.1594     2825.565      -288.21    1080.0705    4446.7154    20.205481    20.122302    20.779409           90           90           90 
   82000    252.35289    -161.7278   -130.05459    -161.7278            0    432.18083    20.385768    20.116505    20.818538            0            0            0    8537.4828   -893.75906    118.55731    2071.7442   -336.09609    599.62488   -1409.9089    20.385768    20.116505    20.818538           90           90           90 
   82500    265.09885    -160.2959   -127.02292    -160.2959            0    5431.1169    20.252758    20.076408    20.602107            0            0            0    8376.8707    4101.1993    5546.1578    6645.9934   -592.76283   -1295.2453    757.19372    20.252758    20.076408    20.602107           90           90           90 
   83000    250.73935   -159.78684   -128.31614   -159.78684            0     -106.777    20.131971    20.255668    20.467671            0            0            0    8346.4404    2606.7795   -3994.9655     1067.855    1056.5162    1656.8841    715.05891    20.131971    20.255668    20.467671           90           90           90 
   83500    246.21502   -159.32433   -128.42149   -159.32433            0    3545.2019    20.207826    20.371064    20.593762            0            0            0    8477.5233    2630.4766    2729.8745    5275.2545      880.498    3890.6355   -1414.6734    20.207826    20.371064    20.593762           90           90           90 
   84000    265.18585   -160.30651   -127.02261   -160.30651            0    2001.0874    20.192752    20.202885    20.644877            0            0            0    8422.1158    2408.2727    1861.6188    1733.3705    1232.6537    760.87643   -1968.6989    20.192752    20.202885    20.644877           90           90           90 
   84500    248.91489   -159.84582   -128.60412   -159.84582            0   -827.19227     20.29269    20.004563    20.675528            0            0            0    8393.1557   -2729.1981    1747.0418   -1499.4206    340.49479    863.42906   -399.46217     20.29269    20.004563    20.675528           90           90           90 
   85000    246.95248    -160.3921    -129.3967    -160.3921            0    3550.1295    20.369508    20.109223    20.639349            0            0            0    8454.1865    3185.0432    4571.1797    2894.1655    361.63654   -1174.1733   -1196.0624    20.369508    20.109223    20.639349           90           90           90 
   85500    252.96312   -158.84326   -127.09345   -158.84326            0    4860.6582    20.143456    20.291625    20.528821            0            0            0    8391.0217     3873.815    2362.6808    8345.4788   -135.90259    638.18568    -3280.791    20.143456    20.291625    20.528821           90           90           90 
   86000    256.65839   -160.67344   -128.45983   -160.67344            0    1918.9778    20.021999    20.398783    20.587456            0            0            0    8408.4195    4064.8377   -2261.1971    3953.2928   -923.64281   -1450.4614    524.77331    20.021999    20.398783    20.587456           90           90           90 
   86500    248.97953   -161.33765   -130.08783   -161.33765            0    1259.0916    20.105695    20.104392    20.596317            0            0            0    8325.2948   -906.99472    3366.7294      1317.54   -558.55727   -1646.0601    378.67005    20.105695    20.104392    20.596317           90           90           90 
   87000    242.44079   -161.10367   -130.67454   -161.10367            0    1250.6159    20.384419    20.059906    20.675276            0            0            0    8454.3175    -302.7629    4219.3872   -164.77649    178.25224   -2560.4359    1887.0731    20.384419    20.059906    20.675276           90           90           90 
   87500     245.1199   -160.80622   -130.04083   -160.80622            0    1598.6104    20.285344    20.140082    20.582567            0            0            0    8408.9767    2833.3407   -260.37056     2222.861   -417.43682   -2464.4538     1995.573    20.285344    20.140082    20.582567           90           90           90 
   88000     261.0383   -161.48027   -128.71693   -161.48027            0    4063.8079      20.0628    20.285635     20.51982            0            0            0    8351.2925     7603.011    2792.9275    1795.4851   -1684.4447     3242.745   -277.72179      20.0628    20.285635     20.51982           90           90           90 
   88500    245.14067   -160.41339   -129.64539   -160.41339            0    1374.8749    20.151156    20.318501    20.673672            0            0            0    8464.6546   -666.44656    1071.0092    3720.0621    1947.9681     2334.065    1231.1943    20.151156    20.318501    20.673672           90           90           90 
   89000    244.90338   -162.18658   -131.44837   -162.18658            0    1977.2623    20.149555    20.063063    20.625813            0            0            0    8338.2282    2797.2319    1724.6701    1409.8848     1932.425    2030.9838   -4109.6137    20.149555    20.063063    20.625813           90           90           90 
   89500    237.61462   -161.61052   -131.78712   -161.61052            0    5862.7406    20.224303    20.099378    20.625142            0            0            0    8384.0357     6836.031    5107.3566    5644.8341   -501.58185   -65.895842   -31.372478    20.224303    20.099378    20.625142           90           90           90 
   90000    242.53523   -161.34054   -130.89955   -161.34054            0    381.52787    20.170665    20.299095    20.621296            0            0            0    8443.3122    3339.3043   -2597.9429    403.22211     1820.718    -794.9966   -2667.6731    20.170665    20.299095    20.621296           90           90           90 
   90500    252.17855   -160.55189   -128.90055   -160.55189            0    3470.3545    20.055808    20.180469    20.477781            0            0            0    8288.0876    3694.8817    2492.9963    4223.1855   -296.06822   -475.94323   -288.98103    20.055808    20.180469    20.477781           90           90           90 
   91000    246.47908   -160.44772   -129.51174   -160.44772            0    850.23958    20.306803    20.223864    20.704844            0            0            0    8503.1069    2221.0322    316.16824    13.518288   -630.91076    2320.6505   -792.84535    20.306803    20.223864    20.704844           90           90           90 
   91500    240.83193   -162.81312   -132.58592   -162.81312            0    2312.0467    20.265751     20.09493     20.74732            0            0            0     8449.115    1513.1484    3425.4596     1997.532    550.54573    3870.9285   -35.971143    20.265751     20.09493     20.74732           90           90           90 
   92000    246.90381   -160.78813   -129.79884   -160.78813            0    2662.9561    20.087349    20.113875    20.706515            0            0            0     8366.145    7134.6817   -553.65581    1407.8425   -1868.6644    425.65433   -258.64029    20.087349    20.113875    20.706515           90           90           90 
   92500    242.18712   -160.61057   -130.21328   -160.61057            0    3504.0813    20.143217    20.299331    20.510506            0            0            0     8386.619    5599.4429    411.64117    4501.1598    434.71472    890.36377     142.8546    20.143217    20.299331    20.510506           90           90           90 
   93000     246.1298   -160.17802   -129.28587   -160.17802            0    1401.9668    20.353229    20.264186    20.327016            0            0            0    8383.7075    3600.8426    82.343585    522.71422   -1010.4422    2516.9102    782.02431    20.353229    20.264186    20.327016           90           90           90 
   93500     256.1091   -162.36739   -130.22273   -162.36739            0    3706.9794    20.424026    20.172979    20.331737            0            0            0    8376.9491    1654.2808    4492.9877    4973.6696    446.16454    1146.9456    2231.6858    20.424026    20.172979    20.331737           90           90           90 
   94000    248.27291   -161.52337   -130.36224   -161.52337            0    1863.4793    20.216362    20.162619    20.588385            0            0            0    8392.1304     3968.129   -833.46973    2455.7787   -1813.1085   -26.186313    2735.5243    20.216362    20.162619    20.588385           90           90           90 
   94500    246.16862   -160.78195   -129.88493   -160.78195            0    2345.4206    19.995961    20.208997     20.84507            0            0            0    8423.4577    5750.8177   -832.77074    2118.2149    1109.0689   -1563.6957    1756.4054    19.995961    20.208997     20.84507           90           90           90 
   95000    238.09118   -161.75239   -131.86918   -161.75239            0    1383.4654    20.128176    20.214222    20.870549            0            0            0    8491.7133    3315.9328    73.403245    761.06031   -1880.6157   -1365.6467    8.6816766    20.128176    20.214222    20.870549           90           90           90 
   95500    248.87675   -160.07658   -128.83966   -160.07658            0    1866.2291     20.22606    20.175089    20.523927            0            0            0    8375.0467    4007.6096   -2200.3812     3791.459   -787.66073   -1455.5922    1051.1247     20.22606    20.175089    20.523927           90           90           90 
   96000     250.6655   -159.32128   -127.85985   -159.32128            0    27.861432    20.307475    20.213188    20.286908            0            0            0    8327.3455    -1403.781    2479.0453   -991.67999   -1297.4919    1151.5344   -894.66884    20.307475    20.213188    20.286908           90           90           90 
   96500    252.78383   -160.27331     -128.546   -160.27331            0    2606.3409    20.316702    20.300539     20.37691            0            0            0    8404.2529     388.6554    5415.4394    2014.9279    839.60209     3065.702    375.75405    20.316702    20.300539     20.37691           90           90           90 
   97000    242.29049    -159.5733   -129.16304    -159.5733            0    2731.1521    20.253754    20.260747    20.677168            0            0            0    8485.0042    5124.0029    546.11404    2523.3393   -1314.3915   -1444.8546    -612.2671    20.253754    20.260747    20.677168           90           90           90 
   97500    256.32619   -160.58045   -128.40854   -160.58045            0    5642.8492    20.074046    20.088485    20.701363            0            0            0    8347.9731    5398.7455    7055.0487    4474.7533   -1076.1175   -1241.9646    300.36531    20.074046    20.088485    20.701363           90           90           90 
   98000    245.16914   -161.32623   -130.55466   -161.32623            0    3514.8052    20.158957    20.201859    20.575155            0            0            0     8379.199    6015.4624    1617.2793     2911.674    56.919033   -1210.3218   -441.40122    20.158957    20.201859    20.575155           90           90           90 
   98500    243.27579   -160.01536   -129.48143   -160.01536            0     3474.992    20.292349    20.312437    20.487787            0            0            0    8444.8004    4149.5312     1905.853     4369.592   -858.53715   -700.93513   -669.87594    20.292349    20.312437    20.487787           90           90           90 
   99000    251.32394    -160.9498   -129.40573    -160.9498            0    2848.9633    20.225132    20.206481    20.479281            0            0            0    8369.4469    5813.7543   -12.595201    2745.7307   -1327.4595    295.95091   -705.51145    20.225132    20.206481    20.479281           90           90           90 
   99500    253.13869   -159.27889   -127.50705   -159.27889            0    1792.3507    20.256349    20.179092    20.653591            0            0            0    8442.2529   -493.03819    4514.3026    1355.7877    82.148465    1245.1585    1647.9308    20.256349    20.179092    20.653591           90           90           90 
  100000    247.49682   -159.57522    -128.5115   -159.57522            0    1216.5337    20.235017    20.160509    20.763235            0            0            0     8470.325    3050.2195    457.19401    142.18761    598.67064    53.529139    865.54938    20.235017    20.160509    20.763235           90           90           90 
  100500    257.35052   -161.06816   -128.76768   -161.06816            0    4200.0784     20.15359    20.145276    20.670658            0            0            0    8392.2797    4400.0767     5022.924    3177.2346    344.77848    669.68587   -105.54078     20.15359    20.145276    20.670658           90           90           90 
  101000    248.42577   -161.27768   -130.09737   -161.27768            0    1855.6765    20.295747    20.237725    20.533231            0            0            0    8433.8139    467.85313    2500.7245     2598.452   -329.96934   -1144.0558   -322.85438    20.295747    20.237725    20.533231           90           90           90 
  101500    245.64062   -160.39577   -129.56502   -160.39577            0    1631.1996    20.316249    20.274257    20.432596            0            0            0    8416.1222    1651.5696    2273.2629    968.76641    2643.4084   -1605.9983   -1057.7259    20.316249    20.274257    20.432596           90           90           90 
  102000    241.84164   -159.70675   -129.35282   -159.70675            0    2075.1908    20.144637    20.215131    20.439519            0            0            0    8323.5138    1850.2311     1519.521    2855.8205   -1580.0076    1346.2878   -575.86666    20.144637    20.215131    20.439519           90           90           90 
  102500    246.08842   -161.05009   -130.16314   -161.05009            0     2391.523    20.178576    20.177742    20.724081            0            0            0    8437.9772    5515.9142    1230.0515    428.60324    1825.5554    438.84852    576.68158    20.178576    20.177742    20.724081           90           90           90 
  103000    255.37904   -160.51915   -128.46611   -160.51915            0    2271.2293    20.260383    20.052391    20.875609            0            0            0    8481.1155    3091.7894    2900.0915    821.80689   -2512.5916    3159.2595   -931.84033    20.260383    20.052391    20.875609           90           90           90 
  103500    243.06644   -160.85488   -130.34722   -160.85488            0    1175.4978     20.24038    20.044517    20.794125            0            0            0    8436.3558    1356.9739     1470.201    699.31846   -1021.5823    1336.4898    317.45575     20.24038    20.044517    20.794125           90           90           90 
  104000    257.63862   -161.17055   -128.83391   -161.17055            0    1969.3734    20.242884    20.210131    20.517712            0            0            0    8394.0285    1388.5216    2109.4095    2410.1891    302.18981    1546.4875   -1252.6279    20.242884    20.210131    20.517712           90           90           90 
  104500    239.94717   -160.55344   -130.43728   -160.55344            0   -103.85968     20.30713    20.346214     20.36243            0            0            0    8413.2108   -2240.0482    231.22287    1697.2463    203.45328    826.27804    1983.1984     20.30713    20.346214     20.36243           90           90           90 
  105000    251.85714   -159.36869    -127.7577   -159.36869            0    4910.4819    20.239715    20.183979    20.425626            0            0            0    8344.2355      686.184    8550.0809    5495.1809    655.64645    767.48573    2179.3983    20.239715    20.183979    20.425626           90           90           90 
  105500    254.54041   -159.83193   -127.88416   -159.83193            0    701.77229    20.256383    20.078612    20.755865            0            0            0    8441.8265    1205.5273    2667.8317   -1768.0421    1002.4557   -2016.6635   -163.37643    20.256383    20.078612    20.755865           90           90           90 
  106000    248.11993   -160.13684   -128.99491   -160.13684            0    3785.8825    20.081492    20.154718    20.805467            0            0            0    8420.7384    4727.1933    3470.2349    3160.2192   -147.22656   -599.74959     544.2341    20.081492    20.154718    20.805467           90           90           90 
  106500    256.18061   -160.81518   -128.66155   -160.81518            0    5539.6949    20.093659    20.244168    20.659238            0            0            0    8403.7524    6094.8629    5508.4322    5015.7896    69.967976    513.33581    914.39169    20.093659    20.244168    20.659238           90           90           90 
  107000    248.68846   -161.03494   -129.82166   -161.03494            0    1262.8909    20.324696    20.218047    20.391156            0            0            0    8379.2488   -772.75657     2721.677    1839.7524    1156.1092    271.44812    928.70091    20.324696    20.218047    20.391156           90           90           90 
  107500    253.74468   -160.58021   -128.73231   -160.58021            0    4229.3997    20.429323    20.142196    20.343481            0            0            0    8371.1678    3269.9074    4921.4306    4496.8611    598.40544   -587.01219    1262.9461    20.429323    20.142196    20.343481           90           90           90 
  108000    254.31848   -159.83355   -127.91363   -159.83355            0    1534.7367    20.235325    20.327111    20.638865            0            0            0    8489.2957    4982.5368   -1472.1347     1093.808   -330.84602    2822.7061    1977.8762    20.235325    20.327111    20.638865           90           90           90 
  108500    254.92418    -159.5283   -127.53236    -159.5283            0    1285.7959    19.972523    20.235477    20.723982            0            0            0    8375.6707   -389.15411    193.51828    4053.0235   -852.30697    1822.6032   -1678.1766    19.972523    20.235477    20.723982           90           90           90 
  109000    239.14487   -159.08356   -129.06811   -159.08356            0    4043.1048     20.16893     20.07794      20.7863            0            0            0    8417.4239    4615.6646    4105.0921    3408.5576    -1368.198    188.22458     -80.3568     20.16893     20.07794      20.7863           90           90           90 
  109500    241.97725    -159.0755   -128.70455    -159.0755            0    3121.9976    20.364243    20.127626    20.665131            0            0            0    8470.3037    1706.8758    7771.3998   -112.28287   -975.02741   -669.45974   -2039.3304    20.364243    20.127626    20.665131           90           90           90 
  110000    251.35089   -160.79298   -129.24553   -160.79298            0    1571.5501    20.305333    20.193432    20.392358            0            0            0    8361.5675     38.38085    3008.3574    1667.9121    627.06584    1205.4389    2121.9207    20.305333    20.193432    20.392358           90           90           90 
  110500    242.37526   -161.13099   -130.71009   -161.13099            0    888.24637    20.205275    20.322206    20.412349            0            0            0    8381.6322     201.8215    1873.8738    589.04385   -814.32636     1665.221   -239.97131    20.205275    20.322206    20.412349           90           90           90 
  111000    253.20188   -160.56399   -128.78421   -160.56399            0    2225.9876    20.159687    20.266091    20.578593            0            0            0    8407.5498    4695.3358   -2335.9667    4318.5938   -9.3018909   -302.03557    668.52823    20.159687    20.266091    20.578593           90           90           90 
  111500    250.11159   -160.66251    -129.2706   -160.66251            0    1832.2954    20.161581    20.124971    20.719356            0            0            0    8406.9042    1173.0857    3351.1579    972.64247   -1309.4102   -1272.3535    2067.5483    20.161581    20.124971    20.719356           90           90           90 
  112000    241.91301   -159.07856   -128.71567   -159.07856            0    5494.8516    20.277604    20.081765    20.746033            0            0            0    8447.9935    6958.3428    3468.6983    6057.5137   -401.73509    36.641131    1683.2491    20.277604    20.081765    20.746033           90           90           90 
[...]
  373000     244.7502   -163.55235   -132.83336   -163.55235            0    1090.2468    20.202288    20.152052    20.470449            0            0            0    8333.8792    2866.8858   -1460.8358    1864.6903   -393.88638   -774.46371   -1872.8611    20.202288    20.152052    20.470449           90           90           90 
  373500    245.04438   -161.14829   -130.39238   -161.14829            0     2779.417    20.363608    20.064263    20.732298            0            0            0    8470.8186   -1886.9479    7218.8081    3006.3907   -660.55822   -3255.8776    720.25861    20.363608    20.064263    20.732298           90           90           90 
  374000    258.09976   -160.60994   -128.21542   -160.60994            0    1964.4869    20.258137    20.085161    20.816862            0            0            0    8470.1303    1240.2001    3833.9852    819.27542    628.63185    1149.9549    1588.6674    20.258137    20.085161    20.816862           90           90           90 
  374500    256.75405   -158.63975   -126.41414   -158.63975            0   -2349.9265    20.134278    20.247351    20.763721            0            0            0    8464.6588   -2757.3613   -1752.6803   -2539.7378    157.41175   -3151.5354    1226.5783    20.134278    20.247351    20.763721           90           90           90 
  375000    261.62809   -159.28703   -126.44967   -159.28703            0    3418.8551    20.104116    20.279727    20.602107            0            0            0    8399.6022    1693.4789    5489.6251    3073.4612    128.78781   -1321.2974     330.4487    20.104116    20.279727    20.602107           90           90           90 
  375500    256.01104   -161.21995   -129.08759   -161.21995            0    2107.0714    20.259946    20.226837    20.520226            0            0            0    8409.0784    1197.4399    2603.3133    2520.4611   -370.73427   -216.67091   -589.05078    20.259946    20.226837    20.520226           90           90           90 
  376000    257.27717   -160.41305   -128.12178   -160.41305            0    2242.5799    20.306079    20.175905    20.590087            0            0            0    8435.6253    511.06116    7147.0353   -930.35672   -793.33803   -33.561748   -722.82835    20.306079    20.175905    20.590087           90           90           90 
  376500    263.87681   -160.69042   -127.57082   -160.69042            0    3877.3971    20.049713    20.140922    20.632958            0            0            0     8331.995    2503.5596    3504.2012    5624.4305    29.789868    1688.6379   -1934.8758    20.049713    20.140922    20.632958           90           90           90 
  377000    249.47387   -162.03198   -130.72011   -162.03198            0   -75.098383     20.13575    20.260281    20.837328            0            0            0     8500.712    4671.0632   -3234.6386   -1661.7197   -1354.7909    2090.0032    2535.5541     20.13575    20.260281    20.837328           90           90           90 
  377500    241.44124   -160.34264   -130.03896   -160.34264            0    3926.5417    20.258067    20.055062    20.695164            0            0            0    8407.9645    2693.0533    6352.9154    2733.6563    1237.0072    716.36952   -1390.3633    20.258067    20.055062    20.695164           90           90           90 
  378000    252.77791   -160.96139   -129.23483   -160.96139            0    2770.9991    20.389562    20.035032    20.476716            0            0            0    8364.8517    2715.7315    3955.9959    1641.2697   -1145.8006    710.55772   -406.30757    20.389562    20.035032    20.476716           90           90           90 
  378500    237.95249    -160.3498     -130.484    -160.3498            0   -65.973866    20.343534    20.326486    20.427497            0            0            0    8447.0264   -647.88009    -941.0627    1391.0212    1021.6581    485.97504    1959.5823    20.343534    20.326486    20.427497           90           90           90 
  379000    253.52269   -160.40544    -128.5854   -160.40544            0    1165.8872    20.019509    20.399437    20.442233            0            0            0    8348.3361    1209.6228    1870.7235    417.31542    1417.8482     -1821.29    1621.7177    20.019509    20.399437    20.442233           90           90           90 
  379500    248.58289   -161.45337   -130.25333   -161.45337            0    1118.8532    20.080298    20.317456    20.712803            0            0            0    8450.4212    2163.3288   -1605.5116    2798.7425    378.85153   -690.76515   -276.63287    20.080298    20.317456    20.712803           90           90           90 
  380000     249.3184   -161.50645    -130.2141   -161.50645            0    1712.5697    20.308072    19.997554     20.78116            0            0            0    8439.4734    4466.6245    516.94651    154.13811    706.49858    1440.4365   -872.84241    20.308072    19.997554     20.78116           90           90           90 
  380500    246.47984   -161.59185   -130.65577   -161.59185            0    2509.5445    20.359832    19.907786    20.658579            0            0            0    8373.3181    141.25064    2032.7797    5354.6031    1184.4561    832.34693    4222.1913    20.359832    19.907786    20.658579           90           90           90 
  381000    245.69953    -160.4914   -129.65326    -160.4914            0   -56.325649    20.235993    20.218519    20.539499            0            0            0     8403.568    2404.7286    -3394.066    820.36046   -558.77606    -1765.038   -2006.8557    20.235993    20.218519    20.539499           90           90           90 
  381500    262.17196    -159.0472   -126.14158    -159.0472            0     1050.818    20.135434    20.402742     20.46175            0            0            0    8406.0565    740.04012   -891.62732    3304.0411   -1974.3088   -1558.2858    1245.1322    20.135434    20.402742     20.46175           90           90           90 
  382000    249.32881   -160.18139   -128.88773   -160.18139            0    2102.1451    20.242507    20.438141    20.611302            0            0            0     8527.292     1688.792    2331.3948    2286.2484   -886.37511    2467.0254    1057.3503    20.242507    20.438141    20.611302           90           90           90 
  382500    259.10794   -158.84133   -126.32028   -158.84133            0    4355.0713    20.223156    20.067592    20.609133            0            0            0    8363.8051    2894.0686    6584.0529    3587.0925   -940.26184    278.27588     -208.996    20.223156    20.067592    20.609133           90           90           90 
  383000    254.30772    -159.5373   -127.61874    -159.5373            0    1468.7001    20.254889    20.068353    20.704961            0            0            0    8416.1992    4137.6665   -320.09556    588.52947   -1114.4341   -32.669261    1309.3195    20.254889    20.068353    20.704961           90           90           90 
  383500    262.50215   -158.61549   -125.66842   -158.61549            0    1487.5954    20.301897    20.238773    20.650112            0            0            0    8484.8314    3452.9444    1503.4731   -493.63143    828.35788   -894.81116     1118.183    20.301897    20.238773    20.650112           90           90           90 
  384000    241.19261   -159.35296   -129.08049   -159.35296            0    1572.2755    20.266729    20.237461     20.45294            0            0            0    8388.7149    547.14064    1264.8364    2904.8494     -35.9958    2474.0441   -714.66055    20.266729    20.237461     20.45294           90           90           90 
  384500    256.60585   -162.10596   -129.89895   -162.10596            0    4147.1142    20.259315    20.177054    20.486231            0            0            0    8374.2238    1715.7002    3222.8668    7502.7755    1436.6542    3884.1077   -1067.4232    20.259315    20.177054    20.486231           90           90           90 
  385000    240.87063   -161.08895   -130.85689   -161.08895            0    1095.6587    20.141961     20.16204    20.643889            0            0            0    8383.5462    2124.1732    1472.1016   -309.29865    321.55926    2185.9804   -1656.5774    20.141961     20.16204    20.643889           90           90           90 
  385500    241.34527   -160.92443    -130.6328   -160.92443            0    526.99329     20.16108    20.288105    20.791973            0            0            0    8504.5425    1734.3537   -274.57596    121.20209   -184.34301    1200.9427   -1316.5857     20.16108    20.288105    20.791973           90           90           90 
  386000    252.70453   -160.83603   -129.11868   -160.83603            0    2651.3169    20.181162    20.180111    20.579577            0            0            0    8381.1992   -286.61038    4347.3308    3893.2303    1453.1435    2468.8173    2570.5486    20.181162    20.180111    20.579577           90           90           90 
  386500    249.51735   -159.62951   -128.31219   -159.62951            0    2157.6843    20.335131    20.113292    20.368581            0            0            0    8330.8805    1581.3087    4944.4779   -52.733888   -1167.3235    405.33505   -2078.4199    20.335131    20.113292    20.368581           90           90           90 
  387000    252.90157   -160.65454   -128.91245   -160.65454            0   -2184.9345     20.47756    20.305049    20.543257            0            0            0    8541.8425   -3487.8095   -3651.3376    584.34357    241.11833    260.20507    205.26604     20.47756    20.305049    20.543257           90           90           90 
  387500    256.50387   -160.61844   -128.42423   -160.61844            0    2552.8477    20.064259    20.112935    20.620476            0            0            0    8321.4166    924.96499    5342.1156    1391.4626   -1238.9886   -2513.6684   -2941.2911    20.064259    20.112935    20.620476           90           90           90 
  388000    243.28909   -161.62743   -131.09183   -161.62743            0    429.28939    20.076924     20.15687      20.8741            0            0            0    8447.4971    143.47921    708.80249    435.58647   -373.48129    693.08797    3212.5191    20.076924     20.15687      20.8741           90           90           90 
  388500    239.18612   -161.57575   -131.55511   -161.57575            0    2290.0122    20.187444    20.142586    20.691217            0            0            0    8413.6145    -322.6445    3783.3711    3409.3101   -1042.3664    394.32208   -752.27705    20.187444    20.142586    20.691217           90           90           90 
  389000    248.85093   -162.06053   -130.82685   -162.06053            0    2620.8758    20.362586    20.189017    20.465595            0            0            0    8413.4187    1852.3049     3808.474    2201.8486     565.2063    1879.9656     2778.697    20.362586    20.189017    20.465595           90           90           90 
  389500    242.28255   -160.87436   -130.46509   -160.87436            0    5170.3792     20.30733    20.219945    20.325705            0            0            0    8346.0006    5897.6521    3346.1847    6267.3009    59.568813    1407.0684   -1540.8251     20.30733    20.219945    20.325705           90           90           90 
  390000    238.35641   -161.64108   -131.72459   -161.64108            0     1843.479    20.269695    20.282529    20.512769            0            0            0    8433.2235    1531.0315    1174.3017     2825.104    936.39175    777.27541    2048.9919    20.269695    20.282529    20.512769           90           90           90 
  390500    249.39594   -160.38039    -129.0783   -160.38039            0    3336.0553    20.162682     20.13881    20.760543            0            0            0    8429.8689    6089.0449    1833.3198    2085.8011   -917.99197   -1818.0726   -1939.7236    20.162682     20.13881    20.760543           90           90           90 
  391000    256.47246   -159.18249   -126.99222   -159.18249            0    5824.0938    20.080361    20.054452    20.790539            0            0            0    8372.3634    8128.3869    4979.1455    4364.7491   -360.69742    2169.2465   -896.68911    20.080361    20.054452    20.790539           90           90           90 
  391500    266.57591    -159.4607   -126.00233    -159.4607            0    2326.5206    20.230825     20.22884    20.705174            0            0            0    8473.5122     2955.768    1786.3751    2237.4187    963.22426    1399.4321   -1906.6631    20.230825     20.22884    20.705174           90           90           90 
  392000    245.72139   -162.72305   -131.88216   -162.72305            0    2155.9277    20.310634    20.347208    20.469606            0            0            0    8459.3655   -1595.6938    5018.7386    3044.7383   -386.24486   -586.35542   -127.48836    20.310634    20.347208    20.469606           90           90           90 
  392500    239.47804   -160.79413   -130.73686   -160.79413            0    1355.1244    20.245157    20.266162    20.439336            0            0            0    8386.0887   -791.30083    3046.7797    1809.8943    512.95346   -639.81014    80.170284    20.245157    20.266162    20.439336           90           90           90 
  393000    254.62517   -160.80529   -128.84688   -160.80529            0     5372.157      20.1364    20.112245    20.525162            0            0            0    8312.4484    7002.1223    2245.8882    6868.4606    998.12806    127.46833    235.35685      20.1364    20.112245    20.525162           90           90           90 
  393500    257.17623   -158.58241   -126.30381   -158.58241            0    508.62268    20.362238    20.195856    20.887719            0            0            0    8589.7158   -2981.2832    2792.1786    1714.9726    1846.0116     -1101.88   -2238.3958    20.362238    20.195856    20.887719           90           90           90 
  394000    250.73965   -160.70239   -129.23166   -160.70239            0   -474.79929    20.290694    20.075247    20.952781            0            0            0    8534.9203   -2043.5106    1290.2126   -671.09991   -1409.7449   -310.55461    434.83412    20.290694    20.075247    20.952781           90           90           90 
  394500    244.59247   -160.68561   -129.98642   -160.68561            0     4781.355    20.137393    19.965708    20.670086            0            0            0    8310.5589     1941.557    7978.4194    4424.0884    668.72234    2293.5067   -1723.8823    20.137393    19.965708    20.670086           90           90           90 
  395000    251.12166   -160.00689   -128.48821   -160.00689            0    3393.2647     20.19852    20.197177    20.591594            0            0            0    8400.4044    3966.5275    2856.1347    3357.1317    1136.5806   -1256.6601    1159.0685     20.19852    20.197177    20.591594           90           90           90 
  395500     250.4318   -162.38356   -130.95147   -162.38356            0    4044.1317    20.264013     20.36483    20.591193            0            0            0    8497.4333    1734.5452    4949.3645    5448.4855    638.13013    1522.0172     857.1281    20.264013     20.36483    20.591193           90           90           90 
  396000     245.5964   -160.94858   -130.12339   -160.94858            0    2203.5339    20.192887    20.247399    20.555986            0            0            0    8404.3854    3822.8165   -1177.4207    3965.2059    78.328208     24.88357   -273.35893    20.192887    20.247399    20.555986           90           90           90 
  396500    236.60899   -160.93112   -131.23395   -160.93112            0    3961.2044    20.173097    20.042998    20.522428            0            0            0    8297.8196     2536.858    2484.0659    6862.6893    1068.3805    478.21304    1953.3466    20.173097    20.042998    20.522428           90           90           90 
  397000    248.23919   -160.86212   -129.70522   -160.86212            0    636.35006    20.388038    20.198703    20.765198            0            0            0    8551.3559    3049.0339   -2089.6487    949.66493    647.22338    -2796.584   -367.36262    20.388038    20.198703    20.765198           90           90           90 
  397500     252.6707   -160.60803   -128.89493   -160.60803            0    3314.8241    20.211889    20.215933    20.747431            0            0            0    8477.4457    6125.9621   -799.18053    4617.6909   -106.53083    986.51035   -327.76756    20.211889    20.215933    20.747431           90           90           90 
  398000    253.02784   -160.63395   -128.87602   -160.63395            0     643.9736    20.075704    20.141315    20.679495            0            0            0    8361.7765   -143.02945    862.49885    1212.4514   -1088.1185   -1249.7383    1774.5639    20.075704    20.141315    20.679495           90           90           90 
  398500    257.57696    -160.9669     -128.638    -160.9669            0    4334.5617    20.204668    20.180185    20.630092            0            0            0    8411.5887     3143.929    6406.4476    3453.3084   -254.09969   -1007.6321    -663.4849    20.204668    20.180185    20.630092           90           90           90 
  399000    240.77888   -162.34762   -132.12708   -162.34762            0    2552.6888    20.366182     20.16096    20.528248            0            0            0    8428.9352   -2275.7637    7695.7445    2238.0857   -196.26866    152.08112    235.70772    20.366182     20.16096    20.528248           90           90           90 
  399500    252.12538     -161.938   -130.29334     -161.938            0    -291.8218     20.31673    20.153138    20.479572            0            0            0    8385.2761   -2286.7408    1012.6066    398.66875    121.83353    -1000.838   -839.13582     20.31673    20.153138    20.479572           90           90           90 
  400000    247.07407    -162.0074   -130.99673    -162.0074            0    3674.8385     20.03724    20.200384    20.482902            0            0            0    8290.6581    2491.1668    3446.9681    5086.3807   -1272.8506   -2487.6349    2059.4029     20.03724    20.200384    20.482902           90           90           90 
Loop time of 2411.31 on 1 procs for 400000 steps with 972 atoms

Performance: 7.166 ns/day, 3.349 hours/ns, 165.885 timesteps/s
70.0% CPU use with 1 MPI tasks x 1 OpenMP threads

MPI task timing breakdown:
Section |  min time  |  avg time  |  max time  |%varavg| %total
---------------------------------------------------------------
Pair    | 2144.2     | 2144.2     | 2144.2     |   0.0 | 88.92
Bond    | 0.059871   | 0.059871   | 0.059871   |   0.0 |  0.00
Neigh   | 238.41     | 238.41     | 238.41     |   0.0 |  9.89
Comm    | 9.7609     | 9.7609     | 9.7609     |   0.0 |  0.40
Output  | 1.8999     | 1.8999     | 1.8999     |   0.0 |  0.08
Modify  | 15.588     | 15.588     | 15.588     |   0.0 |  0.65
Other   |            | 1.405      |            |       |  0.06

Nlocal:        972.000 ave         972 max         972 min
Histogram: 1 0 0 0 0 0 0 0 0 0
Nghost:        4623.00 ave        4623 max        4623 min
Histogram: 1 0 0 0 0 0 0 0 0 0
Neighs:         0.00000 ave           0 max           0 min
Histogram: 1 0 0 0 0 0 0 0 0 0
FullNghs:      244828.0 ave      244828 max      244828 min
Histogram: 1 0 0 0 0 0 0 0 0 0

Total # of neighbors = 244828
Ave neighs/atom = 251.88066
Ave special neighs/atom = 0.0000000
Neighbor list builds = 40000
Dangerous builds not checked

unfix		3
unfix		2

write_data	data.final.${pid}
write_data	data.final.0
System init for write_data ...

write_restart   restart.lmp.${pid}
write_restart   restart.lmp.0
System init for write_restart ...
Total wall time: 0:40:14
