LAMMPS data file via write_data, version 29 Sep 2021, timestep = 400000

864 atoms
2 atom types

0.16094896684586324 18.046624033156384 xlo xhi
0.011550645630249434 23.617626354370827 ylo yhi
0.01533972314007137 22.197856276860904 zlo zhi

Masses

1 1.008
2 15.999

Atoms # full

706 0 1 -1.1794 3.1933459936168918 2.0584602653525503 3.1773698267830706 0 0 0
708 0 2 0.5897 2.432026196741487 2.525110920097626 2.6766126802535166 0 0 0
1 0 1 -1.1794 0.8846513808606843 3.1902860547493495 1.8921142255897896 0 0 0
3 0 2 0.5897 0.8281394710438449 4.167815178688472 2.1111984122408405 0 0 0
20 0 2 0.5897 0.4151495760790374 3.058289695251993 0.053580517315287665 0 0 0
707 0 2 0.5897 3.044475926833211 2.201352507672326 4.111260588632676 0 0 0
2 0 2 0.5897 0.28189190413426946 2.822904475006915 2.604848613713055 1 0 0
188 0 2 0.5897 3.596385167103786 0.20448831310634963 2.719251027240781 0 0 0
29 0 2 0.5897 4.728712946056617 2.813733089785791 2.661192778431645 0 0 0
668 0 2 0.5897 5.095631272356881 3.2418886028723435 0.2481233693651753 0 0 0
30 0 2 0.5897 5.387318521850291 4.148874683399161 2.3537676773789498 0 0 0
28 0 1 -1.1794 5.435240268598315 3.189275866656392 2.115151060431737 0 0 0
493 0 1 -1.1794 7.5950485943574515 1.7342400037007377 2.624903795722289 0 0 0
494 0 2 0.5897 6.761940138047676 2.200635551063496 2.4370404242429586 0 0 0
495 0 2 0.5897 8.280314945728534 2.3419376064160646 2.207060714727433 0 0 0
819 0 2 0.5897 7.832380372019283 0.21734293324774479 2.441345368724095 0 0 0
748 0 1 -1.1794 9.765224759014766 3.2160525326529927 1.7530083277960715 0 0 0
106 0 1 -1.1794 12.034189428259767 1.7523954345331818 2.8186816490498847 0 0 0
108 0 2 0.5897 11.338808155813348 2.2932918866441527 2.404392303719805 0 0 0
749 0 2 0.5897 9.83661624765652 4.173605020796746 1.8965982976759614 0 0 0
750 0 2 0.5897 9.546176385652725 3.153621993693183 0.797009266886266 0 0 0
107 0 2 0.5897 11.8643901242481 1.5905032126321819 3.776047606072552 0 0 0
215 0 2 0.5897 13.445292371386135 2.6719468455787805 2.68049551591502 0 0 0
63 0 2 0.5897 12.297210509360564 0.12561970861981586 2.423361074569428 0 0 0
216 0 2 0.5897 14.071275084277463 4.061808459355514 2.562223166518903 0 0 0
214 0 1 -1.1794 14.20681079387207 3.1530109750384834 2.3159400532605257 0 0 0
406 0 1 -1.1794 16.557712004677214 2.04980025842673 3.187282880049728 0 0 0
407 0 2 0.5897 16.660025187868193 1.1832693243772172 2.703869033806785 0 0 0
408 0 2 0.5897 15.693176715309878 2.412784429213072 2.953985732116674 0 0 0
369 0 2 0.5897 14.279446341932042 3.132029581082273 0.4704310776710157 0 0 0
123 0 2 0.5897 3.079359569054796 8.664212362396196 2.5276346601958757 0 0 0
253 0 1 -1.1794 2.7473323852848126 6.950149680830816 1.8764753983934375 0 0 0
254 0 2 0.5897 2.6041185288835873 6.942993591265958 0.9546186729612254 0 0 0
255 0 2 0.5897 1.9458601857861533 6.589956454806759 2.3089024761908727 0 0 0
595 0 1 -1.1794 0.487392073741485 5.578023168908818 3.1685401367823585 0 0 0
597 0 2 0.5897 0.6285853454290151 5.5550320378791955 4.161045035265238 0 0 0
138 0 2 0.5897 4.457795865616382 6.1493805173828235 2.5494648915610325 0 0 0
136 0 1 -1.1794 5.336830321736176 5.891744419297476 2.8012597562076187 0 0 0
65 0 2 0.5897 7.361729146249552 8.82397785724854 2.5126448809194533 0 0 0
415 0 1 -1.1794 7.562065034596947 7.291551882671106 1.9326039539912796 0 0 0
416 0 2 0.5897 6.825958163208196 6.774735211659495 2.3385589523939303 0 0 0
417 0 2 0.5897 8.438350134518235 6.821495344612402 2.0768316604420374 0 0 0
137 0 2 0.5897 5.2565099769801815 5.853420468706506 3.754501757288551 0 0 0
162 0 2 0.5897 7.207309412060162 6.977433414187211 0.16430588273873203 0 0 0
298 0 1 -1.1794 9.65349579176337 5.753660524733847 2.824558561974401 0 0 0
190 0 1 -1.1794 11.524709929841245 7.290677117636795 1.8622653644320362 0 0 0
191 0 2 0.5897 11.783876015838048 7.334142618539158 0.9323476761680977 0 0 0
192 0 2 0.5897 11.534623523060297 8.233376327621926 2.2160442763878154 0 0 0
299 0 2 0.5897 10.38106177548702 6.34678911844729 2.5127902305535748 0 0 0
300 0 2 0.5897 9.782506341718364 5.701147560651317 3.785778592520445 0 0 0
110 0 2 0.5897 13.006904627120145 6.254978929281448 2.5231109563736727 0 0 0
596 0 2 0.5897 17.688285611672633 6.254359900092763 2.955973501853942 0 0 0
109 0 1 -1.1794 13.780058468945864 5.785643865577629 2.843432819171247 0 0 0
111 0 2 0.5897 14.48342518930647 6.167815159930857 2.3444322457219906 0 0 0
838 0 1 -1.1794 16.140519623696616 6.9043012062139155 1.8177059369253987 0 0 0
839 0 2 0.5897 16.196063186628358 7.897903881348291 1.8911701823361655 0 0 0
840 0 2 0.5897 16.396461132940615 6.762627291452579 0.9127318828213895 0 0 0
121 0 1 -1.1794 3.1484561991992424 9.569564893564754 2.8202543082541918 0 0 0
122 0 2 0.5897 3.15134911241526 9.596238072215709 3.788294225844664 0 0 0
44 0 2 0.5897 1.6999865338118954 10.286251995878482 1.892554525139943 0 0 0
43 0 1 -1.1794 0.9983874311648728 10.923680356335874 1.7064749298143003 0 0 0
45 0 2 0.5897 1.030585679725334 11.625055436659887 2.36142873378605 0 0 0
373 0 1 -1.1794 0.8605145064245773 13.56337043140443 2.9744851311007174 0 0 0
374 0 2 0.5897 0.8697084270660091 13.765464767080298 3.974422483796842 0 0 0
219 0 2 0.5897 4.4676622409075115 10.249194518647444 2.2870842165543075 0 0 0
173 0 2 0.5897 4.672035461008067 14.051308032035998 2.0747260974155255 0 0 0
66 0 2 0.5897 7.514806990144554 9.613735533817945 3.7981108878292726 0 0 0
64 0 1 -1.1794 7.487913788698766 9.746651331806554 2.856941148264425 0 0 0
172 0 1 -1.1794 5.517966337904708 13.71119019979906 2.4586308884682575 0 0 0
174 0 2 0.5897 5.5043808389568785 12.746819098562769 2.321322773193128 0 0 0
217 0 1 -1.1794 5.196641451201814 10.837696390727562 2.1842985559379025 0 0 0
218 0 2 0.5897 5.94763384821975 10.348252030482296 2.530731421690809 0 0 0
363 0 2 0.5897 5.342508359427163 10.849615797149404 0.44448254862523084 0 0 0
773 0 2 0.5897 8.962031403059122 10.469393474934002 2.1738051144151056 0 0 0
200 0 2 0.5897 5.372005940285757 13.53466607721906 4.2862137544961065 0 0 0
91 0 1 -1.1794 11.941878813044271 9.787415603911345 2.837181150937446 0 0 0
774 0 2 0.5897 9.69760531445996 11.266955674355193 1.0804718935393356 0 0 0
92 0 2 0.5897 11.81817261028177 9.688276441087615 3.779754678300628 0 0 0
772 0 1 -1.1794 9.704706341622906 11.047298480932323 2.013288087004222 0 0 0
156 0 2 0.5897 9.889959909859867 12.58244381710868 2.587036182302118 0 0 0
93 0 2 0.5897 11.152836578420215 10.290099319828512 2.5972181165627832 0 0 0
154 0 1 -1.1794 9.887685363340438 13.499579061553735 2.964295271747325 0 0 0
155 0 2 0.5897 10.59955696121346 14.024674003778964 2.540585741317562 0 0 0
860 0 2 0.5897 13.60644390376739 10.297854406175814 2.2508845580427916 0 0 0
841 0 1 -1.1794 16.742593842271596 9.62372155220592 2.8981627184166663 0 0 0
842 0 2 0.5897 17.012718662456656 9.835114580384134 3.7773656065694134 0 0 0
57 0 2 0.5897 14.05248750024823 12.715710400847886 2.6177544376285757 0 0 0
55 0 1 -1.1794 14.099097043167369 13.658678397244023 2.8530336379708037 0 0 0
859 0 1 -1.1794 14.353009167207526 10.827211365862299 1.9269704562393912 0 0 0
843 0 2 0.5897 17.451973036342196 10.000512397289953 2.3302950876857 0 0 0
861 0 2 0.5897 15.18224824075424 10.458203666722312 2.266864162218172 0 0 0
56 0 2 0.5897 14.165533481025971 13.639571715169332 3.8358775108285488 0 0 0
152 0 2 0.5897 14.303462164198343 10.842030677024534 0.20142451057656258 0 0 0
375 0 2 0.5897 18.011805545313194 14.012494907442166 2.5640472411917785 0 0 0
557 0 2 0.5897 2.24440512947341 14.256826236697986 2.338719862967174 0 0 0
558 0 2 0.5897 2.7870391855413645 14.633982671528038 0.9043623077455095 0 0 0
292 0 1 -1.1794 2.548951218206426 17.21997579939228 3.039563947207676 0 0 0
293 0 2 0.5897 2.694420116960628 16.371953412351345 2.6602997738189855 0 0 0
556 0 1 -1.1794 3.0068499738924555 14.668330978587328 1.8528016138716186 0 0 0
344 0 2 0.5897 1.1269527349884287 18.29823945429296 2.4878550919430515 0 0 0
294 0 2 0.5897 2.6761466290594695 17.041406800461196 3.998479066934756 0 0 0
227 0 2 0.5897 3.941238919683811 18.25902420973418 2.2771714222946926 0 0 0
480 0 2 0.5897 6.979120378787077 14.600347546682196 2.070572628240365 0 0 0
479 0 2 0.5897 8.515329121614284 14.519775806888322 2.367864949809484 0 0 0
478 0 1 -1.1794 7.852158472102946 15.065395995903035 1.9111280666917059 0 0 0
448 0 1 -1.1794 7.360961508444931 17.692209787594322 2.902986936369108 0 0 0
449 0 2 0.5897 7.369539890773549 16.73893122326532 2.5878838185129696 0 0 0
450 0 2 0.5897 6.512138386354539 18.0065283307065 2.5501585391058064 0 0 0
317 0 2 0.5897 7.475339656477487 15.058618907899964 0.10171403103768899 0 0 0
226 0 1 -1.1794 4.752256400937513 18.816224805224024 2.097498849574383 0 0 0
321 0 2 0.5897 8.990766807127441 18.368631680580414 2.521140298736516 0 0 0
560 0 2 0.5897 12.741876049212385 14.524144123887728 2.186588768245215 0 0 0
559 0 1 -1.1794 11.915257785935342 14.838290172666117 1.7960634404200875 0 0 0
561 0 2 0.5897 12.094068137865694 14.8762127029322 0.7614358982667798 0 0 0
320 0 2 0.5897 10.531546918386285 18.09396428936531 2.549526434876022 0 0 0
832 0 1 -1.1794 11.990514897735375 17.254866773154887 3.1486590850048923 0 0 0
833 0 2 0.5897 12.627385395117466 17.925624774564163 2.808570049041773 0 0 0
834 0 2 0.5897 12.035029017785844 16.496826275391022 2.535604816511482 0 0 0
319 0 1 -1.1794 9.860580982085333 18.758644161168455 2.2911295135381633 0 0 0
179 0 2 0.5897 15.454233073848979 14.50186427766755 2.37643605534158 0 0 0
178 0 1 -1.1794 16.271235200463842 14.920916838373081 2.119486371395432 0 0 0
180 0 2 0.5897 16.271914642490977 15.783944103707938 2.6190527573310622 0 0 0
745 0 1 -1.1794 16.252271295560135 17.743206224361124 2.9792663733767144 0 0 0
746 0 2 0.5897 16.933398872046986 18.44969437892881 2.712977980952472 0 0 0
747 0 2 0.5897 15.445484029135875 18.069171558397038 2.558127578814371 0 0 0
304 0 1 -1.1794 14.085228871643185 18.814898455231884 1.7145404514430118 0 0 0
614 0 2 0.5897 16.377238978138728 15.190289132799775 0.23465384273081855 0 0 0
345 0 2 0.5897 0.6047208588024139 19.005450567266756 1.2396284736523553 0 0 0
343 0 1 -1.1794 0.58252962189061 19.041947017480233 2.2227396850565246 0 0 0
187 0 1 -1.1794 3.547818975469686 22.884899901530744 2.51824612486737 0 0 0
189 0 2 0.5897 3.2318428555379035 22.871428589795087 1.5916654467700107 0 0 0
694 0 1 -1.1794 1.265636499425805 21.648728349310673 3.305675042646528 0 0 0
695 0 2 0.5897 1.2101908223389337 20.790641668221163 2.991046928471836 0 0 0
696 0 2 0.5897 2.0050651999298488 22.148048635625308 2.9256361765989225 0 0 0
602 0 2 0.5897 5.201210592295944 18.98490143726295 0.33584827215506363 0 0 0
266 0 2 0.5897 4.8065526683637865 21.714886524322715 2.980275304001563 0 0 0
228 0 2 0.5897 4.870497250551241 19.55134089882926 2.728857582184211 0 0 0
265 0 1 -1.1794 5.505695125375008 21.16133898636368 3.256461725122065 0 0 0
267 0 2 0.5897 6.339822637818576 21.533868834390987 2.9557788271983045 0 0 0
817 0 1 -1.1794 7.782522098516847 22.860375553987623 2.252080534883739 0 0 0
818 0 2 0.5897 8.637261407324027 22.4859201962487 2.512944041779852 0 0 0
498 0 2 0.5897 7.514145981623676 22.723573112910792 0.5896679637431054 0 0 0
61 0 1 -1.1794 12.30310922596454 22.79610285753936 2.156152343451919 0 0 0
62 0 2 0.5897 13.166099279124012 22.47833665565848 2.327064835401009 0 0 0
397 0 1 -1.1794 10.182515830288734 21.435705740083357 3.0781591997337716 0 0 0
398 0 2 0.5897 10.01767296817787 20.517948843334167 2.8942107077863315 0 0 0
399 0 2 0.5897 10.994142017401424 21.741257603541023 2.6325234533769883 0 0 0
425 0 2 0.5897 11.879164563433978 23.104038726348506 0.3916285022615092 0 0 0
389 0 2 0.5897 9.632691125662157 19.009883223459084 0.23129453235634867 0 0 0
305 0 2 0.5897 14.096579511600194 18.911108838639493 0.6946795746661513 0 0 0
119 0 2 0.5897 14.624746129445231 21.201423639990907 3.9341375235414704 0 0 0
118 0 1 -1.1794 14.51473330467868 21.39417805620257 2.996018742543885 0 0 0
306 0 2 0.5897 14.190746548592903 19.67638035836636 2.1135062054411287 0 0 0
729 0 2 0.5897 17.729343275005135 22.59538810264071 2.7819657138364486 0 0 0
120 0 2 0.5897 15.294688196328083 21.80874774894479 2.669674721192862 0 0 0
727 0 1 -1.1794 16.932112584206045 22.964610104726788 2.309548544995603 0 0 0
728 0 2 0.5897 17.081392927567784 22.7695141809927 1.3561525130806669 0 0 0
487 0 1 -1.1794 3.1248248483930663 2.076342397555223 5.79882492200205 0 0 0
488 0 2 0.5897 2.5885146464892608 2.529790832257299 6.430495649385709 0 0 0
489 0 2 0.5897 3.055066084374985 1.1576678560170588 6.01962174586517 0 0 0
785 0 2 0.5897 0.513183466313317 3.236559173609169 8.089672370004154 0 0 0
784 0 1 -1.1794 0.68230366349509 3.123402040252764 7.107346780701284 0 0 0
183 0 2 0.5897 0.8626226153566766 4.711973872819798 6.39744897580583 0 0 0
83 0 2 0.5897 4.646141552978018 2.6357527764978634 6.372236264538452 0 0 0
846 0 2 0.5897 7.736539398975211 1.5102243362602557 4.504117422626285 0 0 0
82 0 1 -1.1794 5.441763963392809 3.15055070039407 6.48143587231958 0 0 0
84 0 2 0.5897 6.132069065096171 2.542941640847201 6.213259784936298 0 0 0
844 0 1 -1.1794 7.754190240929815 1.5631324226406589 5.455373107341043 0 0 0
845 0 2 0.5897 7.612882028084812 0.7010033007779616 5.731490916676178 0 0 0
275 0 2 0.5897 5.556951787127464 3.195722962741082 8.21265291862526 0 0 0
419 0 2 0.5897 9.14398476779544 2.4587685016803973 6.148271618898989 0 0 0
418 0 1 -1.1794 9.812310077727469 3.0038866901634593 6.692413108509454 0 0 0
420 0 2 0.5897 9.802097854591576 3.9310671347378388 6.271792811259555 0 0 0
802 0 1 -1.1794 12.13935176307383 1.6162910274763347 5.850370091846903 0 0 0
803 0 2 0.5897 11.309276403783047 1.989731474279451 6.209685126159343 0 0 0
804 0 2 0.5897 12.786855781285709 2.2040737304304283 6.207975783961573 0 0 0
177 0 2 0.5897 9.575650191399836 3.1538933141083842 8.340880482270768 0 0 0
660 0 2 0.5897 16.52724829916916 1.7393277976200368 4.790820663823142 0 0 0
786 0 2 0.5897 17.776303790245812 2.636523119616135 6.822515838008214 0 0 0
437 0 2 0.5897 14.22386542864592 2.996452468789664 7.553971970058259 0 0 0
436 0 1 -1.1794 14.430894810140842 3.188317786910431 6.597004945689653 0 0 0
438 0 2 0.5897 15.179274510928364 2.546094999360551 6.337704072174593 0 0 0
658 0 1 -1.1794 16.440923730777868 1.757166953446911 5.741877495101882 0 0 0
659 0 2 0.5897 16.449358258872024 0.7925179415764949 5.911939958865212 0 0 0
10 0 1 -1.1794 2.9194369548531536 7.405151885607007 6.724830144556158 0 0 0
11 0 2 0.5897 2.1376165435672156 6.906447685512275 6.46110169631672 0 0 0
12 0 2 0.5897 2.818914222850458 8.303558171909728 6.320069494254223 0 0 0
181 0 1 -1.1794 0.7475602069742704 5.626702249485417 5.991126713712955 0 0 0
687 0 2 0.5897 4.182181321464821 6.2317746007618835 6.078066767440727 0 0 0
650 0 2 0.5897 2.6715129669217643 7.253325821796894 8.425187625637738 0 0 0
686 0 2 0.5897 5.038497627357044 4.951409724011021 5.778287309854156 0 0 0
685 0 1 -1.1794 4.749629835503479 5.815983371908947 5.39956472497288 0 0 0
145 0 1 -1.1794 7.218804733049517 6.726702570837075 6.3476915230499 0 0 0
146 0 2 0.5897 6.349918052313953 6.307181523350035 6.251580279954458 0 0 0
147 0 2 0.5897 7.221112618229757 6.834105645623193 7.289515983452844 0 0 0
714 0 2 0.5897 7.774509991606504 8.488512611385062 5.712021148467839 0 0 0
165 0 2 0.5897 8.744497992973825 5.845159863570836 5.936902125849007 0 0 0
712 0 1 -1.1794 7.883070975083963 9.431008960283613 5.4446209540514685 0 0 0
163 0 1 -1.1794 9.570610305037595 5.521024215748328 5.681829168603725 0 0 0
164 0 2 0.5897 10.295853860605371 6.115271761939606 5.984135585017193 0 0 0
230 0 2 0.5897 12.163288787589874 8.670138347620435 5.957485392866526 0 0 0
391 0 1 -1.1794 11.853555430518805 6.903581566209515 6.621200076846233 0 0 0
392 0 2 0.5897 11.888007773570475 7.1405141227812985 7.554095501084993 0 0 0
393 0 2 0.5897 12.716153783545359 6.486510622997845 6.374132343681332 0 0 0
732 0 2 0.5897 14.302186982629351 4.900740795289505 6.237327300429123 0 0 0
182 0 2 0.5897 17.882738588083953 5.947673967024144 6.424033041252657 0 0 0
731 0 2 0.5897 14.066743174708627 5.7979061112067365 4.936960515523736 0 0 0
730 0 1 -1.1794 14.245066945854736 5.811458564801131 5.889079627428247 0 0 0
525 0 2 0.5897 16.939970040797547 8.740763666087817 5.919144708743337 0 0 0
541 0 1 -1.1794 16.58529290866057 7.092606918897264 6.6620852624972775 0 0 0
542 0 2 0.5897 15.717785448021717 6.707993955114504 6.418315468392407 0 0 0
543 0 2 0.5897 16.579381434370646 7.071121103528909 7.628531338864643 0 0 0
793 0 1 -1.1794 2.9919919393014394 9.877869347596494 5.649376082302429 0 0 0
794 0 2 0.5897 2.2479455561833714 10.427533123630408 5.98903416813543 0 0 0
795 0 2 0.5897 3.7553863408630392 10.030519558067642 6.193934084770434 0 0 0
550 0 1 -1.1794 1.120786696610042 11.420666468967134 6.7787008535780044 0 0 0
552 0 2 0.5897 0.9048356416196177 12.266894914627729 6.428729087892193 0 0 0
551 0 2 0.5897 1.1441715756962147 11.537537687609367 7.744224720306483 0 0 0
655 0 1 -1.1794 0.8628434633912544 13.93416748261524 5.567884069333173 0 0 0
656 0 2 0.5897 1.6542338025954126 14.150286040828155 6.07707419464003 0 0 0
713 0 2 0.5897 8.67604570684534 9.819320843982702 5.82872503019615 0 0 0
577 0 1 -1.1794 5.544979795182731 10.945330786408153 6.284708760869584 0 0 0
578 0 2 0.5897 6.254499903607489 10.499050791285045 5.911402639387801 0 0 0
579 0 2 0.5897 5.5466103761107854 11.88850619279485 6.087119595595989 0 0 0
582 0 2 0.5897 5.346832143250315 10.801612956833118 8.363036730443891 0 0 0
199 0 1 -1.1794 5.346085619475754 13.764809541851358 5.24825978701295 0 0 0
806 0 2 0.5897 9.801438770945323 13.547334432546522 4.699101443334957 0 0 0
229 0 1 -1.1794 12.108209051559385 9.540511420852013 5.530394220288572 0 0 0
231 0 2 0.5897 12.992553476333278 9.951107876865256 5.579506041024017 0 0 0
807 0 2 0.5897 9.850945288409761 12.516024381234367 5.978872406719697 0 0 0
805 0 1 -1.1794 9.741319969164389 13.414584341275257 5.668975953896404 0 0 0
739 0 1 -1.1794 9.939409515719442 10.676844684979534 6.58168549386942 0 0 0
740 0 2 0.5897 10.851109565528116 10.391414318523829 6.310815293933566 0 0 0
741 0 2 0.5897 9.98805441453687 10.761964492683639 7.490008114274036 0 0 0
642 0 2 0.5897 11.38982841151248 14.020148511824683 6.37134716216426 0 0 0
523 0 1 -1.1794 16.93429466245823 9.735634943785575 5.743429637243167 0 0 0
524 0 2 0.5897 17.62480002209503 10.189578671588508 6.211409559556392 0 0 0
634 0 1 -1.1794 14.396496222033432 10.902586150097 5.980371490896384 0 0 0
635 0 2 0.5897 15.204448819788244 10.395039985741978 5.888851172405927 0 0 0
636 0 2 0.5897 14.464094375405395 11.729484004199035 5.439379854255148 0 0 0
857 0 2 0.5897 14.011960065629877 11.228507490078613 7.954803809516197 0 0 0
724 0 1 -1.1794 14.479844288474665 13.432038770259323 5.602388399758805 0 0 0
726 0 2 0.5897 13.777099067471504 13.5862249019031 6.235487619809743 0 0 0
725 0 2 0.5897 15.305137874538048 13.860331633770828 5.937546349580731 0 0 0
18 0 2 0.5897 4.01097697383938 14.295622247796935 6.334946213150185 0 0 0
17 0 2 0.5897 3.150334652538394 14.438534279713162 7.675114996983674 0 0 0
16 0 1 -1.1794 3.2655810927220914 14.761239786548158 6.773937475363068 0 0 0
238 0 1 -1.1794 3.1301278492114757 17.319283251644208 5.620229593901956 0 0 0
239 0 2 0.5897 3.124042912000974 16.478644173318997 6.119794104870022 0 0 0
240 0 2 0.5897 3.980351794911339 17.702621116378936 5.836545078923913 0 0 0
341 0 2 0.5897 1.8134159271784196 18.21621732247334 6.414974209079938 0 0 0
340 0 1 -1.1794 0.9942804230796238 18.700349296631607 6.680301900372301 0 0 0
342 0 2 0.5897 1.0291819942884182 18.7423668521243 7.6569700827585825 0 0 0
201 0 2 0.5897 6.172382018411041 14.243387980493983 5.44647608583538 0 0 0
308 0 2 0.5897 7.614882236843197 17.719664347721917 4.6040583675280855 0 0 0
519 0 2 0.5897 8.354367173320712 14.69296576813709 6.305054333881284 0 0 0
307 0 1 -1.1794 7.702753658052493 17.64163325655806 5.576498449606027 0 0 0
309 0 2 0.5897 8.55573364515728 18.004584086584153 5.863187657496196 0 0 0
517 0 1 -1.1794 7.528801303251068 15.118880302021669 6.5612782688406615 0 0 0
518 0 2 0.5897 7.63528726969279 16.06525163954405 6.305459440301001 0 0 0
378 0 2 0.5897 6.855719713539195 14.770982121497031 8.273868393198555 0 0 0
386 0 2 0.5897 6.0825648172263715 18.46222419983178 5.931241480524377 0 0 0
385 0 1 -1.1794 5.337054950571107 18.75796364368999 6.513015508264233 0 0 0
102 0 2 0.5897 5.430426493582242 18.81930252392256 8.274540734636295 0 0 0
645 0 2 0.5897 12.113319285083088 17.154092044727825 5.141946927054405 0 0 0
640 0 1 -1.1794 11.95939109752068 14.482324300818599 6.950733029403661 0 0 0
641 0 2 0.5897 11.695441867108343 14.321356530593729 7.90101004586417 0 0 0
643 0 1 -1.1794 12.118108023799468 17.172924714105015 6.086809950946195 0 0 0
644 0 2 0.5897 11.937469981294171 16.277553349723355 6.370269288339623 0 0 0
303 0 2 0.5897 10.73948095455258 18.124287340653815 6.4403285202095155 0 0 0
734 0 2 0.5897 9.814022232628103 18.6734402099881 8.379999738928962 0 0 0
301 0 1 -1.1794 9.966785722034366 18.646829653048947 6.716610295448641 0 0 0
657 0 2 0.5897 18.031015566688417 14.534833032528692 5.936181561842397 0 0 0
564 0 2 0.5897 16.69241753493253 17.534890656661766 4.674134683739262 0 0 0
205 0 1 -1.1794 16.413482039567214 15.010462801575448 6.771715176425348 0 0 0
206 0 2 0.5897 16.43931523080567 15.917553418632421 6.422299779716888 0 0 0
207 0 2 0.5897 16.30761160496958 14.984143836250205 7.703599566959986 0 0 0
562 0 1 -1.1794 16.749731131818137 17.380586393736053 5.655253391282886 0 0 0
563 0 2 0.5897 17.4619832599044 17.964632833918138 6.036382618118856 0 0 0
347 0 2 0.5897 15.268489058145702 18.015575754077965 6.507706804805322 0 0 0
348 0 2 0.5897 13.6415865505464 17.999980052603235 6.407467086145655 0 0 0
346 0 1 -1.1794 14.455245527343937 18.430207631235284 6.868080301732171 0 0 0
371 0 2 0.5897 14.360444185503459 18.479358381145467 8.616910220234406 0 0 0
700 0 1 -1.1794 3.1396904028357318 23.15871181457966 6.758493719893941 0 0 0
701 0 2 0.5897 2.971847525355904 23.229029051509443 7.717135344642881 0 0 0
702 0 2 0.5897 2.3778551015684113 22.68686191736873 6.381663555456741 0 0 0
414 0 2 0.5897 1.33851999979223 20.37356304859204 6.339484421208079 0 0 0
412 0 1 -1.1794 1.1711733245230198 21.290450219329635 6.082825073421476 0 0 0
413 0 2 0.5897 1.2962355601157352 21.28906042139654 5.118283960096917 0 0 0
248 0 2 0.5897 4.452166860883515 22.051067479671474 6.301238300332936 0 0 0
249 0 2 0.5897 5.024267117985176 21.394230867041443 4.9431986090166 0 0 0
247 0 1 -1.1794 5.0634095882532355 21.406244698887626 5.902121300203515 0 0 0
31 0 1 -1.1794 7.403116668480734 22.611729405888724 6.4601594633600365 0 0 0
32 0 2 0.5897 8.204229993525834 22.142080519526445 6.196345055497382 0 0 0
33 0 2 0.5897 6.6801302940945355 22.010639756452683 6.178944276465819 0 0 0
86 0 2 0.5897 7.42287909624525 22.90693949079546 8.227666163571183 0 0 0
387 0 2 0.5897 4.963721632791018 19.544796978058038 6.124371198496634 0 0 0
591 0 2 0.5897 9.903947175250874 21.570592363746492 4.826810231798031 0 0 0
171 0 2 0.5897 12.481634107689542 23.59304825659076 6.3374391451786085 0 -1 0
589 0 1 -1.1794 9.870130936685722 21.296219424040245 5.78317254924158 0 0 0
169 0 1 -1.1794 12.381645245687551 22.664274835384496 6.664242435615877 0 0 0
170 0 2 0.5897 13.11209384360154 22.163582349863205 6.414100209150042 0 0 0
302 0 2 0.5897 9.977557384501388 19.545866700340895 6.3764916165872805 0 0 0
590 0 2 0.5897 10.648704798219374 21.710853019012973 6.214777862342625 0 0 0
330 0 2 0.5897 11.798212071581549 22.629093605175164 8.312757664449174 0 0 0
352 0 1 -1.1794 16.79582797349606 22.473773794114813 6.630455441932202 0 0 0
353 0 2 0.5897 17.64770504818648 22.123322975317286 6.475673965235984 0 0 0
354 0 2 0.5897 16.649326185653024 22.45334220324864 7.561906031732093 0 0 0
532 0 1 -1.1794 14.641797118396513 20.901893485246553 5.623218249100335 0 0 0
533 0 2 0.5897 15.38057472999761 21.473786815711797 5.842589992457701 0 0 0
534 0 2 0.5897 14.6225669814439 20.099961950103264 6.2252984696265745 0 0 0
36 0 2 0.5897 0.7321824063717765 2.697472628449121 9.804121563820962 0 0 0
167 0 2 0.5897 3.1821898719004937 2.048249441140329 11.862460444910742 0 0 0
673 0 1 -1.1794 2.9300596095946903 2.3033293456063246 10.10961435564858 0 0 0
674 0 2 0.5897 3.6763408107595374 2.777459016570497 9.694148618064544 0 0 0
675 0 2 0.5897 3.1892140444709396 1.3573297003905345 9.934209347165831 0 0 0
35 0 2 0.5897 0.19469573159068293 4.044700726906603 10.212350482947901 0 0 0
166 0 1 -1.1794 3.1249509006274234 1.9697014961234651 12.821871249327392 0 0 0
168 0 2 0.5897 2.273259946695331 2.1910914157666825 13.172614043565916 0 0 0
459 0 2 0.5897 4.617186086064152 2.673970327655523 13.322649276805652 0 0 0
737 0 2 0.5897 3.265439668481733 0.20132718149843945 13.285480170615662 0 0 0
274 0 1 -1.1794 5.452635050015255 3.371271091181666 9.129984574412527 0 0 0
276 0 2 0.5897 6.148312348647687 2.861936932501122 9.591348675573004 0 0 0
355 0 1 -1.1794 7.3774125511381765 1.7425216267724937 10.296881756169842 0 0 0
357 0 2 0.5897 7.476061962599939 1.75479590476721 11.306123010578409 0 0 0
356 0 2 0.5897 7.4334626829928085 0.8885548835820827 9.90363239761683 0 0 0
592 0 1 -1.1794 7.643365835012317 1.6222552302642221 12.965805424293114 0 0 0
762 0 2 0.5897 5.500567005631075 4.628138167198708 13.168301278078928 0 0 0
593 0 2 0.5897 7.5721558728336795 0.7345985611829654 13.290964398617792 0 0 0
176 0 2 0.5897 8.716020899450637 2.577390345779873 9.502193439652796 0 0 0
175 0 1 -1.1794 9.460805527049775 3.117814638412733 9.301432582705926 0 0 0
514 0 1 -1.1794 11.438602310161539 1.4539193331114884 10.326756454937732 0 0 0
515 0 2 0.5897 11.4541581889948 1.536882543310882 11.265899955606967 0 0 0
516 0 2 0.5897 10.686917254152174 1.8443130866677289 9.89216408840978 0 0 0
757 0 1 -1.1794 11.488446097009318 1.704721707512265 13.122342585495058 0 0 0
849 0 2 0.5897 12.81489340411915 2.38691084129686 9.609418206733267 0 0 0
34 0 1 -1.1794 17.863863184165545 3.2480732275761817 9.679351832686773 -1 0 0
847 0 1 -1.1794 13.630538636171412 2.880073515218928 9.349949359350854 0 0 0
652 0 1 -1.1794 15.879084820404728 1.7371818705863382 10.364057234644482 0 0 0
653 0 2 0.5897 15.881815425575686 1.7752789077004163 11.373417508496876 0 0 0
654 0 2 0.5897 16.549830466745973 2.370451727414323 10.096610394111215 0 0 0
848 0 2 0.5897 14.325538222687056 2.3555664854014498 9.792662169698636 0 0 0
545 0 2 0.5897 13.876132035203932 4.563107974988456 9.36220618687604 0 0 0
131 0 2 0.5897 16.128260703906996 0.07887862691484047 9.689829477085851 0 0 0
439 0 1 -1.1794 16.122576231606892 1.7064543868093616 13.205811534206394 0 0 0
649 0 1 -1.1794 2.6309747678734716 7.139573613580294 9.435741912174365 0 0 0
113 0 2 0.5897 0.7085744801271636 5.575097619270175 11.527418201002487 0 0 0
114 0 2 0.5897 1.4273070682258249 6.142780698936637 10.295340886198405 0 0 0
651 0 2 0.5897 3.4773324001072363 6.6967038594142885 9.665793368039736 0 0 0
112 0 1 -1.1794 0.5324877703842805 5.767295045655633 10.556997204849289 0 0 0
257 0 2 0.5897 2.584274662666336 8.7561905517942 10.026845751387079 0 0 0
678 0 2 0.5897 5.185350457294126 5.090350121144032 10.03723385027565 0 0 0
761 0 2 0.5897 5.433992673791759 5.79910504354116 12.225905774981003 0 0 0
526 0 1 -1.1794 7.605949632250899 7.164793384392841 9.238790429096115 0 0 0
527 0 2 0.5897 7.574527355604477 7.966034968453776 9.778899988637368 0 0 0
528 0 2 0.5897 8.35844888636258 6.6576351836600525 9.587235831558042 0 0 0
676 0 1 -1.1794 5.309640568962676 6.013699977132412 10.460342641371504 0 0 0
677 0 2 0.5897 6.012762897002929 6.402674520956511 9.887256897971243 0 0 0
760 0 1 -1.1794 5.340234407680005 5.566786587409364 13.13102740216719 0 0 0
705 0 2 0.5897 9.493268326704559 4.748451761662644 9.897220950672944 0 0 0
704 0 2 0.5897 9.70421498588175 5.565969250105956 11.099708559696959 0 0 0
313 0 1 -1.1794 11.99549406769083 7.032120359986611 9.36433226555383 0 0 0
314 0 2 0.5897 11.196498368222791 6.555558830928874 9.617794869456471 0 0 0
315 0 2 0.5897 12.753765039506767 6.370430609549037 9.444219505635017 0 0 0
444 0 2 0.5897 11.91276358042023 8.824856058824764 9.897752772606747 0 0 0
703 0 1 -1.1794 9.652528639660149 5.639486807573372 10.179819502152261 0 0 0
850 0 1 -1.1794 9.751396674680244 6.166372165717536 13.002006071386514 0 0 0
815 0 2 0.5897 13.486613801413979 5.984095077369692 13.001540189460949 0 0 0
816 0 2 0.5897 14.101763764679765 5.246270209149812 11.73012959309205 0 0 0
622 0 1 -1.1794 16.18387203077939 7.315264394063804 9.61142230546129 0 0 0
544 0 1 -1.1794 13.994702914565169 5.476314582562183 9.711888718255903 0 0 0
546 0 2 0.5897 14.868301466317838 5.9125796562839135 9.464633175542641 0 0 0
623 0 2 0.5897 16.933872779025187 6.900463929816014 10.061865900305557 0 0 0
624 0 2 0.5897 16.220631361267813 8.286335255268682 9.784323366268858 0 0 0
814 0 1 -1.1794 14.095548895476341 5.178485408787748 12.715279725675037 0 0 0
194 0 2 0.5897 16.88007141691324 8.879182990140515 12.910159312522342 0 0 0
256 0 1 -1.1794 2.6878217107000753 9.697432369242524 10.382952619443438 0 0 0
797 0 2 0.5897 2.929509248632887 9.687707465370716 12.353152668250878 0 0 0
13 0 1 -1.1794 0.7602072499576097 11.474812228417411 9.545652194379192 0 0 0
258 0 2 0.5897 3.4594717722198207 9.987307045696364 9.907228673435805 0 0 0
15 0 2 0.5897 1.4417141797458501 11.044411853229544 10.012196916308215 0 0 0
14 0 2 0.5897 0.6178079821653802 12.32920613997753 10.017318484364631 0 0 0
767 0 2 0.5897 0.4289507931776807 13.89111373732201 11.823818061028085 0 0 0
766 0 1 -1.1794 0.43370004519658417 13.891854858184562 10.854373561093015 0 0 0
812 0 2 0.5897 3.5848203206680433 14.04430657775876 9.853264210476656 0 0 0
821 0 2 0.5897 7.527885433319717 9.918157732623353 11.522964371464802 0 0 0
820 0 1 -1.1794 7.574563355606209 9.83006202045564 10.568096644251671 0 0 0
580 0 1 -1.1794 5.131730551469738 10.35881998896629 9.216462581512138 0 0 0