LAMMPS (29 Sep 2021 - Update 2)
  using 1 OpenMP thread(s) per MPI task
plugin load libdeepmd_lmp.so
Loading plugin: deepmd pair style v2.0 by Han Wang
Loading plugin: compute deeptensor/atom v2.0 by Han Wang
Loading plugin: fix dplr v2.0 by Han Wang
echo both

include		in.partitions
variable        pid world 0
include		in.temp
variable        temperature equal 260
variable        tempDamp equal 0.100
include		in.pressure
variable        pressure equal 0.986923
variable        pressureDamp equal 1.0 # This is 1 ps
include		in.seed
variable        seed world 745823

units           metal
atom_style	full
include		in.box
read_data       water.data
Reading data file ...
  orthogonal box = (0.0000000 0.0000000 0.0000000) to (18.207573 23.629177 22.213196)
  1 by 1 by 1 MPI processor grid
  reading atoms ...
  864 atoms
  reading velocities ...
  864 velocities
Finding 1-2 1-3 1-4 neighbors ...
  special bond factors lj:    0        0        0       
  special bond factors coul:  0        0        0       
     0 = max # of 1-2 neighbors
     0 = max # of 1-3 neighbors
     0 = max # of 1-4 neighbors
     1 = max # of special neighbors
  special bonds CPU = 0.000 seconds
  read_data CPU = 0.050 seconds
include 	in.setup
variable	out_freq equal 500
variable	out_freq2 equal 500

timestep        0.0005

neigh_modify    delay 7 every 1

include         in.deepmd
# This is deepMD model

# create groups ###
#group ox type 2
#group hy type 1

mass 2 15.999
mass 1 1.008

pair_style      deepmd ../graph.pb
pair_coeff      * *

bond_style      none
angle_style     none
dihedral_style  none
improper_style  none
neigh_modify exclude none


neighbor        2.0 bin
neigh_modify    every 10 delay 0 check no

thermo          ${out_freq}
thermo          500
thermo_style 	custom step temp pe etotal epair emol press lx ly lz xy xz yz vol pxx pyy pzz pxy pxz pyz cella cellb cellc cellalpha cellbeta cellgamma


restart 	${out_freq} restart.lmp.${pid} restart2.lmp.${pid}
restart 	500 restart.lmp.${pid} restart2.lmp.${pid}
restart 	500 restart.lmp.0 restart2.lmp.${pid}
restart 	500 restart.lmp.0 restart2.lmp.0


include         in.dump
dump            myDump all atom ${out_freq2} dump.water.${pid}
dump            myDump all atom 500 dump.water.${pid}
dump            myDump all atom 500 dump.water.0
dump            myDump2 all dcd ${out_freq2} dump.dcd
dump            myDump2 all dcd 500 dump.dcd
dump_modify     myDump append yes
dump_modify     myDump2 append yes


timer           timeout 23:50:00 every 1000
New timer settings: style=normal  mode=nosync  timeout=23:50:00

fix             2 all nph aniso ${pressure} ${pressure} ${pressureDamp}
fix             2 all nph aniso 0.986923 ${pressure} ${pressureDamp}
fix             2 all nph aniso 0.986923 0.986923 ${pressureDamp}
fix             2 all nph aniso 0.986923 0.986923 1
fix             3 all temp/csvr ${temperature} ${temperature} ${tempDamp} ${seed}
fix             3 all temp/csvr 260 ${temperature} ${tempDamp} ${seed}
fix             3 all temp/csvr 260 260 ${tempDamp} ${seed}
fix             3 all temp/csvr 260 260 0.1 ${seed}
fix             3 all temp/csvr 260 260 0.1 745823
velocity 	all create ${temperature} ${seed} dist gaussian
velocity 	all create 260 ${seed} dist gaussian
velocity 	all create 260 745823 dist gaussian

run             400000

CITE-CITE-CITE-CITE-CITE-CITE-CITE-CITE-CITE-CITE-CITE-CITE-CITE

Your simulation uses code contributions which should be cited:

- USER-DEEPMD package:

@article{Wang_ComputPhysCommun_2018_v228_p178,
  author = {Wang, Han and Zhang, Linfeng and Han, Jiequn and E, Weinan},
  doi = {10.1016/j.cpc.2018.03.016},
  url = {https://doi.org/10.1016/j.cpc.2018.03.016},
  year = 2018,
  month = {jul},
  publisher = {Elsevier {BV}},
  volume = 228,
  journal = {Comput. Phys. Commun.},
  title = {{DeePMD-kit: A deep learning package for many-body potential energy representation and molecular dynamics}},
  pages = {178--184}
}

CITE-CITE-CITE-CITE-CITE-CITE-CITE-CITE-CITE-CITE-CITE-CITE-CITE

Neighbor list info ...
  update every 10 steps, delay 0 steps, check no
  max neighbors/atom: 2000, page size: 100000
  master list distance cutoff = 8
  ghost atom cutoff = 8
  binsize = 4, bins = 5 6 6
  1 neighbor lists, perpetual/occasional/extra = 1 0 0
  (1) pair deepmd, perpetual
      attributes: full, newton on
      pair build: full/bin
      stencil: full/bin/3d
      bin: standard
Per MPI rank memory allocation (min/avg/max) = 7.189 | 7.189 | 7.189 Mbytes
Step Temp PotEng TotEng E_pair E_mol Press Lx Ly Lz Xy Xz Yz Volume Pxx Pyy Pzz Pxy Pxz Pyz Cella Cellb Cellc CellAlpha CellBeta CellGamma 
       0          260   -169.12462   -140.12123   -169.12462            0   -24374.872    18.207573    23.629177    22.213196            0            0            0    9556.7825   -24725.589   -23827.692   -24571.334    -2.235479    312.46159   -222.91034    18.207573    23.629177    22.213196           90           90           90 
     500    245.04808   -149.70465   -122.36917   -149.70465            0   -2970.8603    17.995944    23.309707    21.920574            0            0            0    9195.2463   -6187.9762   -1325.0096   -1399.5952   -1038.4408   -198.02143   -481.85906    17.995944    23.309707    21.920574           90           90           90 
    1000    242.85404   -144.58547   -117.49473   -144.58547            0   -210.59747    17.804846    23.099195    21.840103            0            0            0     8982.345    172.19083   -1654.9901    851.00681   -446.63852    415.46783    763.82175    17.804846    23.099195    21.840103           90           90           90 
    1500     259.1762   -147.47075   -118.55926   -147.47075            0    -20.54047     18.05716    23.428872    22.227926            0            0            0    9403.7216     2475.594    464.44859    -3001.664   -1556.8519    812.29337   -147.46658     18.05716    23.428872    22.227926           90           90           90 
    2000    267.38308   -145.57525   -115.74826   -145.57525            0    246.00319    18.081067    23.412548      22.1399            0            0            0    9372.3478    1382.6215    -177.2837   -467.32819   -819.85509   -1436.1231   -329.13678    18.081067    23.412548      22.1399           90           90           90 
    2500     276.0316   -146.40734    -115.6156   -146.40734            0   -2203.6402    18.065833    23.397088    21.994178            0            0            0    9296.6729   -3990.1975   -249.69466   -2371.0284    2591.0832   -1161.9229    53.242436    18.065833    23.397088    21.994178           90           90           90 
    3000    269.23108   -144.72334    -114.6902   -144.72334            0    3230.9287    17.906265    23.359898    22.038021            0            0            0     9218.251    3347.0064     548.3079    5797.4717   -279.45714    1094.4176    85.179485    17.906265    23.359898    22.038021           90           90           90 
    3500     257.6768   -145.29192   -116.54768   -145.29192            0    -843.0349    17.971963    23.452267    22.256537            0            0            0    9380.7578   -487.57082   -996.47283   -1045.0611    1402.6252   -1157.2921   -62.550621    17.971963    23.452267    22.256537           90           90           90 
    4000    252.96678   -145.63655   -117.41773   -145.63655            0    -3134.894    18.171258    23.511921    22.345735            0            0            0     9547.018   -2547.5229   -3325.8828   -3531.2764   -174.07242   -804.67377   -462.66408    18.171258    23.511921    22.345735           90           90           90 
    4500    245.58787   -144.22361   -116.82791   -144.22361            0     4733.974    17.983871    23.165993    21.863777            0            0            0    9108.7607    3429.4476    3512.1379    7260.3363    312.95869     88.31575    257.32226    17.983871    23.165993    21.863777           90           90           90 
    5000    258.74842   -145.20214   -116.33837   -145.20214            0    93.606012    18.061806      23.3376    22.088622            0            0            0    9310.7784    2774.9441   -444.82897   -2049.2971    720.71084    65.300457   -1163.8521    18.061806      23.3376    22.088622           90           90           90 
    5500    260.09766   -146.66825   -117.65396   -146.66825            0   -3862.1458    18.132889    23.436444     22.30818            0            0            0    9480.3171   -3578.3449   -1427.4468   -6580.6457    -1034.469    202.96331    364.82151    18.132889    23.436444     22.30818           90           90           90 
    6000     267.8289   -146.87146   -116.99474   -146.87146            0    3385.3889    18.037116    23.314123    22.091777            0            0            0    9290.0238    1806.0446    2972.6114    5377.5108    77.698087    636.67097     394.8884    18.037116    23.314123    22.091777           90           90           90 
    6500     252.2345   -145.50746   -117.37032   -145.50746            0   -1072.3807    18.058999    23.405351     22.04434            0            0            0    9317.6401   -3643.3973   -2186.0372    2612.2925   -1209.1739   -31.386432    198.02012    18.058999    23.405351     22.04434           90           90           90 
    7000    267.04134   -144.90308   -115.11422   -144.90308            0    478.67212    18.021751     23.53429    22.133508            0            0            0    9387.4651    2146.8356   -991.11928    280.30001    1983.1651   -1006.7811    -1379.935    18.021751     23.53429    22.133508           90           90           90 
    7500      264.178   -144.90905    -115.4396   -144.90905            0   -164.42803    18.084157    23.591978    22.249202            0            0            0    9492.4227   -136.40401    -734.3194    377.43931    1398.1393   -960.92003    910.80975    18.084157    23.591978    22.249202           90           90           90 
    8000    248.72502   -144.21796   -116.47231   -144.21796            0   -600.29432    18.012699    23.318524    22.138725            0            0            0     9298.919    1089.1129   -2653.6872   -236.30867    2164.9815   -871.53524   -691.19392    18.012699    23.318524    22.138725           90           90           90 
    8500    268.99477   -146.62983   -116.62306   -146.62983            0    935.91663      18.0534     23.32032    22.064767            0            0            0    9289.5109   -805.95694   -1116.4903    4730.1972    679.28733   -122.05014    810.05032      18.0534     23.32032    22.064767           90           90           90 
    9000    273.89972   -145.26314   -114.70921   -145.26314            0   -398.19768    18.155444    23.448046    22.123231            0            0            0    9418.0737    33.343494   -2057.4883     829.5518   -1443.7054    264.09557    2295.8067    18.155444    23.448046    22.123231           90           90           90 
    9500    260.91534    -144.2149    -115.1094    -144.2149            0    560.55284    18.174297    23.443219    22.180319            0            0            0    9450.2361   -66.816572    2511.2528   -762.77769    655.55372   -77.682315    949.67514    18.174297    23.443219    22.180319           90           90           90 
   10000     259.9068   -143.64718   -114.65419   -143.64718            0    2653.7467    17.941339     23.36706     22.14024            0            0            0    9281.9935    4674.4475    742.00217    2544.7903   -588.53967    551.19198   -1336.0227    17.941339     23.36706     22.14024           90           90           90 
   10500    272.63251   -142.99965   -112.58708   -142.99965            0    82.090865    17.914652    23.601334    22.288476            0            0            0    9423.7837     959.5728    476.11137   -1189.4116    1272.7491   -310.53435     848.7218    17.914652    23.601334    22.288476           90           90           90 
   11000    263.33839   -144.28356   -114.90777   -144.28356            0   -2292.3596    18.048347    23.705532    22.167353            0            0            0    9484.2062   -2530.6167   -5690.1985    1343.7365   -1860.9091    142.33254   -57.494203    18.048347    23.705532    22.167353           90           90           90 
   11500    267.66228   -146.19814   -116.34001   -146.19814            0    1225.1628    18.133363    23.350543    21.886238            0            0            0    9267.1555    265.01611     334.1057    3076.3666     915.7397   -1294.7499   -1569.7218    18.133363    23.350543    21.886238           90           90           90 
   12000    268.67495   -144.81523   -114.84413   -144.81523            0   -2210.4332    18.290017    23.274175    22.201559            0            0            0     9450.872   -1909.3786   -5656.3408    934.41988   -1166.9197    1714.6635    197.22486    18.290017    23.274175    22.201559           90           90           90 
   12500    272.39671   -144.83634   -114.45008   -144.83634            0   -1468.3693    18.067922    23.245717     22.31188            0            0            0    9371.0299    -4.800327   -665.57603   -3734.7314    -161.0325    -49.12585    693.22637    18.067922    23.245717     22.31188           90           90           90 
   13000    279.47716   -145.27477   -114.09867   -145.27477            0    3807.1475    17.960697    23.401985    22.198115            0            0            0    9330.2222    4431.2442    2046.9055     4943.293    221.01633   -152.30685   -367.06633    17.960697    23.401985    22.198115           90           90           90 
   13500    264.56055    -146.2873   -116.77517    -146.2873            0   -977.24806    18.108888    23.681904    22.100074            0            0            0    9477.6818    1932.4717   -4277.2349   -586.98095    1517.8842    1710.9707   -1253.9763    18.108888    23.681904    22.100074           90           90           90 
   14000    257.23782   -145.37953   -116.68427   -145.37953            0   -2901.5023    18.019533    23.485258    21.991726            0            0            0    9306.7528   -1716.0028   -1152.2125   -5836.2915   -964.42194    1040.1965   -2114.6558    18.019533    23.485258    21.991726           90           90           90 
   14500    249.52121   -145.38715   -117.55268   -145.38715            0   -419.27181    18.084997    23.396683    22.205925            0            0            0    9395.9696   -2000.7794    1937.7312   -1194.7673     648.8137    592.06123    815.12782    18.084997    23.396683    22.205925           90           90           90 
   15000    270.55308     -146.462    -116.2814     -146.462            0    3009.7004    18.099216    23.258659    22.292639            0            0            0     9384.387    4783.5815    1482.9531    2762.5664    274.91997   -2524.7764   -491.01531    18.099216    23.258659    22.292639           90           90           90 
   15500    258.13036   -144.61274   -115.81791   -144.61274            0    904.94268    18.106861    23.275821    22.171097            0            0            0    9344.0545   -436.28604    836.18649    2314.9276    590.21955     -528.861    -1209.101    18.106861    23.275821    22.171097           90           90           90 
   16000    266.02301   -145.84419   -116.16892   -145.84419            0   -219.91246    18.118183    23.472786     22.03508            0            0            0    9371.1722   -973.40129    1098.4545   -784.79063    681.90106    146.97192    1596.7573    18.118183    23.472786     22.03508           90           90           90 
   16500    264.47339   -145.11261   -115.61021   -145.11261            0   -1084.7741    18.040624    23.657777    21.955379            0            0            0    9370.5788   -3934.9984   -2591.2769    3271.9531    1249.6816   -398.37061   -2334.3686    18.040624    23.657777    21.955379           90           90           90 
   17000    256.48314   -144.99494   -116.38386   -144.99494            0   -1945.3209    17.935471    23.511353    22.197346            0            0            0    9360.3367    508.84545   -3133.1524   -3211.6558    620.71968   -1348.9899    1904.0561    17.935471    23.511353    22.197346           90           90           90 
   17500     258.3952   -144.16646   -115.34208   -144.16646            0    1010.1335    18.049954    23.296415    22.572883            0            0            0    9491.8799    493.41144    2854.2564    -317.2674    1702.8533     768.5806    -326.2453    18.049954    23.296415    22.572883           90           90           90 
   18000    240.88846   -144.59124   -117.71977   -144.59124            0    1265.9917    18.089701    23.113375    22.170715            0            0            0    9269.8876   -1478.7365    3329.8433    1946.8683   -1451.4438   -1410.2405     140.2923    18.089701    23.113375    22.170715           90           90           90 
   18500     255.3928   -144.87004   -116.38059   -144.87004            0   -1975.5041    18.256402    23.447336    21.941392            0            0            0    9392.3199   -3462.8652    1372.5464   -3836.1936    544.48536    833.01786    2074.4128    18.256402    23.447336    21.941392           90           90           90 
   19000    256.85604   -145.31129   -116.65861   -145.31129            0     943.5267    18.114734    23.560354    22.039672            0            0            0    9406.3013   -285.75411    2106.1233    1010.2109    319.05025    842.08457    519.00084    18.114734    23.560354    22.039672           90           90           90 
   19500    267.18334   -145.79563   -115.99093   -145.79563            0   -234.13253    17.939179    23.460289    22.244709            0            0            0    9361.8711   -121.05203    476.15214   -1057.4977    2242.2936    874.71833    -370.1513    17.939179    23.460289    22.244709           90           90           90 
   20000    263.74178   -146.75112   -117.33033   -146.75112            0   -1445.4943     18.00082    23.426902    22.259015            0            0            0    9386.7034    22.719728   -1138.4894   -3220.7133    3487.7839    262.14532   -1644.4589     18.00082    23.426902    22.259015           90           90           90 
   20500    257.19707   -145.96671   -117.27599   -145.96671            0    84.901609    18.142075    23.362307    22.116805            0            0            0    9374.0029    1433.2168    376.94971   -1555.4617   -1150.4669   -2024.9809    31.939313    18.142075    23.362307    22.116805           90           90           90 
   21000    252.32967   -146.07871   -117.93095   -146.07871            0   -1941.5817    18.225777    23.330261    22.095002            0            0            0     9395.063   -2220.4229   -877.86664   -2726.4554     2892.842    13.172763    520.59301    18.225777    23.330261    22.095002           90           90           90 
   21500    243.24923   -145.52564   -118.39082   -145.52564            0   -1644.4517    18.081325    23.356904    22.145781            0            0            0      9352.69   -2698.5607   -287.78637   -1947.0081    104.22863   -207.61979    1940.9675    18.081325    23.356904    22.145781           90           90           90 
   22000    257.03884    -145.6692   -116.99613    -145.6692            0    2149.4805    17.948406    23.582453    22.254953            0            0            0    9419.7973    2961.7202    792.86392    2693.8573    366.10176    1430.2767     294.7623    17.948406    23.582453    22.254953           90           90           90 
   22500    255.42635    -145.3015   -116.80831    -145.3015            0    2691.1475    17.889816    23.659456    22.207503            0            0            0    9399.6216    1456.2653    2658.0667    3959.1105    2451.7369   -570.77518   -678.15759    17.889816    23.659456    22.207503           90           90           90 
   23000    255.72177   -146.01999   -117.49384   -146.01999            0   -931.98525    18.047125    23.391376    22.058292            0            0            0    9311.8438    1016.3691   -3203.5828   -608.74205    1730.7467    1252.2617    2305.4844    18.047125    23.391376    22.058292           90           90           90 
   23500    261.27225   -144.97873   -115.83342   -144.97873            0    86.806996    18.296635    23.268208    22.170357            0            0            0     9438.584   -524.40991    1342.3186   -557.48775   -1612.0614   -394.73421    749.08112    18.296635    23.268208    22.170357           90           90           90 
   24000    272.00246   -144.73875   -114.39646   -144.73875            0    1971.6502    18.231663    23.196065    22.207499            0            0            0    9391.6147    3346.2238    4734.6927    -2165.966   -307.92142     335.2562   -1931.9823    18.231663    23.196065    22.207499           90           90           90 
   24500    265.82127   -145.68921   -116.03645   -145.68921            0   -1277.0573    18.005635    23.423315    22.174578            0            0            0    9352.1654   -328.43594   -568.88018   -2933.8558   -587.53898    395.99917    993.20167    18.005635    23.423315    22.174578           90           90           90 
   25000    270.48053   -144.45255   -114.28004   -144.45255            0    676.54349      17.9242    23.728614    22.175519            0            0            0    9431.6125   -1149.2321    2584.3561    594.50651   -699.34818    470.33378    527.97846      17.9242    23.728614    22.175519           90           90           90 
   25500     269.7843   -144.29665   -114.20181   -144.29665            0   -1322.6117    17.941222    23.640486    22.183388            0            0            0    9408.8447    1088.2273     -4135.22   -920.84247   -965.93459    615.40639    109.17458    17.941222    23.640486    22.183388           90           90           90 
   26000    273.19653   -144.74717   -114.27169   -144.74717            0   -405.44208    18.108982    23.347932    22.193746            0            0            0    9383.6776   -2.7002813    463.82276   -1677.4487   -1007.2999    843.95139    1521.3269    18.108982    23.347932    22.193746           90           90           90 
   26500    252.69424   -144.06414   -115.87571   -144.06414            0    1741.3906    18.351973    23.247016    22.243493            0            0            0    9489.7109   -422.35971    5706.7257   -60.194142   -1196.6362    608.88345   -600.88124    18.351973    23.247016    22.243493           90           90           90 
   27000    266.09249   -144.06615   -114.38313   -144.06615            0    402.01591    18.169725    23.183469    22.107155            0            0            0    9312.3577   -403.07615    1446.0218    163.10208    1157.8899   -1345.5189    140.56766    18.169725    23.183469    22.107155           90           90           90 
   27500    267.26456   -145.24447    -115.4307   -145.24447            0   -299.21609    17.981396    23.509497    22.153776            0            0            0    9365.1453   -1164.8001   -81.093038    348.24489    1508.2931    2861.3515    -796.6896    17.981396    23.509497    22.153776           90           90           90 
   28000    263.37435   -146.06808   -116.68827   -146.06808            0    1492.2294    17.981779    23.786896    22.329745            0            0            0    9551.1178    2771.4671     830.0702    875.15105    346.77816    -183.2212   -301.82511    17.981779    23.786896    22.329745           90           90           90 
   28500    259.33963    -143.7779   -114.84817    -143.7779            0   -1075.9733    17.961043    23.448683    22.118654            0            0            0    9315.5544    1801.2279   -2172.8865   -2856.2613   -989.32708   -93.853987   -366.09102    17.961043    23.448683    22.118654           90           90           90 
   29000    253.60045    -144.4754   -116.18588    -144.4754            0   -3004.7537    18.183164    23.330792    22.156816            0            0            0    9399.5332   -7844.3619   -932.08394   -237.81534    236.71645   -336.58122   -103.87003    18.183164    23.330792    22.156816           90           90           90 
   29500    270.51335   -144.34792   -114.17175   -144.34792            0   -2791.4604    18.215961    23.321116    22.167882            0            0            0    9417.2828   -2510.7468   -2750.2434   -3113.3911    893.34827    2173.6302    374.67747    18.215961    23.321116    22.167882           90           90           90 
   30000    274.10809   -143.09119   -112.51402   -143.09119            0   -2622.3066    18.122419    23.453215    22.173701            0            0            0    9424.4662   -5485.0988   -2772.5918    390.77089   -382.27894    -1424.119   -2145.6056    18.122419    23.453215    22.173701           90           90           90 
   30500    263.75717   -143.55596   -114.13345   -143.55596            0   -1157.2416    17.998784    23.649379    22.141418            0            0            0    9424.7176    419.75044   -2497.8196   -1393.6557    1226.7107   -1344.7086    799.75107    17.998784    23.649379    22.141418           90           90           90 
   31000    269.70166   -144.24037   -114.15474   -144.24037            0    1719.0842    17.928928     23.58444    22.086319            0            0            0    9339.0613     2142.635    431.19748    2583.4201   -649.21157   -889.80744    385.89656    17.928928     23.58444    22.086319           90           90           90 
   31500      261.926   -144.07953    -114.8613   -144.07953            0   -2620.6132    18.127976    23.512786    22.289194            0            0            0     9500.529   -2494.4095   -4490.6682   -876.76198    -296.4631   -1521.5347   -1334.4954    18.127976    23.512786    22.289194           90           90           90 
   32000    261.33139   -144.80212   -115.65021   -144.80212            0   -38.792792    18.157834    23.213064    22.190427            0            0            0     9353.242   -1359.5126   -239.94926    1483.0835    530.28214   -1238.1802    1959.5652    18.157834    23.213064    22.190427           90           90           90 
   32500    255.90264   -144.23544   -115.68912   -144.23544            0   -1196.5783    18.239907    23.264345    22.131535            0            0            0    9391.2841   -2478.6112   -1756.2581    645.13453    555.58826     1523.761    905.87395    18.239907    23.264345    22.131535           90           90           90 
   33000    254.15382     -143.782   -115.43076     -143.782            0   -2458.6866    18.115106    23.566191    22.184779            0            0            0     9470.772    -512.5491   -903.18115   -5960.3297   -2912.7241   -590.56413    1298.0198    18.115106    23.566191    22.184779           90           90           90 
   33500    260.73373   -144.85464    -115.7694   -144.85464            0    99.685965    17.879787    23.641423    22.179202            0            0            0    9375.2289    2132.7724    1079.5599   -2913.2744    529.23194    2041.2176    -1499.354    17.879787    23.641423    22.179202           90           90           90 
   34000    265.73137   -147.60017   -117.95743   -147.60017            0   -1635.8317    17.897176     23.60901    22.248307            0            0            0    9400.6799   -1247.4211     59.42542   -3719.4993    -571.4458   -1663.2518    290.30402    17.897176     23.60901    22.248307           90           90           90 
   34500    245.20942   -145.79504   -118.44156   -145.79504            0   -1904.7812    18.173709    23.346577    22.196284            0            0            0    9417.7478   -4873.9525    1180.8107   -2021.2018   -561.63398   -852.64054    1290.2498    18.173709    23.346577    22.196284           90           90           90 
   35000    246.86914   -145.77188   -118.23326   -145.77188            0    602.19779    18.349045    23.048857    22.080111            0            0            0    9338.2205   -37.795414    1877.6553   -33.266518     1745.757   -1382.6115    -555.2354    18.349045    23.048857    22.080111           90           90           90 
   35500     250.8318   -145.57152   -117.59085   -145.57152            0   -361.28225    18.264181    23.226782     22.20374            0            0            0    9419.2295   -433.29589   -1764.8344    1114.2835   -762.97105    1939.6124   -1036.2459    18.264181    23.226782     22.20374           90           90           90 
   36000    263.61533   -146.20403   -116.79734   -146.20403            0   -621.11465    17.963235    23.673852    22.253827            0            0            0    9463.6398    507.97749   -1786.7851   -584.53633    1151.6985    840.99383   -800.12316    17.963235    23.673852    22.253827           90           90           90 
   36500    252.49258   -144.31496   -116.14903   -144.31496            0    2529.4275     17.81284    23.780308    22.207969            0            0            0    9407.1808    4796.7062    2181.0164     610.5599   -99.725964    2030.5895   -1406.9395     17.81284    23.780308    22.207969           90           90           90 
   37000    256.49391   -144.62846   -116.01618   -144.62846            0    1081.5073    17.940026    23.561603     22.14955            0            0            0    9362.5209   -1631.6798    2070.2531    2805.9485     2276.826   -43.497847    338.16145    17.940026    23.561603     22.14955           90           90           90 
   37500     252.6242   -144.64195   -116.46134   -144.64195            0   -361.64667    18.188329    23.416292    22.173536            0            0            0    9443.7804   -2086.5771   -2119.4958    3121.1329   -2063.4082   -1194.0391    -42.10139    18.188329    23.416292    22.173536           90           90           90 
   38000    267.10704   -145.03072   -115.23452   -145.03072            0    884.66997     18.26214    23.341068    22.210361            0            0            0    9467.3407    1984.9208    92.709939    576.37913   0.60444074   -140.89697    -296.4342     18.26214    23.341068    22.210361           90           90           90 
   38500    265.09427   -145.14396   -115.57229   -145.14396            0    2140.6932    18.088772     23.26015    22.168028            0            0            0    9327.1434    896.73404    3288.7806    2236.5649   -968.44161   -1474.3676    1609.7361    18.088772     23.26015    22.168028           90           90           90 
   39000    249.13223   -144.02001   -116.22893   -144.02001            0   -1421.6806    18.075229     23.45285    22.237755            0            0            0    9426.9319    2696.5133   -3765.2663   -3196.2887    3068.2096   -169.87372    418.26973    18.075229     23.45285    22.237755           90           90           90 
   39500    267.07274   -145.50856   -115.71619   -145.50856            0    173.77869    18.090873    23.617815    22.191392            0            0            0    9481.6471    240.82685    380.43834   -99.929126    -1723.427    220.76467   -298.85618    18.090873    23.617815    22.191392           90           90           90 
   40000    257.53535   -145.33139   -116.60293   -145.33139            0    2609.8382    18.038948    23.528797    22.116712            0            0            0    9387.1012    79.666504    2498.3318    5251.5164   -671.60277   -1680.2454    726.73748    18.038948    23.528797    22.116712           90           90           90 
   40500    253.35064   -145.43789   -117.17625   -145.43789            0   -1059.4266     18.01329    23.298508    22.183556            0            0            0    9310.0564    116.36956   -3511.4986    216.84927   -1971.9099    1225.6047   -2589.1438     18.01329    23.298508    22.183556           90           90           90 
   41000    262.96711   -145.37875   -116.04437   -145.37875            0    -633.6772    18.231497    23.353001     22.35007            0            0            0    9515.7697    961.96932    1158.3773   -4021.3782    1030.1007   -672.26336    1597.7713    18.231497    23.353001     22.35007           90           90           90 
   41500     261.1383   -144.90067    -115.7703   -144.90067            0    387.87684    18.199587    23.395252    22.110699            0            0            0    9414.3801   -1731.7286     2540.011    355.34811    -28.57264   -541.29879   -827.57244    18.199587    23.395252    22.110699           90           90           90 
   42000    256.69713   -144.44875    -115.8138   -144.44875            0   -481.63969    18.003377     23.59149    21.985186            0            0            0    9337.6908   -1303.7134   -1137.9227    996.71702   -429.84108     1613.202   -229.70099    18.003377     23.59149    21.985186           90           90           90 
   42500    261.02748   -144.27588   -115.15787   -144.27588            0   -261.95337    17.926933    23.658392    22.220061            0            0            0    9424.0259   -809.66403    947.00908   -923.20517    -1063.018   -1649.4172   -1798.6326    17.926933    23.658392    22.220061           90           90           90 
   43000    262.05749   -144.20409   -114.97118   -144.20409            0    353.18402    18.006258    23.486287    22.388285            0            0            0    9468.0087    868.62577   -259.26986    450.19616   -437.37108    831.21859    1060.6899    18.006258    23.486287    22.388285           90           90           90 
   43500    258.48971   -145.10717   -116.27225   -145.10717            0    1559.9495    18.233714    23.218031     22.19118            0            0            0    9394.6566   -1492.6329    2787.2347    3385.2467    3023.9153   -594.17945    15.056274    18.233714    23.218031     22.19118           90           90           90 
   44000    264.67716   -145.79589   -116.27075   -145.79589            0    168.69601    18.380738    23.231181    21.960729            0            0            0    9377.3684   -211.39709    3473.1164   -2755.6313   -1444.6152    1155.4083    925.60782    18.380738    23.231181    21.960729           90           90           90 
   44500     257.1382   -144.06091   -115.37676   -144.06091            0    737.65642    18.218065    23.475173    22.031101            0            0            0    9422.0897    1510.3697    94.599225    608.00033   -1954.1305    752.06587   -7.2568148    18.218065    23.475173    22.031101           90           90           90 
   45000    251.61929   -146.01259   -117.94408   -146.01259            0   -3816.0368    17.823038    23.709584    22.354744            0            0            0    9446.5964   -3709.5259   -2644.9234   -5093.6611   -336.96819    1408.7492    1990.0893    17.823038    23.709584    22.354744           90           90           90 
   45500    258.54836   -146.59646     -117.755   -146.59646            0   -1317.1901    17.720924    23.675915    22.369869            0            0            0    9385.4816    2249.7366   -806.54994    -5394.757    800.19717    1647.8814    1437.7559    17.720924    23.675915    22.369869           90           90           90 
   46000    259.56377   -145.70942   -116.75469   -145.70942            0    1162.2521    18.041134    23.510939    22.135263            0            0            0    9388.9817   -1197.5941    2860.7954    1823.5548   -334.14891    403.91924    129.30916    18.041134    23.510939    22.135263           90           90           90 
   46500    266.59992   -146.11932   -116.37969   -146.11932            0   -1201.7364    18.274719    23.371549    22.015932            0            0            0    9403.1913   -3653.7288   -642.88147    691.40108    765.21766   -1195.4414   -1240.1371    18.274719    23.371549    22.015932           90           90           90 
   47000    259.47563   -145.20111   -116.25621   -145.20111            0   -22.702417    18.226069    23.362098    22.134763            0            0            0    9424.9644   -1056.1281    1862.6685   -874.64764   -558.03575   -1009.7304     1259.655    18.226069    23.362098    22.134763           90           90           90 
   47500    254.43555    -143.8462   -115.46353    -143.8462            0   -148.25207    18.067883    23.420748    22.286624            0            0            0    9430.8826   -2076.7865    1575.1626    56.867699   -1937.7326     -2269.24   -17.997164    18.067883    23.420748    22.286624           90           90           90 
   48000    266.56368    -144.7068   -114.97122    -144.7068            0   -68.632167    17.981443    23.526372    22.255882            0            0            0    9415.0867    405.93574   -186.01913   -425.81311    681.52249   -664.17097   -476.82735    17.981443    23.526372    22.255882           90           90           90 
   48500    257.34835   -144.42789   -115.72029   -144.42789            0   -291.02106     18.02184    23.630565    22.157218            0            0            0    9436.0114    -1071.192    537.73978   -339.61096   -669.50911     1047.521    749.56475     18.02184    23.630565    22.157218           90           90           90 
   49000    272.31398   -144.78974   -114.41271   -144.78974            0   -411.78255    18.104993    23.566016    22.112713            0            0            0    9434.6665   -2731.7728    1575.1901   -78.764973   -1258.3784   -1786.0455    1127.2124    18.104993    23.566016    22.112713           90           90           90 
   49500    277.11139   -142.20355   -111.29136   -142.20355            0    548.42023    18.164845    23.378841    22.190462            0            0            0    9423.6906    198.64383   -245.12523    1691.7421   -878.56878   -812.80676   -1499.6415    18.164845    23.378841    22.190462           90           90           90 
   50000    269.58068   -143.81689   -113.74476   -143.81689            0     1303.229    18.194827    23.248684    22.392824            0            0            0    9472.2942   -1157.7164    562.80282    4504.6007   -2880.9474    1224.7866    373.94495    18.194827    23.248684    22.392824           90           90           90 
   50500    254.00281   -144.50285   -116.16845   -144.50285            0    3009.3576    18.057269    23.240827    22.276061            0            0            0    9348.5019    1432.4211    4562.9983    3032.6535    -1874.623   -2425.0925    -1997.381    18.057269    23.240827    22.276061           90           90           90 
   51000    265.95739   -144.58695     -114.919   -144.58695            0    1966.7921    18.043479    23.694896    22.104384            0            0            0    9450.4721    1873.2715    2571.7816    1455.3233   -1344.9943   -105.87735   -764.41903    18.043479    23.694896    22.104384           90           90           90 
   51500    255.84506   -145.00363   -116.46373   -145.00363            0   -155.68472    17.955857    23.804443    22.046141            0            0            0     9423.164    438.33915   -968.50703    63.113716    697.58038   -478.29783     2515.632    17.955857    23.804443    22.046141           90           90           90 
   52000    249.55076   -145.80839   -117.97062   -145.80839            0    -1660.533    17.962401    23.487152    22.208863            0            0            0    9369.6003    -462.6174   -4001.9856   -516.99608   -317.05681    967.71553   -853.63305    17.962401    23.487152    22.208863           90           90           90 
   52500    262.33301   -143.50984    -114.2462   -143.50984            0   -754.04761    18.157587    23.269956    22.413695            0            0            0    9470.3742    1492.8579    1260.1358   -5015.1366   -1432.0942      1892.81   -263.68931    18.157587    23.269956    22.413695           90           90           90 
   53000    263.50457   -145.88253    -116.4882   -145.88253            0    1398.6768    18.241033    23.260846    22.197605            0            0            0    9418.4855   -443.85924    684.47455    3955.4151   -87.088187   -512.21953   -657.35878    18.241033    23.260846    22.197605           90           90           90 
   53500    250.77261   -144.28875   -116.31469   -144.28875            0    1427.3378    18.213231    23.477282    22.021858            0            0            0     9416.484    1375.2827   -207.92525    3114.6559    -1344.228    524.13953    873.78367    18.213231    23.477282    22.021858           90           90           90 
   54000    268.72024   -145.16004    -115.1839   -145.16004            0   -265.55705    18.061598    23.612365    22.103675            0            0            0    9426.7097   -503.22166   -3386.5693    3093.1198   -1372.9103   -685.05367    868.94077    18.061598    23.612365    22.103675           90           90           90 
   54500    252.60772   -146.36605   -118.18728   -146.36605            0    -464.1084    17.927691    23.607226    22.303249            0            0            0    9439.2496   -305.90962   -545.81025   -540.60534   -775.62014    239.70726   -1402.3614    17.927691    23.607226    22.303249           90           90           90 
   55000    265.58306   -146.24415   -116.61796   -146.24415            0     584.9528    17.907202    23.398794    22.288673            0            0            0    9339.1087    4442.5229    730.29879   -3417.9633    330.33915    -2222.921   -14.221258    17.907202    23.398794    22.288673           90           90           90 
   55500     258.7831   -145.99815   -117.13051   -145.99815            0   -773.85905    18.299771    23.417812    22.244821            0            0            0     9532.809   -2022.3392    2734.2248   -3033.4628   -1611.3334   -866.17139    140.15362    18.299771    23.417812    22.244821           90           90           90 
   56000    267.83632   -144.54331   -114.66576   -144.54331            0    2871.1003    18.373844    23.317612    21.854344            0            0            0    9363.1475    2794.7285    3495.3474     2323.225    547.45059    1497.6384   -171.63831    18.373844    23.317612    21.854344           90           90           90 
   56500    270.48011   -144.72262   -114.55016   -144.72262            0   -2943.0428    18.171444    23.510187    22.063389            0            0            0    9425.7898   -3451.0793   -2544.3384   -2833.7108   -2563.8835   -375.29761    -1063.478    18.171444    23.510187    22.063389           90           90           90 
   57000    260.57034   -144.96623   -115.89922   -144.96623            0    565.73521    17.813523    23.631595     22.42959            0            0            0    9442.0042    1172.8489    621.83535   -97.478632   -3698.9644   -284.42845   -1604.4631    17.813523    23.631595     22.42959           90           90           90 
   57500    273.03398   -145.98763   -115.53028   -145.98763            0     1010.178    17.784037    23.515398    22.340909            0            0            0    9342.9389    3896.6169   -1262.1569    396.07403   -405.74625    262.55839   -1100.2273    17.784037    23.515398    22.340909           90           90           90 
   58000    254.91679   -144.13442   -115.69807   -144.13442            0   -1486.6363    18.104821    23.575414    22.192399            0            0            0    9472.3517    -2957.037   -1215.6992    -287.1726    -117.9516   -390.05218   -721.48899    18.104821    23.575414    22.192399           90           90           90 
   58500     259.2227   -145.26763   -116.35095   -145.26763            0    2403.0276    18.171081    23.464245    22.071162            0            0            0    9410.4965   -1944.0791    1448.7948    7704.3672    1475.5493    744.33267    -526.4846    18.171081    23.464245    22.071162           90           90           90 
   59000    259.93133   -143.93373     -114.938   -143.93373            0    453.17105    18.141507    23.458344    22.191717            0            0            0    9444.1229    1372.3999   -337.05067    324.16395    -753.0844    534.76951    513.37199    18.141507    23.458344    22.191717           90           90           90 
   59500    264.71502   -144.93508   -115.40572   -144.93508            0   -49.583584    18.065851    23.437676    22.168541            0            0            0    9386.6381   -662.21367    177.87431     335.5886   -597.73529    295.03953   -1396.3551    18.065851    23.437676    22.168541           90           90           90 
   60000    249.08783   -143.96441   -116.17829   -143.96441            0    -2521.404    18.106693    23.553671    22.231454            0            0            0    9481.2501     -3411.28   -746.80716   -3406.1247   -354.84616    538.28618   -908.61713    18.106693    23.553671    22.231454           90           90           90 
   60500    263.35678   -146.33732   -116.95947   -146.33732            0    723.09998     18.00806    23.462667    22.217243            0            0            0    9387.1656    1024.7732    317.81577    826.71095   -1205.2147   -754.64228    712.91765     18.00806    23.462667    22.217243           90           90           90 
   61000    253.75424   -144.14784   -115.84117   -144.14784            0    -126.7752    18.089129    23.468511    22.224368            0            0            0     9434.798   -1581.2102    1107.0072    93.877415    994.60227    872.85194    -1806.885    18.089129    23.468511    22.224368           90           90           90 
   61500    273.23213     -145.979   -115.49955     -145.979            0    425.99107    18.168293    23.436704    22.067503            0            0            0    9396.4513   -827.88639    625.91924    1479.9404   -341.71881    -1446.605   -470.25569    18.168293    23.436704    22.067503           90           90           90 
   62000     259.5683   -144.03684    -115.0816   -144.03684            0   -916.70704    18.202087    23.446322    22.089996            0            0            0    9427.3912   -3371.9357    601.46431    20.350219   -808.16568     111.5342    45.891412    18.202087    23.446322    22.089996           90           90           90 
   62500    265.16093   -145.17496   -115.59586   -145.17496            0    2065.7229    18.064503    23.452845    22.350666            0            0            0    9469.1722   -482.53715    1089.1121    5590.5938   -249.62314    411.63122   -1307.1528    18.064503    23.452845    22.350666           90           90           90 
   63000    278.16259   -144.47598   -113.44652   -144.47598            0    1461.6016    17.870989    23.425003     22.39145            0            0            0    9373.6874    2305.8202    1859.2238    219.76081   -1695.1178   -483.21887    558.25796    17.870989    23.425003     22.39145           90           90           90 
   63500    256.31294    -144.6613    -116.0692    -144.6613            0     1332.749    17.986875    23.623253    22.205681            0            0            0    9435.3824    1715.0568    2652.5326   -369.34247    1008.4282    627.70365    768.68212    17.986875    23.623253    22.205681           90           90           90 
   64000    261.78447   -144.16304   -114.96059   -144.16304            0   -352.51155    18.217457    23.745507    21.998109            0            0            0    9516.0023    -2016.555     -637.393    1596.4134   -1985.9148   -131.15934     817.5346    18.217457    23.745507    21.998109           90           90           90 
   64500    263.91477   -144.83647   -115.39638   -144.83647            0    1932.0675    18.186968     23.31798     21.99927            0            0            0    9329.5244    2942.5572    1196.3751    1657.2702   -812.43111    99.047181   -1185.7408    18.186968     23.31798     21.99927           90           90           90 
   65000    254.26694   -145.80359   -117.43973   -145.80359            0    659.43767    18.220073    23.200325    22.377512            0            0            0     9459.234    377.28157    1398.0039    203.02753   -2253.0456    596.85705   -1161.7964    18.220073    23.200325    22.377512           90           90           90 
   65500    254.39747   -144.87733   -116.49891   -144.87733            0   -800.31176    18.107592    23.395057     22.33257            0            0            0    9460.7054    1529.4277   -1678.1419    -2252.221   -850.40307   -998.34867    -1426.213    18.107592    23.395057     22.33257           90           90           90 
   66000    267.52621   -144.07598   -114.23303   -144.07598            0    -2069.978     17.99605    23.668228    22.128929            0            0            0    9425.4772   -2583.1706   -5057.8196    1431.0564   -1062.3598    1071.5331    1622.4662     17.99605    23.668228    22.128929           90           90           90 
   66500    268.95402   -144.53063   -114.52841   -144.53063            0    1679.4309    18.016566    23.707284    22.045928            0            0            0    9416.3419      2810.42    339.14451    1888.7283   -1690.2691   -1592.0561    1536.7207    18.016566    23.707284    22.045928           90           90           90 
   67000    256.02587   -144.95994   -116.39987   -144.95994            0   -355.59737    18.118807    23.495756    22.216544            0            0            0    9457.9174    1564.0292   -3716.6416    1085.8204    58.621824    1196.7525    688.44973    18.118807    23.495756    22.216544           90           90           90 
   67500    263.39011   -146.15861   -116.77704   -146.15861            0    1846.2099    18.153951    23.283074    22.342911            0            0            0    9443.8967    2839.1065     1578.698    1120.8252    -1267.317   -2542.4095   -1111.8312    18.153951    23.283074    22.342911           90           90           90 
   68000    258.28115   -145.29677   -116.48512   -145.29677            0   -1695.8462    18.183302    23.268765    22.176256            0            0            0    9382.8398   -2822.2877   -589.99249   -1675.2585    761.26382    189.84822    967.82533    18.183302    23.268765    22.176256           90           90           90 
   68500     268.0675   -145.74566   -115.84232   -145.74566            0   -775.28224    18.205981    23.541159    22.050752            0            0            0    9450.7294    1092.8434   -1213.9984   -2204.6917    2020.7659    797.76004    54.218257    18.205981    23.541159    22.050752           90           90           90 
   69000    251.57669    -145.2861   -117.22234    -145.2861            0    98.365875    17.969979    23.675875     22.03332            0            0            0    9374.1854   -220.27519    150.39698    364.97584    353.16373    441.77315   -815.43904    17.969979    23.675875     22.03332           90           90           90 
   69500    253.08502    -145.7159   -117.48388    -145.7159            0    -1971.181    17.862284    23.673806    22.336412            0            0            0    9445.3595   -1779.9604     -1929.65   -2203.9327   -846.68737   -852.37432    325.24136    17.862284    23.673806    22.336412           90           90           90 
   70000    251.32716   -144.72689   -116.69097   -144.72689            0    1068.2909    18.016675    23.320443    22.427705            0            0            0    9423.1539    2008.8709    1151.9269    44.075054    360.60072   -59.132659   -465.52856    18.016675    23.320443    22.427705           90           90           90 
   70500    258.14001   -145.02326   -116.22735   -145.02326            0   -3406.1366    18.330389    23.108686    22.145921            0            0            0    9380.8171   -5289.8771    -3174.591   -1753.9417    385.89366    937.90389    562.23782    18.330389    23.108686    22.145921           90           90           90 
   71000    261.95062   -145.49975   -116.27876   -145.49975            0   -205.37695    18.456566    23.325888     22.05117            0            0            0    9493.3768    -1533.859   -1261.8992    2179.6274   -730.68037   -486.60051   -1336.7784    18.456566    23.325888     22.05117           90           90           90 
   71500    247.55937   -143.91471   -116.29909   -143.91471            0    1698.0126    18.100007    23.502006    22.126901            0            0            0     9412.484    2796.6808    3598.0931   -1300.7362   -1024.2513    -2089.172     -616.603    18.100007    23.502006    22.126901           90           90           90 
   72000    279.30325   -143.92397   -112.76727   -143.92397            0    1995.5656    17.915493    23.566512    22.216331            0            0            0     9379.861    508.97767    2256.8396    3220.8794   -2272.9604    1435.2612    255.47344    17.915493    23.566512    22.216331           90           90           90 
   72500    265.18167   -144.12448   -114.54306   -144.12448            0     524.7751    18.058753    23.678169    22.312068            0            0            0    9540.6006    427.55509    1423.5345   -276.76426    63.705765   -1690.9214     1171.954    18.058753    23.678169    22.312068           90           90           90 
   73000    256.49119   -144.96772   -116.35574   -144.96772            0   -982.68251    18.120087    23.481987    22.132595            0            0            0    9417.3228    405.76657   -213.28926   -3140.5248   -1775.8786   -2062.8465   -987.99446    18.120087    23.481987    22.132595           90           90           90 
   73500    261.80858   -144.89866   -115.69352   -144.89866            0    45.689433     18.22187    23.345737    22.091546            0            0            0    9397.8095    73.704166    49.385331    13.978802   -70.085554   -964.84188    -189.6787     18.22187    23.345737    22.091546           90           90           90 
   74000    273.49507   -147.15192   -116.64313   -147.15192            0   -579.62529    18.184991    23.355866    22.262541            0            0            0    9455.4848    1842.1391    195.71887   -3776.7338   -546.42718    481.95654    -1017.096    18.184991    23.355866    22.262541           90           90           90 
   74500    251.49831   -143.53686   -115.48185   -143.53686            0    2117.4882    18.045502    23.467228    22.306866            0            0            0    9446.4648    3065.0442    594.26561    2693.1547   -1267.7083     -860.643    829.99108    18.045502    23.467228    22.306866           90           90           90 
   75000    258.79555   -144.38336   -115.51433   -144.38336            0    535.38293    18.015171    23.649643    22.220035            0            0            0    9466.8981    511.54097   -1747.6987    2842.3066   -2019.7178    398.93434   -2127.9561    18.015171    23.649643    22.220035           90           90           90 
   75500     263.4991   -146.41812   -117.02439   -146.41812            0    -2064.566    18.099177    23.672158    22.120375            0            0            0    9477.3989   -1367.3707   -2480.2071   -2346.1203   -345.38849   -2045.4149    225.81349    18.099177    23.672158    22.120375           90           90           90 
   76000    267.31412   -145.77675   -115.95746   -145.77675            0    3698.0125    18.082271    23.321456    22.001524            0            0            0    9278.1504    3814.9445    2457.1963    4821.8967   -813.58395    1776.8706   -1397.0178    18.082271    23.321456    22.001524           90           90           90 
   76500    243.35825   -146.43342   -119.28644   -146.43342            0   -3882.3512    18.279597    23.358154    22.297059            0            0            0    9520.3457   -4387.5889   -3052.7246   -4206.7402    96.463084   -756.27069    1424.8142    18.279597    23.358154    22.297059           90           90           90 
   77000    250.61563   -146.80915    -118.8526   -146.80915            0   -905.89148    18.066873    23.274658    22.221271            0            0            0     9344.051    226.53926   -679.20932   -2265.0044   -1760.5321    707.18812    -1603.087    18.066873    23.274658    22.221271           90           90           90 
   77500    257.18194   -145.10606   -116.41703   -145.10606            0    357.74651    17.975916    23.591229    22.118997            0            0            0    9380.0906    1063.4132    1965.9612   -1956.1349    1249.9383   -172.98947    2119.0622    17.975916    23.591229    22.118997           90           90           90 
   78000    264.89266   -143.67326   -114.12409   -143.67326            0   -949.85351    18.026776    23.853107    22.180119            0            0            0    9537.3318    2299.9171   -3407.9524   -1741.5252   -2608.1437    830.18086   -377.62832    18.026776    23.853107    22.180119           90           90           90 
   78500     254.6119   -145.87452   -117.47218   -145.87452            0    2298.9792    17.954955    23.398043    22.140546            0            0            0    9301.4828    25.252109    2349.0967    4522.5887    1534.5882   -541.21293    396.68234    17.954955    23.398043    22.140546           90           90           90 
   79000      258.856    -146.1202   -117.24443    -146.1202            0   -2652.9684    18.168187    23.284974    22.302836            0            0            0    9435.1203    -861.0959   -3509.3824   -3588.4268    -512.7678   -893.93261    1263.1488    18.168187    23.284974    22.302836           90           90           90 
   79500    262.40199   -143.74018   -114.46884   -143.74018            0   -1555.7685    18.236689    23.392003     22.21025            0            0            0    9474.7302   -3004.3839   -137.33238   -1525.5892    2276.4817    914.92209    1305.0802    18.236689    23.392003     22.21025           90           90           90 
   80000    261.89504   -144.27293   -115.05815   -144.27293            0    2470.6309    18.060145    23.415139    22.076483            0            0            0    9335.7209    1478.3666    2751.7686    3181.7576    1078.6612    964.93169    231.28137    18.060145    23.415139    22.076483           90           90           90 
   80500    256.82382   -143.90134   -115.25225   -143.90134            0   -1888.5366    18.113836    23.563929    22.225686            0            0            0    9486.6595   -3901.2319   -2603.7524     839.3745   -579.50433    56.894131    -136.8199    18.113836    23.563929    22.225686           90           90           90 
   81000     256.3399   -144.69975   -116.10464   -144.69975            0   -1401.9226    18.030663    23.444925    22.135859            0            0            0    9357.4374     207.0396   -3674.2127   -738.59469   -180.44489   -97.513121     599.0516    18.030663    23.444925    22.135859           90           90           90 
   81500    254.33709    -145.2378   -116.86612    -145.2378            0    100.54166    18.084037    23.440595    22.185637            0            0            0    9404.5046   -747.51218    897.06674    152.07042   -1071.4673   -1430.8883     83.94429    18.084037    23.440595    22.185637           90           90           90 
   82000    250.55974   -145.07827   -117.12796   -145.07827            0    1724.7394    18.122924     23.43163    22.265236            0            0            0    9454.9244    3216.7626    2570.5082   -613.05269   -2398.2425    320.30338   -853.04139    18.122924     23.43163    22.265236           90           90           90 
   82500    262.10174   -143.36803   -114.13019   -143.36803            0   -738.08204    18.109084    23.364104    22.250826            0            0            0    9414.3804    608.96956   -1336.7906   -1486.4251     1202.559    480.68594   -1292.6864    18.109084    23.364104    22.250826           90           90           90 
   83000    269.49641    -144.5316   -114.46887    -144.5316            0    245.15415    18.106297    23.498676    22.119323            0            0            0     9411.197    696.92453    1226.8706   -1188.3327   -322.91305     332.2187   -215.69179    18.106297    23.498676    22.119323           90           90           90 
   83500    267.81194   -145.44768   -115.57286   -145.44768            0    918.31707    18.017587    23.596413    22.067814            0            0            0    9382.1401    5017.8522   -1907.0225   -355.87846    246.27432    352.34336    896.92244    18.017587    23.596413    22.067814           90           90           90 
   84000    267.04745   -143.30834   -113.51879   -143.30834            0   -1117.0635    18.059278    23.524356    22.336236            0            0            0    9489.1675    -845.0708   -2351.3581   -154.76155    633.53425   -1337.2938   -100.24637    18.059278    23.524356    22.336236           90           90           90 
   84500    260.43578   -143.55072   -114.49871   -143.55072            0    1568.1707    18.098847     23.23302    22.267052            0            0            0    9363.0925    2637.5656   -11.002045    2077.9487   -400.86001     103.3768   -1518.2693    18.098847     23.23302    22.267052           90           90           90 
   85000    252.70113   -144.62034   -116.43115   -144.62034            0     2093.457    18.283781    23.349234    22.139158            0            0            0    9451.4782    -1531.863    5007.4883    2804.7456    1138.9754   -1010.9041   -1309.9668    18.283781    23.349234    22.139158           90           90           90 
   85500    265.07175   -143.92963   -114.36048   -143.92963            0   -808.78971    18.196913    23.574115    22.015064            0            0            0    9443.9371   -291.69677   -3792.1303     1657.458    -20.25942   -107.81158    43.916666    18.196913    23.574115    22.015064           90           90           90 
   86000    254.74789   -143.98048   -115.56297   -143.98048            0   -1036.9159    17.977939     23.62011    22.139657            0            0            0    9401.4038   -1496.1274   -3992.0479    2377.4277   -1448.2908   -702.59856   -261.22211    17.977939     23.62011    22.139657           90           90           90 
   86500    256.32046    -145.3315   -116.73857    -145.3315            0    679.82281    17.935884    23.622408    22.410167            0            0            0     9494.936    1697.0732    3793.7494   -3451.3542    525.37317    27.949012    660.69598    17.935884    23.622408    22.410167           90           90           90 
   87000    247.57942   -145.22103   -117.60317   -145.22103            0    399.37511     17.95497    23.351498    22.265507            0            0            0    9335.3803    2647.0828    571.12522   -2020.0827    699.05222   -1525.0017    911.23617     17.95497    23.351498    22.265507           90           90           90 
   87500    263.63905   -145.30011   -115.89078   -145.30011            0   -91.074385    18.272435     23.41616    22.098202            0            0            0    9455.1633   -1492.5182    381.79338    837.50166    1496.1371   -657.64249     645.3631    18.272435     23.41616    22.098202           90           90           90 
   88000     268.1544   -145.44055   -115.52752   -145.44055            0    657.21611    18.347924    23.442143    21.985863            0            0            0    9456.4418    1634.9747    2753.8376    -2417.164   -1732.5728   -1211.1473    -106.1153    18.347924    23.442143    21.985863           90           90           90 
   88500    254.98083    -145.1206    -116.6771    -145.1206            0   -1314.4536    18.069186    23.354851    22.119294            0            0            0    9334.4114   -427.89645     -5889.68    2374.2156    1644.0167     471.3018    463.01739    18.069186    23.354851    22.119294           90           90           90 
   89000     253.8116   -146.82574   -118.51268   -146.82574            0     1121.061     17.94925    23.511497      22.4531            0            0            0    9475.5165      3019.68    2836.7595   -2493.2565    1029.7855   -218.36008   -273.61025     17.94925    23.511497      22.4531           90           90           90 
   89500    251.64512   -146.60588   -118.53449   -146.60588            0    364.45564    17.980688    23.531329    22.260576            0            0            0    9418.6607    -406.5793    427.15643    1072.7898   -1344.6366    110.56901    1009.0307    17.980688    23.531329    22.260576           90           90           90 
   90000    253.30839   -147.01479   -118.75786   -147.01479            0    1592.2241     18.08067     23.48659     22.00982            0            0            0    9346.5421    2042.1351    3071.1758   -336.63859    -377.8121   -1560.7332    589.67693     18.08067     23.48659     22.00982           90           90           90 
   90500    265.91744   -145.90408   -116.24059   -145.90408            0    522.30258    18.211645    23.504934    22.143309            0            0            0    9478.7429   -680.43196   -368.06695    2615.4067   -384.43422   -1046.2429    364.17979    18.211645    23.504934    22.143309           90           90           90 
   91000    256.93255   -144.72925   -116.06804   -144.72925            0   -199.37029     18.10176    23.348369    22.267326            0            0            0    9411.2087    1702.8648   -575.07627   -1725.8994    2514.6192   -23.975191    67.140606     18.10176    23.348369    22.267326           90           90           90 
   91500    242.00363   -145.66859   -118.67272   -145.66859            0    -990.8976    17.993201    23.347433    22.231845            0            0            0    9339.4886   -1168.0145   -1830.2521    25.573786   -2345.3972   -521.08292     -47.2153    17.993201    23.347433    22.231845           90           90           90 
   92000    259.61083   -145.90801   -116.94803   -145.90801            0    1058.2479    18.078421    23.579906     22.16061            0            0            0    9446.7903     1134.901     3564.637   -1524.7942   -715.09388    575.43913   -476.73247    18.078421    23.579906     22.16061           90           90           90 
   92500     257.3269   -145.58485   -116.87964   -145.58485            0   -2961.3522    18.149469    23.584011    22.103514            0            0            0    9461.1285   -242.51551   -4679.6113   -3961.9297    1361.4256    163.29531     986.8493    18.149469    23.584011    22.103514           90           90           90 
   93000    258.99856   -144.87737   -115.98569   -144.87737            0    1935.7364    18.037426    23.367517    22.118177            0            0            0    9322.5871    857.06989    1888.9553    3061.1839   -1440.1257   -263.25565   -334.38213    18.037426    23.367517    22.118177           90           90           90 
   93500    257.14389   -145.60418   -116.91939   -145.60418            0   -245.60846    18.101049    23.439006    22.248385            0            0            0    9439.3358    3293.5851   -4860.6606    830.25009   -1275.0961   -24.022665   -254.27523    18.101049    23.439006    22.248385           90           90           90 
   94000    258.20294   -145.48403    -116.6811   -145.48403            0   -1139.8151    18.074733    23.450812    22.183567            0            0            0    9402.8855   -2733.1773   -323.71313   -362.55505   -1685.1659   -1371.2833   -1612.3567    18.074733    23.450812    22.183567           90           90           90 
   94500    248.09228   -144.39651   -116.72145   -144.39651            0   -1570.0223    18.078843     23.50257    22.142423            0            0            0    9408.2997    38.575955   -3933.1691   -815.47367    1041.5236   -771.84397    915.13778    18.078843     23.50257    22.142423           90           90           90 
   95000    255.39567   -147.10094   -118.61117   -147.10094            0   -923.06329    18.086804    23.467294    22.173698            0            0            0    9411.5893    -3570.753    963.26609   -161.70293   -1011.1934    2038.7724   -778.23694    18.086804    23.467294    22.173698           90           90           90 
   95500    259.28358   -145.35201   -116.42853   -145.35201            0   -724.22318    18.072952    23.421242    22.230149            0            0            0    9409.8218   -1162.4782    289.53879   -1299.7301    1615.3449     669.4767    -2607.443    18.072952    23.421242    22.230149           90           90           90 
   96000    262.39697   -144.06508   -114.79431   -144.06508            0   -1437.0478    18.061078    23.412171    22.266821            0            0            0    9415.5042   -416.53233    -1459.199   -2435.4121   -573.75676   -1071.2943    327.15224    18.061078    23.412171    22.266821           90           90           90 
   96500    263.80446   -144.57349    -115.1457   -144.57349            0    308.86663    18.052221       23.479    22.172058            0            0            0    9397.5846   -1681.3655    85.480076    2522.4853   -502.71613   -477.49375   -190.14619    18.052221       23.479    22.172058           90           90           90 
   97000    249.91695   -143.69516   -115.81655   -143.69516            0    1532.6064    18.025211    23.606675    22.117662            0            0            0    9411.4036   -57.024636    2774.4131    1880.4307    578.66077    1112.5898    1624.8009    18.025211    23.606675    22.117662           90           90           90 
   97500    261.67548   -144.88286   -115.69256   -144.88286            0    852.70518    17.973844    23.596666    22.256404            0            0            0    9439.4483    2011.2775    31.651309     515.1867    3061.3345    968.50466    1276.4722    17.973844    23.596666    22.256404           90           90           90 
   98000    257.94642   -146.44019   -117.66588   -146.44019            0   -2110.3573    18.017625    23.442222    22.317377            0            0            0    9426.2612   -3292.8423    -736.7102   -2301.5193   -713.45249    -420.8918   -628.06015    18.017625    23.442222    22.317377           90           90           90 
   98500    260.14235   -145.00881   -115.98954   -145.00881            0    733.88806    18.106479    23.180197    22.052047            0            0            0    9255.5032    369.43598   -160.14841    1992.3766   -1953.4723   -170.94474    820.45527    18.106479    23.180197    22.052047           90           90           90 
   99000    252.12307   -144.30029   -116.17558   -144.30029            0   -889.49362    18.363794    23.452904    22.076345            0            0            0    9507.9356   -2117.8115   -140.93605   -409.73333    2025.2257    743.49616   -1505.7055    18.363794    23.452904    22.076345           90           90           90 
   99500    267.99886   -143.80949   -113.91382   -143.80949            0   -1548.0145     18.19699     23.56925    22.041413            0            0            0    9453.3287   -2416.7916    -1870.626   -356.62595   -1186.1947   -1194.3709    581.22099     18.19699     23.56925    22.041413           90           90           90 
  100000    252.74014   -143.65071   -115.45716   -143.65071            0   -164.12514    17.896335    23.537834       22.146            0            0            0    9328.8025    1025.1949   -535.38035   -982.19002   -1792.9577    269.47351    -2145.169    17.896335    23.537834       22.146           90           90           90 
  100500    258.72086   -144.17268   -115.31198   -144.17268            0   -33.380644    17.871569    23.512087    22.312674            0            0            0    9375.7386   -222.16603   -127.86329    249.88739   -2623.3964   -427.39534   -280.93192    17.871569    23.512087    22.312674           90           90           90 
  101000    260.68121   -145.25908    -116.1797   -145.25908            0    2413.2131    18.067215      23.5108    22.251819            0            0            0    9452.0091    1646.9504    1067.6605    4525.0285    358.30424   -199.57249   -746.14954    18.067215      23.5108    22.251819           90           90           90 
  101500    250.37572   -143.98137   -116.05158   -143.98137            0   -149.03097    18.267645    23.545768    21.999087            0            0            0    9462.3737   -18.951669     1122.248   -1550.3893   -723.97117    84.993533    1153.8866    18.267645    23.545768    21.999087           90           90           90 
  102000    248.33521   -144.07451   -116.37235   -144.07451            0    2999.4314    18.194995    23.365565    21.945916            0            0            0    9330.0064    2459.7238    1761.6368    4776.9337    1969.5337   -959.55105   -1261.6275    18.194995    23.365565    21.945916           90           90           90 
  102500    246.94516   -144.25115   -116.70404   -144.25115            0   -218.72341    18.059347    23.332173    22.356086            0            0            0    9420.0452    161.41963   -338.25384   -479.33601   -3618.3675   -19.963306    1536.8535    18.059347    23.332173    22.356086           90           90           90 
  103000    257.28641   -144.27708   -115.57639   -144.27708            0    1215.7728    17.940466    23.416196    22.389357            0            0            0    9405.7124    67.634352    5055.1088   -1475.4247   -1481.2581    90.504475    -2496.501    17.940466    23.416196    22.389357           90           90           90 
  103500    252.21309   -145.69966   -117.56491   -145.69966            0    1396.6162    18.075638    23.659197     22.14378            0            0            0    9469.8999    2028.2021    -1535.479    3697.1256    75.134271    117.54176    1122.4581    18.075638    23.659197     22.14378           90           90           90 
  104000    254.83689    -143.9999   -115.57246    -143.9999            0   -876.92961     18.09419    23.551951    21.953405            0            0            0    9355.5199    1306.7948   -4940.7373    1003.1537     341.9593   -737.05267    961.00171     18.09419    23.551951    21.953405           90           90           90 
  104500    255.96221   -145.21829   -116.66532   -145.21829            0   -1662.3481    18.122425     23.40943    22.185267            0            0            0    9411.7808   -6122.9793    1621.9213   -485.98612   -1843.1576   -154.70362    997.72944    18.122425     23.40943    22.185267           90           90           90 
  105000    260.78915   -143.97623    -114.8848   -143.97623            0   -1485.9026    18.121965    23.376458    22.371833            0            0            0    9477.3201    683.51115   -1180.5616   -3960.6574   -248.47132    143.61209   -408.51752    18.121965    23.376458    22.371833           90           90           90 
  105500    260.67255   -144.00995   -114.93153   -144.00995            0    1209.9464     18.04924    23.414392    22.234794            0            0            0    9396.6905   -390.18103    3496.8695    523.15082   -723.80665    -1986.984     650.6414     18.04924    23.414392    22.234794           90           90           90 
  106000    255.13332   -144.30123   -115.84072   -144.30123            0    727.01596    18.066386    23.572218    22.039289            0            0            0    9385.7572   -158.61773   -457.21449    2796.8801    39.708005   -1110.4839    575.57012    18.066386    23.572218    22.039289           90           90           90 
  106500    256.05598   -144.90002   -116.33659   -144.90002            0   -1389.5011     18.07428    23.596089    22.118602            0            0            0    9433.1924    1587.3544   -5456.2525   -299.60503    602.90352   -809.36693   -74.065213     18.07428    23.596089    22.118602           90           90           90 
  107000    253.60059   -144.66114   -116.37161   -144.66114            0   -1012.9515    18.037467    23.397812    22.289549            0            0            0    9407.0199   -74.355842   -572.52036   -2391.9784     1532.781     301.4235   -12.885144    18.037467    23.397812    22.289549           90           90           90 
  107500     264.8064   -145.56453   -116.02497   -145.56453            0    5572.6841     18.07045    23.289188    22.282151            0            0            0    9377.3569    7378.5468    7494.4091    1845.0964    711.54441    460.21605   -2750.5039     18.07045    23.289188    22.282151           90           90           90 
  108000    264.99099   -144.49071   -114.93056   -144.49071            0   -2286.9695     18.24713    23.451865    22.139179            0            0            0    9474.0018   -1466.9938   -2779.2196   -2614.6951   -526.88181   -1244.3225    937.34968     18.24713    23.451865    22.139179           90           90           90 
  108500    264.23202   -143.79067   -114.31519   -143.79067            0   -37.789879    18.166039    23.474771    21.982767            0            0            0    9374.4107   -1078.5911   -3325.9654    4291.1869    400.63403   -471.50642   -219.54594    18.166039    23.474771    21.982767           90           90           90 
  109000    259.55098   -145.10429   -116.15099   -145.10429            0   -2127.3813    17.973438    23.543208    22.243954            0            0            0    9412.5823   -655.75102   -1815.3873   -3911.0057   -2082.1246   -1517.9803    469.55767    17.973438    23.543208    22.243954           90           90           90 
  109500    261.37643   -144.16018   -115.00325   -144.16018            0   -736.55426    17.876585    23.440629    22.469007            0            0            0    9415.3767    489.34335   -1252.2123   -1446.7938    -1610.059    608.51749   -306.78418    17.876585    23.440629    22.469007           90           90           90 
  110000    256.99169    -144.6517   -115.98389    -144.6517            0    1217.1568    18.103777    23.372838    22.244633            0            0            0    9412.5192    2060.8885    477.50048    1113.0815   -2499.7247    111.48796    517.88518    18.103777    23.372838    22.244633           90           90           90 
  110500    258.85208   -146.26906   -117.39372   -146.26906            0   -2084.3603    18.400555    23.329659     21.84079            0            0            0    9375.7851   -4528.7631   -3311.0438    1586.7261    1607.5839    846.16779   -645.88287    18.400555    23.329659     21.84079           90           90           90 
  111000    255.42941   -144.28867   -115.79514   -144.28867            0   -1829.5466    18.361094    23.396186    22.013333            0            0            0    9456.4782   -3962.4746    1198.9397   -2725.1051   -219.27724   -1569.3283    1424.0198    18.361094    23.396186    22.013333           90           90           90 
  111500    264.95494   -145.55703   -116.00091   -145.55703            0    2112.1437    17.966098    23.387802    22.302126            0            0            0    9371.0757    2051.3754    2619.2105    1665.8453    -1569.498    1.1399674   -247.92925    17.966098    23.387802    22.302126           90           90           90 
[...]
  373500    251.30833   -145.64662    -117.6128   -145.64662            0    2561.4122    18.118297    23.510471    22.078327            0            0            0    9404.6985    2831.1516    1427.1011    3425.9838   -2970.0864   -895.69341    568.63378    18.118297    23.510471    22.078327           90           90           90 
  374000    262.48355   -144.53574    -115.2553   -144.53574            0    -1406.394    18.081564    23.740417    22.222843            0            0            0    9539.4637   -1547.0131   -1164.9342   -1507.2346   -665.45307   -576.94308   -524.77729    18.081564    23.740417    22.222843           90           90           90 
  374500     272.0932   -144.35444   -114.00203   -144.35444            0   -635.64664    17.967246    23.523767    22.157677            0            0            0    9365.1041   -1259.1631   -4200.4425    3552.6657    -1813.878    601.77186   -1315.5095    17.967246    23.523767    22.157677           90           90           90 
  375000    275.94198   -144.84264   -114.06089   -144.84264            0    453.41872    18.124636    23.425198     22.23959            0            0            0    9442.3336    1079.8962    4029.9356   -3749.5756    941.34351    -1519.298    281.32923    18.124636    23.425198     22.23959           90           90           90 
  375500    256.86772   -144.76671   -116.11273   -144.76671            0    1502.5021    18.193719    23.348086    22.189806            0            0            0    9425.9747   -300.22649    2634.4792    2173.2537   -2064.0544    233.97489   -2043.2829    18.193719    23.348086    22.189806           90           90           90 
  376000    265.28966   -145.02327   -115.42981   -145.02327            0    2761.4071    18.148646    23.442571    22.137884            0            0            0    9418.5832    5943.9552    1196.5351    1143.7309    2171.8955   -1311.8346   -1814.4819    18.148646    23.442571    22.137884           90           90           90 
  376500    262.14812   -143.45702     -114.214   -143.45702            0   -974.63502    18.132875    23.600756    22.156116            0            0            0    9481.7001    517.53381    490.42009    -3931.859    -916.0429    1259.5847   -165.82824    18.132875    23.600756    22.156116           90           90           90 
  377000    257.71051   -146.47837   -117.73037   -146.47837            0    1991.5594    17.963054    23.630616    22.196693            0            0            0    9422.0089    3647.4676    103.44061    2223.7701    1647.1262    461.77427    41.003408    17.963054    23.630616    22.196693           90           90           90 
  377500    259.57192   -145.57385   -116.61821   -145.57385            0    772.92026    17.871954    23.473759    22.327355            0            0            0    9366.8151    813.38612    2430.3194   -924.94476    -1140.144   -1357.4532    739.73592    17.871954    23.473759    22.327355           90           90           90 
  378000    259.42362   -145.23637   -116.29728   -145.23637            0    -534.5512    18.164299    23.337645    22.466129            0            0            0    9523.6608   -2039.9787    58.088174    378.23688    2194.0171   -693.55059   -591.87397    18.164299    23.337645    22.466129           90           90           90 
  378500    255.02171   -145.66385    -117.2158   -145.66385            0   -66.325119    18.375122    23.197631    22.126088            0            0            0    9431.4507   -3064.7897    2045.7463    820.06808   -2176.3674   -317.20602   -641.18169    18.375122    23.197631    22.126088           90           90           90 
  379000    264.68696   -145.40596   -115.87973   -145.40596            0    1418.3694    18.267202     23.28751    21.839166            0            0            0      9290.33   -562.27572    2029.0443    2788.3396   -1838.0128   -589.57348   -1259.3385    18.267202     23.28751    21.839166           90           90           90 
  379500     249.8093   -144.71038   -116.84378   -144.71038            0   -2984.7605    18.181873    23.715703    22.167126            0            0            0    9558.3738   -1568.2892    -4678.928   -2707.0644    2056.2832    558.50523    758.56779    18.181873    23.715703    22.167126           90           90           90 
  380000    252.10646   -145.14245    -117.0196   -145.14245            0    54.592374    17.937755    23.595008    22.262458            0            0            0    9422.3954    407.38324   -2087.7136    1844.1074   -1265.3405    807.39042   -53.887723    17.937755    23.595008    22.262458           90           90           90 
  380500    258.05752   -146.45758   -117.67088   -146.45758            0    1170.7504    17.910155    23.355591    22.208122            0            0            0    9289.7074   -227.26182     1755.487    1984.0261    1453.1735   -1614.2105    1285.2108    17.910155    23.355591    22.208122           90           90           90 
  381000    251.60491   -144.72709   -116.66018   -144.72709            0   -222.90126    18.211462    23.536302    22.258348            0            0            0    9540.6065     1588.483    -2450.971    193.78417   -3160.1453    1159.9074   -910.93246    18.211462    23.536302    22.258348           90           90           90 
  381500    274.61571   -143.66892   -113.03512   -143.66892            0   -640.78278    18.266816    23.527504    22.123008            0            0            0    9507.8623    137.32022   -1239.3694   -820.29912    1569.4691     842.6118    -1095.413    18.266816    23.527504    22.123008           90           90           90 
  382000    264.08061   -144.79278   -115.33419   -144.79278            0   -2405.9389     18.12824     23.46764    22.132699            0            0            0     9415.848   -2855.5001   -578.49374   -3783.8227    1236.5856    267.05966    11.601501     18.12824     23.46764    22.132699           90           90           90 
  382500    265.89749   -143.10311   -113.44185   -143.10311            0   -312.93881    18.008766     23.45017    22.320558            0            0            0    9426.1642     629.2207   -476.92084   -1091.1163    308.90128     776.3082   -312.01876    18.008766     23.45017    22.320558           90           90           90 
  383000    255.88076   -143.05135   -114.50747   -143.05135            0   -1336.7467    18.032321    23.592712     22.32939            0            0            0    9499.6227    1192.4546   -2593.2847   -2609.4099    3191.3313    424.44572    674.92975    18.032321    23.592712     22.32939           90           90           90 
  383500    273.84391   -143.59564   -113.04794   -143.59564            0    1855.1477    18.138732     23.59736    22.070825            0            0            0    9446.8916    1629.3627    719.58808    3216.4923   -1757.4848   -808.62223     1930.769    18.138732     23.59736    22.070825           90           90           90 
  384000    252.41249   -144.48608   -116.32909   -144.48608            0   -348.61313    18.271854     23.52094     22.03446            0            0            0    9469.7758   -2207.4032   -170.20705    1331.7709   -656.74911     1305.802   -708.74921    18.271854     23.52094     22.03446           90           90           90 
  384500    262.78294   -146.25632   -116.94249   -146.25632            0    382.00942    18.157796    23.316463    22.169894            0            0            0    9386.1922    230.61969   -1927.8204     2843.229   -408.15998   -1077.5372   -1185.5789    18.157796    23.316463    22.169894           90           90           90 
  385000     246.2937   -144.48709   -117.01266   -144.48709            0    -238.9142    18.052117    23.378677    22.535817            0            0            0    9510.8948   -1496.1796   -139.87115    919.30813   -216.52266   -1300.3259    799.62615    18.052117    23.378677    22.535817           90           90           90 
  385500    254.61506   -146.15909    -117.7564   -146.15909            0   -729.65226    17.898426    23.525535    22.441476            0            0            0    9449.4333   -2773.5788   -463.20186    1047.8238   -1563.3556   -1341.8271   -1375.9132    17.898426    23.525535    22.441476           90           90           90 
  386000    250.64415   -144.05958   -116.09985   -144.05958            0    2301.6852    17.955241     23.67831    21.969362            0            0            0    9340.2691    2686.9879    1364.3979    2853.6698    495.84604   -117.12795    375.29964    17.955241     23.67831    21.969362           90           90           90 
  386500    259.77153   -143.46025   -114.48234   -143.46025            0   -2015.6364     18.26816    23.786413    21.980986            0            0            0    9551.4857   -1754.7508    -2314.534   -1977.6243    656.67084    372.09509   -874.80483     18.26816    23.786413    21.980986           90           90           90 
  387000    252.65936   -143.89122   -115.70669   -143.89122            0    347.63441    18.225162    23.365492    22.224164            0            0            0    9463.9349   -1802.0703    443.52283    2401.4507    56.546584    1685.8445    1394.9794    18.225162    23.365492    22.224164           90           90           90 
  387500    263.84201   -145.15669   -115.72472   -145.15669            0    1652.5103    18.082267    23.195862    22.367049            0            0            0    9381.4956    2255.8786     718.8779    1982.7743    -2137.674    300.09343    66.219612    18.082267    23.195862    22.367049           90           90           90 
  388000    257.38267   -146.84029   -118.12887   -146.84029            0   -1832.1469    18.096952    23.393892    22.282799            0            0            0    9433.6049   -55.178851    -3257.068   -2184.1939     2625.666   -267.75713   -131.87654    18.096952    23.393892    22.282799           90           90           90 
  388500    249.42993   -145.48252   -117.65823   -145.48252            0    864.73885    18.072459    23.602414    22.155946            0            0            0       9450.7   -376.62269   -1513.7169    4484.5562    3295.4205    1415.3592    158.49084    18.072459    23.602414    22.155946           90           90           90 
  389000    258.68636   -146.29046    -117.4336   -146.29046            0    1139.0593    18.002925    23.615579    22.146139            0            0            0    9415.4199    2419.3041   -2264.3487    3262.2225   -247.53309   -294.21342   -746.47789    18.002925    23.615579    22.146139           90           90           90 
  389500    255.74973   -146.05441   -117.52514   -146.05441            0   -748.87982    18.013299    23.399044    22.212772            0            0            0    9362.5497   -2487.2279     1266.763   -1026.1745    188.97787    1676.7432    615.58787    18.013299    23.399044    22.212772           90           90           90 
  390000    244.13106    -145.4584   -118.22521    -145.4584            0   -3316.0373    18.206695    23.363806    22.294349            0            0            0     9483.519    -3767.945   -4201.6816   -1978.4854    2386.5068   -452.94321    372.32828    18.206695    23.363806    22.294349           90           90           90 
  390500    261.11881   -145.42848   -116.30029   -145.42848            0    1572.6864    18.202218     23.29501    22.083094            0            0            0    9363.6919    232.19543    2243.4498    2242.4141    1379.4568     238.7984    708.42716    18.202218     23.29501    22.083094           90           90           90 
  391000    267.85807   -144.76184   -114.88187   -144.76184            0    1811.4001    18.107777    23.487262    22.161856            0            0            0     9425.484    1677.9883    814.51502    2941.6971   -1348.4142    601.26748    717.27471    18.107777    23.487262    22.161856           90           90           90 
  391500    259.79531   -142.54063   -113.56007   -142.54063            0     1078.392    18.001993    23.659894    22.233946            0            0            0     9469.999    1749.5835    4335.1671   -2849.5746   -569.45204    1591.5883   -83.744453    18.001993    23.659894    22.233946           90           90           90 
  392000    255.70327   -146.84674   -118.32266   -146.84674            0    1984.4926    17.957406    23.632333    22.149832            0            0            0    9399.8437    727.46793    1617.0403    3608.9696   -1582.7539    1616.0377    86.998401    17.957406    23.632333    22.149832           90           90           90 
  392500    244.09926   -145.37627   -118.14663   -145.37627            0   -918.92346    18.121297    23.477121    22.220441            0            0            0    9453.3724   -1659.2787    2852.3765   -3949.8682     -113.061   -1684.7483     258.6523    18.121297    23.477121    22.220441           90           90           90 
  393000    254.72459   -143.47721    -115.0623   -143.47721            0    1920.8787    18.297049    23.232774    22.232394            0            0            0    9450.7953    2158.3245    2559.7951    1044.5164    -646.2918    -234.6688      -559.98    18.297049    23.232774    22.232394           90           90           90 
  393500    281.94377   -144.37512   -112.92386   -144.37512            0   -1286.2842    18.179442    23.210663    22.169062            0            0            0    9354.3888    346.69493   -2589.1471   -1616.4003   -1297.9299     277.2871    488.94514    18.179442    23.210663    22.169062           90           90           90 
  394000    260.81834   -145.56499   -116.47031   -145.56499            0   -1561.3498    18.066731    23.600753    22.210723            0            0            0    9470.3959   -1476.3079   -4372.7923    1165.0507    486.29861   -701.54274    520.27265    18.066731    23.600753    22.210723           90           90           90 
  394500    257.76332   -145.59055   -116.83666   -145.59055            0    2201.0127    17.899365    23.820297    22.083188            0            0            0    9415.5692    4253.3688    107.99298    2241.6765    1044.5042    1678.8693   -1685.2445    17.899365    23.820297    22.083188           90           90           90 
  395000    256.58228    -143.7035   -115.08136    -143.7035            0    1663.0064    17.987141    23.676251    22.135634            0            0            0    9426.8591    1039.9949   -421.33844    4370.3626     637.6596    -202.4614    -1058.349    17.987141    23.676251    22.135634           90           90           90 
  395500    261.29242   -145.89273   -116.74517   -145.89273            0    95.973142    18.210844      23.2713    22.211809            0            0            0    9413.1427    3055.8672   -788.30273    -1979.645    486.21555     1099.823    2169.5942    18.210844      23.2713    22.211809           90           90           90 
  396000    254.46556   -145.76123   -117.37522   -145.76123            0    246.20999    18.302057    23.115547    22.222813            0            0            0    9401.6292    -1963.185    3885.2424   -1183.4274   -2066.9244    567.15312    256.93584    18.302057    23.115547    22.222813           90           90           90 
  396500    252.78074   -146.13735   -117.93928   -146.13735            0   -730.91949    18.197786    23.405259    22.156792            0            0            0     9437.107   -2148.6091    1652.9157   -1697.0651   -657.07122   -594.55868   -480.01422    18.197786    23.405259    22.156792           90           90           90 
  397000    259.41344   -145.08258   -116.14462   -145.08258            0   -2048.9191    17.969562    23.727561    22.044987            0            0            0    9399.4065   -2623.3624   -1802.2074   -1721.1875    351.21396   -1070.9066    1021.5888    17.969562    23.727561    22.044987           90           90           90 
  397500    258.90927   -144.94118   -116.05947   -144.94118            0    1223.4015    17.952336    23.765002    22.170079            0            0            0    9458.5827    1209.7222    1069.0953    1391.3869   -829.04441   -1207.5438   -940.96418    17.952336    23.765002    22.170079           90           90           90 
  398000    259.41986   -145.51919   -116.58052   -145.51919            0   -838.60719    18.064722    23.447342     22.24682            0            0            0    9423.0793    916.80083   -1583.2179   -1849.4045    1964.3024    160.18537    509.57961    18.064722    23.447342     22.24682           90           90           90 
  398500    266.10334    -144.5037   -114.81948    -144.5037            0    282.27319    18.225326    23.194357    22.167037            0            0            0    9370.5543   -1022.6649    1986.4142   -116.92977    -378.3965   -587.80312    574.39572    18.225326    23.194357    22.167037           90           90           90 
  399000    244.60598   -146.29321   -119.00704   -146.29321            0    659.11455     18.28855    23.337057    22.109894            0            0            0    9436.5237    1368.1213   -1204.1005    1813.3229   -1101.7605    1504.4746   -15.754032     18.28855    23.337057    22.109894           90           90           90 
  399500    253.69499    -145.2039   -116.90385    -145.2039            0   -26.375789    18.121985    23.568674    22.133764            0            0            0    9453.5776   -1396.2156    2783.4056   -1466.3174    2752.1112    564.77293   -1074.5495    18.121985    23.568674    22.133764           90           90           90 
  400000    248.05562     -145.673   -118.00202     -145.673            0    849.53347    17.885675    23.606076    22.182517            0            0            0    9365.6936    4989.7754    1017.2609   -3458.4359    -2901.402   -1239.3144    1068.7909    17.885675    23.606076    22.182517           90           90           90 
Loop time of 2129.66 on 1 procs for 400000 steps with 864 atoms

Performance: 8.114 ns/day, 2.958 hours/ns, 187.824 timesteps/s
74.1% CPU use with 1 MPI tasks x 1 OpenMP threads

MPI task timing breakdown:
Section |  min time  |  avg time  |  max time  |%varavg| %total
---------------------------------------------------------------
Pair    | 1858.2     | 1858.2     | 1858.2     |   0.0 | 87.25
Bond    | 0.06316    | 0.06316    | 0.06316    |   0.0 |  0.00
Neigh   | 244.86     | 244.86     | 244.86     |   0.0 | 11.50
Comm    | 8.2762     | 8.2762     | 8.2762     |   0.0 |  0.39
Output  | 1.9432     | 1.9432     | 1.9432     |   0.0 |  0.09
Modify  | 14.681     | 14.681     | 14.681     |   0.0 |  0.69
Other   |            | 1.605      |            |       |  0.08

Nlocal:        864.000 ave         864 max         864 min
Histogram: 1 0 0 0 0 0 0 0 0 0
Nghost:        3743.00 ave        3743 max        3743 min
Histogram: 1 0 0 0 0 0 0 0 0 0
Neighs:         0.00000 ave           0 max           0 min
Histogram: 1 0 0 0 0 0 0 0 0 0
FullNghs:      167828.0 ave      167828 max      167828 min
Histogram: 1 0 0 0 0 0 0 0 0 0

Total # of neighbors = 167828
Ave neighs/atom = 194.24537
Ave special neighs/atom = 0.0000000
Neighbor list builds = 40000
Dangerous builds not checked

unfix		3
unfix		2

write_data	data.final.${pid}
write_data	data.final.0
System init for write_data ...

write_restart   restart.lmp.${pid}
write_restart   restart.lmp.0
System init for write_restart ...
Unloading pair style deepmd
Unloading compute style deepmd
Unloading fix style deepmd
Total wall time: 0:35:32
