LAMMPS data file via write_data, version 29 Sep 2021, timestep = 2000000

864 atoms
2 atom types

0.14178159060324447 18.06579140939754 xlo xhi
0.16699997835729796 21.27911502163773 ylo yhi
0.1729732052287396 22.040222794777797 zlo zhi

Masses

1 1.008
2 15.999

Atoms # full

191 0 2 0.5897 0.7703935287597277 1.0313221369121952 4.367485786219715 1 1 0
35 0 2 0.5897 1.304292331569758 2.3686913394792004 1.3255250658562043 0 1 1
36 0 2 0.5897 2.043446151725664 3.759916958311563 1.4861077657465547 0 1 1
336 0 2 0.5897 4.258248423365991 2.322319159802889 4.400769383077732 1 1 0
785 0 2 0.5897 3.269331063317567 0.2563343925201301 3.4471618438698512 -1 2 0
34 0 1 -1.1794 1.6220817695493999 3.1699715545287526 0.8276959370175289 0 1 1
197 0 2 0.5897 6.2139968192035635 2.8972026301511096 1.9905963483607987 0 0 0
196 0 1 -1.1794 6.156223126850845 2.279410131992045 1.2189724210005917 -1 0 0
198 0 2 0.5897 5.725294377820918 1.4516350057085716 1.4560859713371639 -1 0 0
388 0 1 -1.1794 5.680444405442204 3.5576428376476095 3.681099495331975 0 0 0
547 0 1 -1.1794 7.93134446832796 0.925188944146377 3.508497847492347 0 1 0
390 0 2 0.5897 6.445819837574409 3.2786386291858376 4.210218760651225 0 0 0
549 0 2 0.5897 8.010108216821717 1.3417453781703252 4.380292720032601 0 1 0
211 0 1 -1.1794 8.910341243055036 3.924982503832088 2.701990074558164 0 -1 0
45 0 2 0.5897 7.880730416069287 1.844734243239591 0.6051883918753227 0 1 0
43 0 1 -1.1794 8.73116864860417 1.7676268134758857 0.27093221740446904 -1 1 0
5 0 2 0.5897 9.796835220369001 0.9505970264581326 2.9871747729751283 -1 1 0
6 0 2 0.5897 9.648167244852969 1.1562179052465587 1.542273850427767 -1 1 0
212 0 2 0.5897 9.107327692103366 3.0754269096761626 2.3344021771564267 0 -1 0
4 0 1 -1.1794 10.346562220893633 0.8638390564603214 2.1859024722575615 -1 1 0
696 0 2 0.5897 12.128930958586595 1.8819996899523488 2.199563342958795 1 1 0
695 0 2 0.5897 13.113944129723603 1.8276620789199642 3.3554271765936377 1 1 0
694 0 1 -1.1794 13.03769891335203 1.799317390067457 2.4002079672798744 1 1 0
597 0 2 0.5897 9.19182845654757 4.358174257191702 4.283912654937615 0 0 0
611 0 2 0.5897 11.451154873641133 3.0831446757629046 0.31533862714585364 1 1 1
610 0 1 -1.1794 11.293987981315519 4.0034490021891 0.5517087551844835 1 1 1
612 0 2 0.5897 12.109746771308684 4.379825765420714 0.18042223910879543 1 1 1
337 0 1 -1.1794 17.594315728984196 1.01577954798281 2.6215510302501466 -1 0 1
339 0 2 0.5897 16.99721829368694 1.8010723711991798 2.478749171739328 -1 0 1
164 0 2 0.5897 14.664917990578187 2.6424355974568576 2.266226103445973 -1 0 0
163 0 1 -1.1794 15.602172317397953 2.994200903399434 2.355663477988292 -1 0 0
165 0 2 0.5897 15.670696696911756 3.8764172381782545 2.70231583588095 -1 0 0
300 0 2 0.5897 16.364662144564623 3.614127106797163 0.9101300262757543 0 0 0
338 0 2 0.5897 17.537626497353266 0.40584620380810466 1.8025788961512013 -1 0 1
764 0 2 0.5897 15.414322587794898 1.57028202791635 4.140957396822532 0 1 1
299 0 2 0.5897 17.730878970729687 3.7942636108004306 0.33234637008187706 0 -1 0
298 0 1 -1.1794 16.822499770135874 4.150782400974144 0.17705584266876576 0 -1 0
609 0 2 0.5897 2.337465964884451 4.707208641095264 4.208525046331378 1 1 1
617 0 2 0.5897 1.9830283287388917 5.833274352307413 2.2979921011769964 0 1 0
345 0 2 0.5897 0.6055471951502205 7.660993907489652 3.1226834387399776 -1 0 1
616 0 1 -1.1794 2.7576205386267807 5.200115287658438 2.352819606696 0 1 0
618 0 2 0.5897 3.5317355310157486 5.649177507517453 2.028272887292495 0 1 0
343 0 1 -1.1794 0.51068317914422 7.322770634999333 2.2285900545932593 0 0 1
60 0 2 0.5897 4.230346659637064 8.235524614976102 1.2116581242716498 0 0 0
58 0 1 -1.1794 3.3390384420754464 8.295867206964473 1.6031548513723877 0 0 0
59 0 2 0.5897 2.667936771757992 8.048564973457179 0.9170511759200748 0 0 0
344 0 2 0.5897 0.4960577561094284 8.031695444191012 1.5907184280772584 0 0 1
389 0 2 0.5897 5.6517881181522585 4.495846850877563 3.676838103927133 0 0 0
213 0 2 0.5897 8.576882388371063 4.495594862227822 1.9804254007572146 0 -1 0
256 0 1 -1.1794 5.136255857202954 6.037408681424283 0.8291870986649287 0 1 1
310 0 1 -1.1794 5.789160501156003 6.262155476561969 3.750250031461779 0 0 0
312 0 2 0.5897 5.7545842059502625 7.116331349500048 3.2691538627617507 0 0 0
745 0 1 -1.1794 8.523316797311402 8.422204415343266 2.644538249031365 0 0 0
268 0 1 -1.1794 8.136365549151982 6.067265500567089 0.9101427209370346 1 0 1
269 0 2 0.5897 8.425968446180887 6.811850586058693 1.4364890184479018 0 0 1
257 0 2 0.5897 6.062163866911113 5.877527283576064 0.7120739936734052 0 1 1
720 0 2 0.5897 10.987312747396807 5.135733034620594 1.933776612901529 0 0 0
719 0 2 0.5897 10.678231111452938 5.722820260231218 3.2284412383094323 0 0 0
718 0 1 -1.1794 11.106729982403895 5.907728163715711 2.4347752960681284 0 0 0
689 0 2 0.5897 10.790478363089738 7.1682316236377535 1.0356226016446661 0 1 0
688 0 1 -1.1794 10.688087086874162 8.02892055192455 0.5913552915059164 0 1 0
663 0 2 0.5897 13.105324857877394 6.374512789970253 2.3342127168150504 -1 0 0
661 0 1 -1.1794 13.837134870258566 6.5583719429583995 1.7392481799460693 -1 0 0
662 0 2 0.5897 14.683507416083383 6.34733698891812 2.1889421674911507 -1 0 0
250 0 1 -1.1794 16.026914304355422 5.605252513453707 2.889177214896927 -2 0 1
252 0 2 0.5897 16.764895525058527 6.0329802740482865 2.4455038603555237 -2 0 1
251 0 2 0.5897 15.873589945460889 6.220406176010899 3.6397839396503455 -2 0 1
314 0 2 0.5897 14.218958458157703 8.475635577008083 1.0379571563963639 0 1 1
761 0 2 0.5897 16.698964425365958 7.411501543697566 0.346685969573586 -1 0 1
342 0 2 0.5897 14.157339573012798 5.419162765515602 0.17865408419611128 0 -1 0
738 0 2 0.5897 1.315525200232989 10.665888355788821 2.3757834865595817 1 0 0
279 0 2 0.5897 3.0991464113051976 9.79206299016433 1.7514112131403492 -1 0 1
277 0 1 -1.1794 2.9389305920879307 10.80955168274816 1.8217946128873264 -1 0 1
278 0 2 0.5897 3.369336000940861 11.105244162635476 2.60196807491235 -1 0 1
327 0 2 0.5897 4.270033548873666 11.758088105431801 0.6122861033010799 0 1 1
736 0 1 -1.1794 0.33669506037641794 10.90749230189103 2.2338777789871056 1 0 0
773 0 2 0.5897 0.24706477084692502 11.091756003318197 0.5535945596053498 0 0 1
351 0 2 0.5897 0.17987350702582994 12.80899063694085 2.8545203632146543 0 0 0
16 0 1 -1.1794 3.8892896335140974 11.899048016371474 4.260799950140703 0 0 1
746 0 2 0.5897 7.746106159935376 8.652618588865126 3.1469905890622507 0 0 0
747 0 2 0.5897 8.728735328886932 9.337024219220412 2.2887779029946227 0 0 0
566 0 2 0.5897 6.756749423520018 8.70888341219436 0.46029529224716853 0 0 1
325 0 1 -1.1794 5.022541530619966 12.181492658093513 0.22990020972958244 0 1 1
565 0 1 -1.1794 5.916156679339371 9.111682435608328 0.7602527348790669 0 0 1
567 0 2 0.5897 6.117052337376685 9.877605627294946 1.3022068381829388 0 0 1
369 0 2 0.5897 6.189292220109355 10.487309805774828 3.522695353096055 0 0 1
367 0 1 -1.1794 6.298043311266101 11.048738809865206 2.738492595461708 0 0 1
368 0 2 0.5897 6.635723895148884 11.83599714962125 3.135174340010435 0 0 1
17 0 2 0.5897 4.797107292520175 12.20107172087372 4.382280347476236 0 0 1
690 0 2 0.5897 10.705900377850888 8.776598204517278 1.20718991007887 0 1 0
798 0 2 0.5897 10.095315464225536 11.280539578410727 1.1557764291941832 0 0 0
796 0 1 -1.1794 9.976097594207182 10.699338174457266 1.9236078868039017 0 0 0
189 0 2 0.5897 10.830248519404071 8.829912243110668 3.908411245318472 0 1 0
84 0 2 0.5897 13.050077459366682 12.069654027907372 1.627259977456044 1 1 0
19 0 1 -1.1794 13.11620050702326 12.682733294837057 3.352660792120195 0 1 0
797 0 2 0.5897 10.023942339572686 11.348957816671566 2.624404519334309 0 0 0
21 0 2 0.5897 12.115928884002303 12.762588199683627 3.4259922238058267 0 1 0
82 0 1 -1.1794 13.250022991874436 11.685602124791796 0.7795448948124876 0 1 0
737 0 2 0.5897 17.645767031468335 10.236719281185492 2.5498113781117397 0 0 0
399 0 2 0.5897 16.102942724446592 8.792682475209762 3.9530575188525323 -1 0 1
315 0 2 0.5897 13.82570457328608 10.039390926766854 1.045216244936665 0 1 1
397 0 1 -1.1794 16.154885130777036 9.65519850465096 3.528537938662813 -1 0 1
398 0 2 0.5897 15.603121322167505 9.542682059663177 2.6942811609311437 -1 0 1
313 0 1 -1.1794 14.590145070519712 9.400007450909937 0.9400687560750444 0 1 1
83 0 2 0.5897 14.05055861655258 12.205902524831444 0.4841263569097805 0 1 0
350 0 2 0.5897 17.238923114708943 12.746726849157415 4.1174374933589615 -1 0 0
248 0 2 0.5897 1.4354148424114899 15.205645729198563 1.534724953408628 0 0 1
249 0 2 0.5897 2.653888618479654 15.862770672258407 2.137972073971204 0 0 1
247 0 1 -1.1794 1.6839295625561899 15.842201603045346 2.2155568368280663 0 0 1
47 0 2 0.5897 1.2633831748445281 15.5555181114921 3.9367019322190324 1 -1 0
811 0 1 -1.1794 4.243608908796647 16.447389843377344 1.7899030981719817 0 0 0
812 0 2 0.5897 4.062145483133808 17.036553782204088 0.9838493949877246 0 0 0
813 0 2 0.5897 4.73312526414371 15.65444705610898 1.5530667353038392 0 0 0
540 0 2 0.5897 5.587216885734336 13.310262635020669 1.498867189809999 -1 0 0
538 0 1 -1.1794 5.540172044445126 14.119699853409013 2.0006093625142656 -1 0 0
539 0 2 0.5897 5.860771702476775 13.977916440979207 2.8985811219840154 -1 0 0
655 0 1 -1.1794 7.635588030090023 16.30187063656433 1.6618347798989275 0 0 1
656 0 2 0.5897 6.938008107548652 15.742068925995547 1.4445614717098465 0 0 1
657 0 2 0.5897 7.901910258144468 15.979280131993418 2.510774421453081 0 0 1
714 0 2 0.5897 7.249907070086724 16.278225646421014 4.272740163484322 1 0 0
712 0 1 -1.1794 8.153846371459927 15.942594260755838 4.427641692707797 1 0 0
713 0 2 0.5897 8.658195573045441 16.7894299207263 4.517223711106762 1 0 0
823 0 1 -1.1794 10.267092191608617 13.112293196035207 3.5259780717902336 0 0 0
825 0 2 0.5897 10.302209566670262 13.965750596668453 3.1096025749720186 0 0 0
571 0 1 -1.1794 10.54997582397836 15.621240339971312 2.004844057817372 0 1 0
573 0 2 0.5897 9.78612790970531 16.026669100178843 1.5887270136419875 0 1 0
572 0 2 0.5897 11.056276378729917 16.342541830707027 2.3266919939395287 0 1 0
824 0 2 0.5897 9.693738954986365 13.090435244491475 4.3056412204630075 0 0 0
485 0 2 0.5897 13.206782159437997 16.507063015528992 3.344840352238686 -1 -1 0
99 0 2 0.5897 11.700721288898153 14.209647314296069 0.7494205402155125 -1 0 0
20 0 2 0.5897 13.491073034758553 13.564911145421476 3.4926353757344475 0 1 0
349 0 1 -1.1794 17.55600247515694 13.382226301472317 3.4584761503207107 -1 0 0
132 0 2 0.5897 16.88467562822798 14.451810184796937 2.0800855980650548 0 0 0
130 0 1 -1.1794 16.205933950055133 14.94506017094784 1.5631946371882584 0 0 1
131 0 2 0.5897 16.553738184684104 15.784396919484017 1.3095120915328653 0 0 1
638 0 2 0.5897 14.861185147890744 14.992876293203613 2.776400092772517 0 1 0
527 0 2 0.5897 15.875812203004978 13.798922878414695 0.2699487931213223 0 0 0
637 0 1 -1.1794 14.340862581730718 15.044168871029655 3.5774439259179793 0 1 0
639 0 2 0.5897 14.969686743143816 15.081353780347376 4.337288853715857 0 1 0
752 0 2 0.5897 2.733134392535888 20.953565798088576 0.9828371083845402 1 0 1
330 0 2 0.5897 1.112458952652148 17.95465410432452 2.6532956522629005 0 0 0
328 0 1 -1.1794 1.0112078097067696 18.70703287953681 3.3042486933339235 0 0 0
786 0 2 0.5897 2.351735245699616 20.243115251005108 3.1218005187013134 -1 1 0
784 0 1 -1.1794 3.0224252179824336 20.78765553733067 2.713558135957671 -1 1 0
450 0 2 0.5897 4.514196774451001 20.349235538328408 1.8196478565981797 1 0 0
363 0 2 0.5897 5.19475628473296 17.214247529523853 3.267946155434063 0 0 0
448 0 1 -1.1794 5.187416117431061 20.353139852703016 1.1604423244742244 1 1 0
449 0 2 0.5897 5.902938139188172 19.783949253182215 1.38794669924443 1 1 0
395 0 2 0.5897 7.300218329773149 17.916029811075873 1.7101380415684995 0 0 0
394 0 1 -1.1794 7.1566522029052875 18.830460294406905 2.0686253289258043 0 0 1
396 0 2 0.5897 8.010704252823313 19.22072035831699 2.042408823229886 0 0 1
548 0 2 0.5897 7.491239634850781 21.175883156015786 3.681009428383487 0 0 0
361 0 1 -1.1794 5.477813521283518 17.333137904141353 4.17189857619724 0 0 0
452 0 2 0.5897 6.321502997246273 19.148451461829467 4.346445543946116 -1 0 0
39 0 2 0.5897 8.584933111659593 19.00023391492475 4.47362758256262 0 0 0
732 0 2 0.5897 12.811216502045571 21.067773048560817 1.0448210169321075 -1 -1 1
484 0 1 -1.1794 12.676030880198867 17.28667902291052 3.0659220193812597 -1 -1 0
857 0 2 0.5897 10.40138144543742 19.92519388880293 1.9899805110058666 1 0 1
858 0 2 0.5897 10.494230810378772 18.563187547506267 1.4298867721465016 1 0 1
856 0 1 -1.1794 9.900790533325194 19.155843023529073 1.935533744934831 1 0 1
38 0 2 0.5897 9.636125971039407 18.38548130740682 3.5604529649366397 0 0 0
486 0 2 0.5897 13.1597057989748 17.707415291882207 2.3766803159679215 -1 -1 0
730 0 1 -1.1794 13.015924761285167 20.59493531358715 0.2197594831443354 -1 -1 1
136 0 1 -1.1794 11.746914126266775 18.010751530748173 0.21003651484685548 -1 -1 0
37 0 1 -1.1794 9.316060868039772 18.39823608084371 4.444833387161299 0 0 0
329 0 2 0.5897 17.97267563620224 18.878867594117267 3.3656585747245997 -1 0 0
463 0 1 -1.1794 17.774815043219572 20.477827757037232 0.4074923249564826 0 -2 1
622 0 1 -1.1794 14.399032815751452 18.604479177482382 1.301425344355802 0 0 0
624 0 2 0.5897 15.083481729743097 18.179457566279503 0.7836217975224228 0 0 0
623 0 2 0.5897 14.11320604741121 19.35973026000103 0.8393681336856428 0 0 0
70 0 1 -1.1794 16.145766633948572 19.606971291750355 3.422371618225818 0 0 -1
72 0 2 0.5897 15.88154444525864 20.491348060431754 3.647665591841543 0 0 -1
71 0 2 0.5897 15.554200327205013 19.41145552364145 2.657820610101258 0 0 -1
494 0 2 0.5897 17.494649024710583 18.27195506723188 0.5487543353283195 0 0 2
493 0 1 -1.1794 16.950234624518167 17.502867822237185 0.3231379667643439 0 0 2
334 0 1 -1.1794 3.7684341624816966 1.6119175093972946 4.867013965764529 1 1 0
608 0 2 0.5897 1.617212119119382 3.766777345295645 5.072337067621966 1 1 1
190 0 1 -1.1794 0.9605740959588572 1.32215705762597 5.278675632313646 1 0 0
192 0 2 0.5897 1.9273924857141849 1.3685611581792976 5.261784204560168 1 1 0
672 0 2 0.5897 3.5009077052337187 3.281942359609676 8.19132322317645 1 0 1
335 0 2 0.5897 4.153870795312792 1.5390086541217185 5.736802052672128 1 1 0
670 0 1 -1.1794 3.34740714260542 2.4948569421312876 7.590381881944929 1 0 1
671 0 2 0.5897 2.8441414554616475 1.8159252943213278 8.063627131308401 1 0 1
524 0 2 0.5897 0.7168281223984553 4.173733624091998 7.90418693967843 0 1 0
631 0 1 -1.1794 7.641628827938119 2.407468154700508 5.656700149373936 0 1 0
632 0 2 0.5897 7.311633234313809 1.992219580640165 6.494501236698288 0 1 0
460 0 1 -1.1794 6.0179000359449155 1.8892262141624736 7.716648618041009 1 1 0
462 0 2 0.5897 5.095691701765752 2.1894152492404326 7.819533128663529 1 1 0
633 0 2 0.5897 8.353692403465255 3.023023259101572 5.747941511958071 0 1 0
420 0 2 0.5897 5.757382911025596 3.9971227063647463 6.64576280082177 -1 0 0
461 0 2 0.5897 5.968337255717811 0.9196850716401236 7.7188702378220455 1 1 0
844 0 1 -1.1794 13.146541728591716 2.7140579405408647 5.104119230264992 0 -1 0
846 0 2 0.5897 12.666721291924127 3.561298292844259 5.077299449573257 0 -1 0
845 0 2 0.5897 12.518765695856475 2.0816945649048986 5.490533907651865 0 -1 0
96 0 2 0.5897 10.650475067891673 2.641410204931057 8.490185646629909 0 0 0
178 0 1 -1.1794 11.900594168702433 0.22949208127434498 5.496985082866368 0 1 1
179 0 2 0.5897 11.112267635183102 0.3626524702193503 6.015261977799865 0 1 1
94 0 1 -1.1794 10.114561275408652 1.8554258654986566 8.507403731139553 0 0 0
765 0 2 0.5897 14.440704572656676 1.3860156673676705 5.310549966428819 0 1 1
763 0 1 -1.1794 15.259690377956801 1.0149627529303409 4.902076617570661 0 1 1
777 0 2 0.5897 17.943408238535245 2.280446857087895 6.506526691068673 0 1 0
775 0 1 -1.1794 17.6366241207816 2.8499997075352583 7.230300239043607 0 1 0
776 0 2 0.5897 16.862527417738235 3.38748762694905 7.079081975178445 0 1 0
8 0 2 0.5897 16.545171733904425 0.6934525417997622 7.995450083032736 1 1 1
613 0 1 -1.1794 15.066775664711761 4.155236147504713 6.882843326182087 0 0 1
614 0 2 0.5897 14.13350353780535 3.9230678600641644 6.642974048846346 0 0 1
9 0 2 0.5897 15.97197606555832 0.25841711761009656 6.633125633703576 0 1 1
607 0 1 -1.1794 1.768064491881685 4.695076486948941 4.967692662251384 1 1 1
235 0 1 -1.1794 1.6436383725310988 7.964821771177111 4.771521610102321 1 1 1
236 0 2 0.5897 2.3859045550378406 7.369759570113521 4.839331709774287 1 1 1
523 0 1 -1.1794 0.9479588286156617 4.93647182605206 8.438386829854629 0 1 0
740 0 2 0.5897 0.5000427857060544 7.1711596922773655 5.998223579886741 2 0 0
741 0 2 0.5897 0.30795755696383886 6.340035815779509 7.258213034715271 2 0 0
306 0 2 0.5897 3.093988478939938 6.700252405780769 7.296633319756077 0 0 0
305 0 2 0.5897 2.761299666965851 5.7286374891189915 6.139230583975499 0 0 0
304 0 1 -1.1794 3.4051540476883915 6.345914718063304 6.507728557073092 0 0 0
109 0 1 -1.1794 2.5453360494270703 8.108945224215617 8.23738933380322 1 0 0
311 0 2 0.5897 5.556753806957466 6.504531111906248 4.652510528023225 0 0 0
418 0 1 -1.1794 5.507416488043499 4.792349279526147 7.1559160612912285 -1 0 0
419 0 2 0.5897 4.723148251283477 5.211974018674775 6.691260216009693 -1 0 0
724 0 1 -1.1794 7.885387822883772 5.953009970149019 7.2670595565794995 0 0 0
725 0 2 0.5897 6.942023199073624 5.717568650635603 7.283574091220143 0 0 0
563 0 2 0.5897 8.665745474470125 6.061667009473057 8.852924574807618 1 0 0
726 0 2 0.5897 8.27879660478913 5.3610978315190305 6.636107138585013 0 0 0
3 0 2 0.5897 8.436469361413677 7.639357786465918 6.560437789735024 0 1 0
1 0 1 -1.1794 8.662572375350129 8.42657640534602 5.991353301340669 0 1 0
187 0 1 -1.1794 11.065070915519719 8.44767669147625 4.740860996096853 0 1 0
595 0 1 -1.1794 9.401384930093718 4.444025874241233 5.224540005537116 0 0 0
596 0 2 0.5897 10.323432650598248 4.554554675017876 5.363959311080847 0 0 0
67 0 1 -1.1794 12.086540963403898 4.967360128308765 6.120585504645818 0 0 0
68 0 2 0.5897 11.929433240959689 4.6813650235746564 7.0690179005262115 0 0 0
272 0 2 0.5897 12.66861567837311 8.136648285449327 5.33626032747076 1 0 -1
142 0 1 -1.1794 11.386249840791459 4.472325113513146 8.74816253299839 -1 1 1
69 0 2 0.5897 12.385978331819775 5.920695017775902 6.172499415741301 1 0 0
273 0 2 0.5897 13.538477529455815 8.500635024655184 6.628230902722083 1 0 -1
271 0 1 -1.1794 13.3897052760298 7.816611217426093 5.9332398406495095 1 0 -1
188 0 2 0.5897 10.265593982600436 8.353506852733934 5.194849478900171 0 0 0
739 0 1 -1.1794 17.77695811604923 6.9102618030031415 6.68942938180205 1 0 0
615 0 2 0.5897 15.077385842026722 4.978741522276463 7.4090818755139205 0 0 1
372 0 2 0.5897 14.869793098509795 7.2814664016499755 5.3233684267414585 -1 0 0
371 0 2 0.5897 16.290591741184993 7.26971052173032 5.669387474808869 -1 0 0
370 0 1 -1.1794 15.722018985029322 7.460759335197646 4.89584152435594 -1 0 0
810 0 2 0.5897 17.046989808924977 8.036341907866738 8.095682771760593 -1 0 0
808 0 1 -1.1794 16.528694485059276 8.448643029197788 8.75482197801749 -1 0 0
237 0 2 0.5897 1.8104883020169251 8.72299014556298 5.397922843291649 1 1 1
111 0 2 0.5897 2.4683195208525452 8.935315733514818 7.798300867485972 1 0 0
324 0 2 0.5897 2.8837922498006425 10.613629284763416 5.706711359855763 1 0 1
322 0 1 -1.1794 2.3621104135706847 10.1403050488264 6.39758516181158 1 0 1
323 0 2 0.5897 1.6915235684291403 10.799320898460065 6.7490651790653144 1 0 1
118 0 1 -1.1794 0.4064358654372616 11.75212924915981 7.468535001133897 1 0 -1
18 0 2 0.5897 3.274752042876208 12.490864944905677 4.740656867015358 0 0 1
119 0 2 0.5897 0.30725754085550727 11.279654829781075 8.403888528061637 1 0 -1
552 0 2 0.5897 1.4766651776933228 12.806405974870618 6.553470023485323 0 1 -1
225 0 2 0.5897 5.318296817629971 9.106795073948621 8.073820329069662 0 0 -1
224 0 2 0.5897 6.763086159552293 9.217921252733179 8.369389069835057 0 0 -1
260 0 2 0.5897 5.796395607146832 9.869988757523386 5.609250618004787 -1 0 1
307 0 1 -1.1794 5.729136188758249 11.090915433805844 6.923084408485517 0 -1 1
308 0 2 0.5897 4.8358067652779715 11.548954526153913 6.858877336614143 0 -1 1
309 0 2 0.5897 6.260871093569578 11.67555591846277 7.421973409146091 0 -1 1
259 0 1 -1.1794 6.1017009438818475 9.262756886187812 4.8639069936574595 -1 0 1
261 0 2 0.5897 6.758038090021747 8.661580988682013 5.240062195333985 -1 0 1
545 0 2 0.5897 8.721019748182924 10.897968967664218 8.40546420805726 0 -1 1
544 0 1 -1.1794 8.695717347678647 9.913585051478513 8.242134023703898 0 -1 0
2 0 2 0.5897 8.69129728963098 9.133807630299406 6.7139598675165235 0 1 0
223 0 1 -1.1794 5.991224150476357 8.690402326486769 8.589745881181324 0 0 -1
348 0 2 0.5897 13.537986883737632 9.268773647094724 8.713339016766842 -1 0 0
146 0 2 0.5897 13.03253878928785 11.316319507879069 5.307752741800471 -1 0 0
346 0 1 -1.1794 14.112903243179467 9.50195119292539 7.9894233743596335 -1 0 0
347 0 2 0.5897 15.03820546970167 9.13886857338333 8.198859871668935 -1 0 0
147 0 2 0.5897 13.666965071972413 10.831788536558141 6.589268048534847 -1 0 0
702 0 2 0.5897 16.319138581140123 11.003198014975684 4.92823799444127 0 0 0
145 0 1 -1.1794 13.593065520620389 11.566659851780805 6.0521016514174795 -1 0 0
120 0 2 0.5897 17.512202645680187 11.652763574910733 6.938286935236133 0 0 -1
700 0 1 -1.1794 16.432375451603765 11.75699394023687 5.5067410726393575 0 0 0
701 0 2 0.5897 15.491926682812695 11.861197313020927 5.785831769948198 0 0 0
48 0 2 0.5897 1.5484715181112179 16.543454691130158 5.011287235016189 1 -1 0
550 0 1 -1.1794 2.230060135867862 13.35778379511187 6.220172928515185 0 1 -1
551 0 2 0.5897 1.907075805454839 14.160691261698126 5.655800357297987 0 1 -1
46 0 1 -1.1794 1.1290520514624918 15.686897000975595 4.869422471400656 1 -1 0
104 0 2 0.5897 4.053941017331578 15.550746246688545 7.032640764069269 0 0 0
455 0 2 0.5897 3.0174322131260842 13.28982040408399 7.885127759475899 0 0 0
749 0 2 0.5897 1.3537937644881708 15.828674584293603 7.98006644938942 0 0 1
748 0 1 -1.1794 2.109195064031625 16.412569372155964 7.947428158329277 0 0 1
750 0 2 0.5897 2.060665208637377 16.981814228650585 7.203379332302751 0 0 0
454 0 1 -1.1794 3.645397774427385 13.14972986575177 8.617365559853264 0 0 0
379 0 1 -1.1794 6.175033391833158 13.819782657809363 4.711298462891559 0 0 0
362 0 2 0.5897 5.0209831158901315 16.70672297058254 4.6789747847887035 0 0 0
103 0 1 -1.1794 4.728749756296322 15.615879872369723 6.373085073301731 0 0 0
380 0 2 0.5897 6.9823558106727655 13.482398923705022 5.1003213636462466 0 0 0
381 0 2 0.5897 5.565314826424236 14.091455461748065 5.410658801649611 0 0 0
105 0 2 0.5897 5.3027896462225526 16.27947146714576 6.762841724891432 0 0 0
186 0 2 0.5897 8.574446086697762 14.475548748002735 5.440861849114029 -1 -1 0
491 0 2 0.5897 8.272138432749651 15.915379403653839 8.550941199037105 1 1 1
184 0 1 -1.1794 8.80891304022425 13.541636695077184 5.600592102160126 -1 -1 0
626 0 2 0.5897 6.9096992325320175 13.43636315720054 8.70082272839261 1 0 0
822 0 2 0.5897 12.586490082486884 12.836846140966369 7.215859591289394 1 0 0
820 0 1 -1.1794 12.155069660577922 13.223501229013209 8.003531938859794 1 0 0
151 0 1 -1.1794 9.568332010673352 12.911233910092028 8.330715031112495 0 0 -1
153 0 2 0.5897 10.51630139312135 13.012126889539726 8.183583241873604 0 1 -1
185 0 2 0.5897 9.188338499105946 13.52305315755841 6.4963454556032545 -1 -1 0
152 0 2 0.5897 9.346230970448156 13.666480214909697 8.89667162713801 0 0 -1
821 0 2 0.5897 12.601305928402653 14.112683567629073 8.030808080421146 1 0 0
55 0 1 -1.1794 9.54671710578102 16.99644638968242 7.445980633881961 1 0 0
56 0 2 0.5897 9.363317635545847 16.583501764686417 6.599787942429181 1 0 0
354 0 2 0.5897 17.15048209962227 15.410724308185678 5.148275232847404 0 -1 1
352 0 1 -1.1794 16.367726101215997 15.570475704023993 5.710566852651174 0 -1 1
353 0 2 0.5897 16.25460784579681 16.554585533758413 5.6840340502567885 0 -1 1
569 0 2 0.5897 16.646528946052445 15.284675287779368 7.48565033213976 0 1 0
568 0 1 -1.1794 17.278518903966987 15.521658050574354 8.19211843557658 0 1 0
570 0 2 0.5897 17.09545592314898 16.420399699297462 8.351924346760045 0 1 0
606 0 2 0.5897 14.863712306804906 15.1060005273647 8.905893492233698 0 1 0
473 0 2 0.5897 1.886205644989428 18.456943916865214 4.7488521582094965 1 -1 0
263 0 2 0.5897 0.7123686994285529 19.00647950641887 6.825749272143281 0 -1 0
472 0 1 -1.1794 2.240026377562043 18.184894862067274 5.633377697003081 1 -1 0
474 0 2 0.5897 3.199925633858017 18.383543378122226 5.560639617748579 1 -1 0
262 0 1 -1.1794 0.5626140200081975 19.5140368142052 7.613690047605669 0 0 0
234 0 2 0.5897 3.986793691365222 20.473835358870026 7.334595505919526 0 -1 0
584 0 2 0.5897 2.136157392482691 20.41777333111962 8.62631858732085 1 0 2
583 0 1 -1.1794 2.731382023411545 21.189932329205718 8.586625212547682 1 0 2
387 0 2 0.5897 4.544996712909867 17.80007470697368 8.731139537052831 1 0 0
232 0 1 -1.1794 4.689556301644961 20.245129627618212 6.767404624085471 0 -1 0
233 0 2 0.5897 4.766716521993972 19.29398213421245 6.993899819555464 0 -1 0
451 0 1 -1.1794 6.882270490396827 19.74273170527281 4.876923388112055 -1 0 0
385 0 1 -1.1794 5.145827250155706 17.78364955262795 7.952232491189707 1 0 0
386 0 2 0.5897 5.956461327329971 18.082646796073398 8.334121051212101 1 0 0
453 0 2 0.5897 6.29005018731308 20.2845381127131 5.384117601710953 -1 0 0
170 0 2 0.5897 8.031211035703901 19.74174558337259 8.252723564355518 0 -1 0
169 0 1 -1.1794 7.4072054834889185 19.175000397516122 8.757802296480298 0 -1 0
758 0 2 0.5897 13.323489626849495 17.09375240135904 8.04007186351981 1 0 0
757 0 1 -1.1794 12.718630456863192 17.835690819586553 7.876300874385812 1 0 0
57 0 2 0.5897 9.436364350608335 17.945870468580544 7.32822138543478 1 0 0
180 0 2 0.5897 11.958864618934355 20.376507165594262 5.388326543435637 0 0 1
815 0 2 0.5897 12.245292218431986 18.213875214505194 4.553980982812638 -1 0 0
814 0 1 -1.1794 11.820767229935335 18.53498768033061 5.391074270849067 -1 0 0
759 0 2 0.5897 12.072655730244751 17.696644884476832 7.123753296615773 1 0 0
816 0 2 0.5897 10.833921178020244 18.50902404802528 5.080822095187578 -1 0 0
85 0 1 -1.1794 10.069780263098027 19.97004336335783 8.086222086317619 0 0 -1
87 0 2 0.5897 10.07394805378703 20.85318594724275 8.461896712945306 0 0 -1
86 0 2 0.5897 10.936067510891965 19.63440057356901 8.072823549577244 0 0 -1
264 0 2 0.5897 17.833203768081432 20.206380254126024 7.324821080448854 -1 0 0
7 0 1 -1.1794 16.227600490472653 21.009322072800913 7.5286933071037785 1 0 1
630 0 2 0.5897 15.644304197172971 18.556443095463287 5.058943221920876 0 -1 0
628 0 1 -1.1794 16.017400332250965 18.35169718259069 5.962834662469554 0 -1 0
629 0 2 0.5897 15.592106146624044 18.96663120329149 6.566981915836796 0 -1 0
831 0 2 0.5897 17.597413320527945 18.68481780891736 8.743819967000576 -2 0 1
174 0 2 0.5897 0.17626560329334973 2.33382269190273 12.927065058267097 1 0 0
172 0 1 -1.1794 0.7513347419620432 2.921502603785515 12.383736088857534 1 0 0
173 0 2 0.5897 1.724216694642138 2.717338485290118 12.473753628537493 1 0 0
439 0 1 -1.1794 3.5102743777599446 2.8560344788130863 11.561570220251514 0 0 1
440 0 2 0.5897 3.5229489206005233 3.374043906372601 10.732755995338065 0 0 1
441 0 2 0.5897 4.147916578875509 3.2922719236145097 12.17009459886889 0 0 1
413 0 2 0.5897 4.048669260946424 0.934657635346655 11.454289372418298 1 0 0
176 0 2 0.5897 6.969184231301949 1.920646750712834 9.673521345758303 0 1 0
175 0 1 -1.1794 7.799700319542023 2.0329467871839384 10.132397889004645 1 1 0
177 0 2 0.5897 7.7567943736014655 2.8226169292510472 10.666086312270405 1 1 0
229 0 1 -1.1794 8.696779893432124 0.7829795529290731 12.240124222018546 1 0 -1
230 0 2 0.5897 8.525587361646632 1.0289872289187236 11.316536783579 1 0 -1
95 0 2 0.5897 9.22148201584885 2.0158874686262864 9.023269946335247 0 0 0
561 0 2 0.5897 11.197125237269274 1.2985135703612 9.866726913673514 -1 0 0
559 0 1 -1.1794 11.98362723985395 1.147222506612099 10.431165338175857 -1 0 0
560 0 2 0.5897 11.657911422293651 0.8007311150795522 11.27301949034819 -1 0 0
840 0 2 0.5897 12.647448601350424 2.865754312278039 10.921561657813767 0 0 1
838 0 1 -1.1794 12.764244575004202 3.8467509852317985 11.021408118443784 0 0 1
144 0 2 0.5897 12.048788338294104 4.31618638158393 9.411339589755611 -1 1 1
434 0 2 0.5897 11.244614359074976 4.255523258200114 11.858219887696867 0 0 0
435 0 2 0.5897 10.139961786952052 3.8238466793747974 12.771850969597146 0 0 0
733 0 1 -1.1794 11.72793503824406 0.522962836941306 13.067062645563585 1 0 -1
836 0 2 0.5897 17.389337471911034 2.7507485245546857 8.987291335466884 0 0 1
837 0 2 0.5897 17.705452165899796 2.4905212847569373 10.521032517930355 0 0 1
65 0 2 0.5897 16.108944558831574 4.1031290294715586 10.63321796137123 0 0 0
66 0 2 0.5897 15.763165134203833 4.2213030670566765 12.107173425653023 0 0 0
835 0 1 -1.1794 17.056771499143274 2.6940770379005956 9.886506788150742 0 0 1
789 0 2 0.5897 14.915544336906256 0.4281226113253815 12.564943426883683 1 2 -1
447 0 2 0.5897 15.615276314231082 1.3973851914817155 10.284639114879106 0 0 0
839 0 2 0.5897 13.733603385881185 4.018097308860331 11.103095014868057 0 0 1
446 0 2 0.5897 13.989324031597818 1.1705640074996901 10.086850534649937 0 0 0
445 0 1 -1.1794 14.859355659962725 0.7608407759781346 10.300100192689559 0 0 0
469 0 1 -1.1794 3.654705950074027 4.599940077540507 9.509958287812234 1 -1 0
471 0 2 0.5897 4.17376042377161 5.3975379811378685 9.66805550578113 1 -1 0
470 0 2 0.5897 2.7677226116300813 4.8180407955099565 9.245037560698352 1 -1 0
525 0 2 0.5897 0.5563010738874612 4.923207325217297 9.322944596917141 0 1 0
791 0 2 0.5897 1.248403493116223 5.878329870789932 11.408028782583463 1 0 1
801 0 2 0.5897 3.595858282048589 5.914625542067249 11.745874913143037 0 0 0
799 0 1 -1.1794 2.733398318645245 6.270830604628408 12.109066975762495 0 0 0
800 0 2 0.5897 2.6879221073990185 6.084521270942958 13.08287604151547 0 0 0
200 0 2 0.5897 2.5069562347908914 8.18173472382395 11.573189951382762 0 0 1