LAMMPS (29 Sep 2021 - Update 2)
  using 1 OpenMP thread(s) per MPI task
plugin load libdeepmd_lmp.so
Loading plugin: deepmd pair style v2.0 by Han Wang
Loading plugin: compute deeptensor/atom v2.0 by Han Wang
Loading plugin: fix dplr v2.0 by Han Wang
echo both

include		in.partitions
variable        pid world 0
include		in.temp
variable        temperature equal 270
variable        tempDamp equal 0.100
include		in.pressure
variable        pressure equal 986.923
variable        pressureDamp equal 1.0 # This is 1 ps
include		in.seed
variable        seed world 745823

units           metal
atom_style	full
include		in.box
read_data       water.data
Reading data file ...
  orthogonal box = (0.0000000 0.0000000 0.0000000) to (18.207573 21.446115 22.213196)
  1 by 1 by 1 MPI processor grid
  reading atoms ...
  864 atoms
  reading velocities ...
  864 velocities
Finding 1-2 1-3 1-4 neighbors ...
  special bond factors lj:    0        0        0       
  special bond factors coul:  0        0        0       
     0 = max # of 1-2 neighbors
     0 = max # of 1-3 neighbors
     0 = max # of 1-4 neighbors
     1 = max # of special neighbors
  special bonds CPU = 0.000 seconds
  read_data CPU = 1.746 seconds
include 	in.setup
variable	out_freq equal 500
variable	out_freq2 equal 500

timestep        0.0005

neigh_modify    delay 7 every 1

include         in.deepmd
# This is deepMD model

# create groups ###
#group ox type 2
#group hy type 1

mass 2 15.999
mass 1 1.008

pair_style      deepmd ../graph.pb
pair_coeff      * *

bond_style      none
angle_style     none
dihedral_style  none
improper_style  none
neigh_modify exclude none


neighbor        2.0 bin
neigh_modify    every 10 delay 0 check no

thermo          ${out_freq}
thermo          500
thermo_style 	custom step temp pe etotal epair emol press lx ly lz xy xz yz vol pxx pyy pzz pxy pxz pyz cella cellb cellc cellalpha cellbeta cellgamma


restart 	${out_freq} restart.lmp.${pid} restart2.lmp.${pid}
restart 	500 restart.lmp.${pid} restart2.lmp.${pid}
restart 	500 restart.lmp.0 restart2.lmp.${pid}
restart 	500 restart.lmp.0 restart2.lmp.0


include         in.dump
dump            myDump all atom ${out_freq2} dump.water.${pid}
dump            myDump all atom 500 dump.water.${pid}
dump            myDump all atom 500 dump.water.0
dump            myDump2 all dcd ${out_freq2} dump.dcd
dump            myDump2 all dcd 500 dump.dcd
dump_modify     myDump append yes
dump_modify     myDump2 append yes


timer           timeout 23:50:00 every 1000
New timer settings: style=normal  mode=nosync  timeout=23:50:00

fix             2 all nph iso ${pressure} ${pressure} ${pressureDamp}
fix             2 all nph iso 986.923 ${pressure} ${pressureDamp}
fix             2 all nph iso 986.923 986.923 ${pressureDamp}
fix             2 all nph iso 986.923 986.923 1
fix             3 all temp/csvr ${temperature} ${temperature} ${tempDamp} ${seed}
fix             3 all temp/csvr 270 ${temperature} ${tempDamp} ${seed}
fix             3 all temp/csvr 270 270 ${tempDamp} ${seed}
fix             3 all temp/csvr 270 270 0.1 ${seed}
fix             3 all temp/csvr 270 270 0.1 745823
velocity 	all create ${temperature} ${seed} dist gaussian
velocity 	all create 270 ${seed} dist gaussian
velocity 	all create 270 745823 dist gaussian

run             2000000

CITE-CITE-CITE-CITE-CITE-CITE-CITE-CITE-CITE-CITE-CITE-CITE-CITE

Your simulation uses code contributions which should be cited:

- USER-DEEPMD package:

@article{Wang_ComputPhysCommun_2018_v228_p178,
  author = {Wang, Han and Zhang, Linfeng and Han, Jiequn and E, Weinan},
  doi = {10.1016/j.cpc.2018.03.016},
  url = {https://doi.org/10.1016/j.cpc.2018.03.016},
  year = 2018,
  month = {jul},
  publisher = {Elsevier {BV}},
  volume = 228,
  journal = {Comput. Phys. Commun.},
  title = {{DeePMD-kit: A deep learning package for many-body potential energy representation and molecular dynamics}},
  pages = {178--184}
}

CITE-CITE-CITE-CITE-CITE-CITE-CITE-CITE-CITE-CITE-CITE-CITE-CITE

Neighbor list info ...
  update every 10 steps, delay 0 steps, check no
  max neighbors/atom: 2000, page size: 100000
  master list distance cutoff = 8
  ghost atom cutoff = 8
  binsize = 4, bins = 5 6 6
  1 neighbor lists, perpetual/occasional/extra = 1 0 0
  (1) pair deepmd, perpetual
      attributes: full, newton on
      pair build: full/bin
      stencil: full/bin/3d
      bin: standard
Per MPI rank memory allocation (min/avg/max) = 7.215 | 7.215 | 7.215 Mbytes
Step Temp PotEng TotEng E_pair E_mol Press Lx Ly Lz Xy Xz Yz Volume Pxx Pyy Pzz Pxy Pxz Pyz Cella Cellb Cellc CellAlpha CellBeta CellGamma 
       0          270    -134.9383    -104.8194    -134.9383            0    24699.997    18.207573    21.446115    22.213196            0            0            0    8673.8466    24566.994    25484.632    24048.365    1101.0544   -264.16926   -872.69259    18.207573    21.446115    22.213196           90           90           90 
     500    263.23312   -127.37551   -98.011465   -127.37551            0   -2058.2937    18.286708    21.539325     22.30974            0            0            0    8787.4352    423.25721   -4110.7154   -2487.4228    1085.7177   -1445.9157   -732.02713    18.286708    21.539325     22.30974           90           90           90 
    1000    273.19834   -125.43959   -94.963902   -125.43959            0    2550.0804    18.300737     21.55585    22.326856            0            0            0     8807.676    1329.6334    3106.8694    3213.7383   -1372.8795     854.7842   -900.30622    18.300737     21.55585    22.326856           90           90           90 
    1500     255.8301   -125.09917   -96.560935   -125.09917            0    2254.4472    18.256462    21.503699     22.27284            0            0            0    8743.9041    2193.5004    481.65972    4088.1815    818.26563   -982.59772    466.89589    18.256462    21.503699     22.27284           90           90           90 
    2000    267.29841   -124.24314   -94.425599   -124.24314            0   -3080.0744    18.201915     21.43945    22.206293            0            0            0    8665.7626   -1713.9381   -4162.8767   -3363.4084   -64.006705    1067.5667    345.54047    18.201915     21.43945    22.206293           90           90           90 
    2500    285.43703   -125.77534   -93.934407   -125.77534            0     2144.713    18.230101    21.472651    22.240681            0            0            0    8706.0832    1431.9373    2500.1745    2502.0271   -531.24708    961.61424   -1001.5906    18.230101    21.472651    22.240681           90           90           90 
    3000    271.37164    -123.9882   -93.716287    -123.9882            0    1366.6182    18.254896    21.501855     22.27093            0            0            0    8741.6543    624.58022    3392.8381    82.436172    141.06906   -1263.8964   -1871.5676    18.254896    21.501855     22.27093           90           90           90 
    3500    260.63218   -124.64479   -95.570877   -124.64479            0    267.37757    18.224275    21.465787    22.233572            0            0            0    8697.7379    516.06935   -409.98901    696.05236   -877.20035    804.64002    1602.0078    18.224275    21.465787    22.233572           90           90           90 
    4000    263.57592   -124.99356   -95.591268   -124.99356            0    1770.8997    18.112486    21.334115     22.09719            0            0            0    8538.6601    185.33709    4915.5288    211.83327    804.67187    977.86475    -1672.171    18.112486    21.334115     22.09719           90           90           90 
    4500    259.52158   -124.30623   -95.356203   -124.30623            0    1035.0245     18.15624    21.385651     22.15057            0            0            0    8600.6898   -934.95039    2230.6215    1809.4022   -1468.5944    2319.7752   -1829.1474     18.15624    21.385651     22.15057           90           90           90 
    5000    270.21785   -124.57839   -94.435179   -124.57839            0    1258.1047     18.24703     21.49259    22.261334            0            0            0    8730.3596   -234.64743     736.2479    3272.7135    1018.4153   -1525.6638   -1491.1517     18.24703     21.49259    22.261334           90           90           90 
    5500    262.90465   -125.97853   -96.651124   -125.97853            0    1634.5911    18.060745    21.273171    22.034066            0            0            0    8465.6938    121.51292    925.98463    3856.2757   -58.266344    266.07033    -56.39846    18.060745    21.273171    22.034066           90           90           90 
    6000    269.93575   -125.48754   -95.375805   -125.48754            0      2831.28    18.095729    21.314377    22.076746            0            0            0    8514.9828    3987.8759    1739.5044    2766.4596    1303.5797   -3515.2275   -1985.9177    18.095729    21.314377    22.076746           90           90           90 
    6500    267.36852   -125.26828   -95.442922   -125.26828            0   -464.79172    18.210261    21.449281    22.216476            0            0            0     8677.689   -506.97744   -892.48798    5.0902821    2159.7972    92.954069   -935.15024    18.210261    21.449281    22.216476           90           90           90 
    7000    271.95409   -123.76312   -93.426234   -123.76312            0    302.45196    18.057483    21.269329    22.030086            0            0            0    8461.1071    1996.0947     -4010.45    2921.7112   -1411.5378   -2068.0157   -536.73603    18.057483    21.269329    22.030086           90           90           90 
    7500    277.34636    -125.0886   -94.150201    -125.0886            0    2169.2443    18.061202    21.273709    22.034624            0            0            0     8466.336    706.14135    2995.0691    2806.5225   -790.88821    -738.4085    292.42829    18.061202    21.273709    22.034624           90           90           90 
    8000    263.01056   -122.65745   -93.318231   -122.65745            0   -418.55033    18.052141    21.263037    22.023569            0            0            0    8453.6003    954.52086   -2265.4477    55.275892   -1436.0128    -2173.191   -939.59161    18.052141    21.263037    22.023569           90           90           90 
    8500    267.61491   -123.85638   -94.003538   -123.85638            0    3507.5857    17.978322    21.176088    21.933511            0            0            0    8350.3184    3627.1916     1426.159    5469.4063     2789.491    176.78361    2066.5015    17.978322    21.176088    21.933511           90           90           90 
    9000    271.16719   -122.07735   -91.828239   -122.07735            0    1742.2222    18.027185    21.233641    21.993123            0            0            0    8418.5884    3487.6571    1512.7199    226.28944   -716.08663   -434.28733    2474.7614    18.027185    21.233641    21.993123           90           90           90 
    9500    276.92574   -122.57898   -91.687499   -122.57898            0    2114.9545     17.93234    21.121926    21.877412            0            0            0    8286.4102    438.86218    4059.0964     1846.905    33.370158    333.02991   -669.99259     17.93234    21.121926    21.877412           90           90           90 
   10000    284.45262   -123.16914   -91.438024   -123.16914            0    78.771072    17.955299     21.14897    21.905423            0            0            0    8318.2794    837.81834    397.18473   -998.68985     339.3096    441.67189   -4382.9102    17.955299     21.14897    21.905423           90           90           90 
   10500    283.71316   -121.74344   -90.094809   -121.74344            0   -235.49762    17.945955    21.137964    21.894023            0            0            0    8305.2992    361.36945   -150.16051   -917.70182   -864.47763   -2461.8408    2580.8611    17.945955    21.137964    21.894023           90           90           90 
   11000    280.98369   -123.80516   -92.461002   -123.80516            0    2341.0345    17.897175    21.080508    21.834512            0            0            0    8237.7582    782.11651    3903.6397    2337.3472    153.29618   -703.55355    254.04228    17.897175    21.080508    21.834512           90           90           90 
   11500    277.19363    -125.0183   -94.096932    -125.0183            0   -2432.3655     17.97416    21.171185    21.928432            0            0            0    8344.5199    -2375.049   -4748.3761   -173.67153    429.00426   -1697.2704   -2460.1162     17.97416    21.171185    21.928432           90           90           90 
   12000     274.3146   -123.49217   -92.891965   -123.49217            0    1905.4358    17.970438    21.166802    21.923892            0            0            0    8339.3379    3810.2173    953.34873    952.74129    -1744.822    857.00415   -1095.0232    17.970438    21.166802    21.923892           90           90           90 
   12500    272.59946   -122.40526   -91.996384   -122.40526            0    1038.8307    17.963186    21.158259    21.915044            0            0            0    8329.2451   -636.04952    4713.1097     -960.568   -4093.3002   -2416.0923    94.613418    17.963186    21.158259    21.915044           90           90           90 
   13000    284.19782   -123.16692   -91.464226   -123.16692            0    1858.0856    18.066369    21.279795    22.040927            0            0            0     8473.604    2050.9886    2112.3541    1410.9142    2720.3967   -765.19576    516.17355    18.066369    21.279795    22.040927           90           90           90 
   13500     266.9861   -123.62965   -93.846945   -123.62965            0    1677.4346    17.963072    21.158125    21.914906            0            0            0    8329.0873    4112.7728    2255.8882   -1336.3573    -2683.511    1322.8024    223.67943    17.963072    21.158125    21.914906           90           90           90 
   14000    266.49576   -124.24155   -94.513547   -124.24155            0    3765.5353    17.971727     21.16832    21.925465            0            0            0    8341.1326    3123.1851    703.97714    7469.4437   -391.86433   -1816.5715   -86.143663    17.971727     21.16832    21.925465           90           90           90 
   14500    265.18731   -124.79226   -95.210218   -124.79226            0   -162.73021    17.940008    21.130959    21.886767            0            0            0    8297.0452    865.05066    395.63949   -1748.8808    1673.1741   -1115.8965    1552.3724    17.940008    21.130959    21.886767           90           90           90 
   15000    273.36747   -123.95253   -93.457976   -123.95253            0   -615.14982    17.885719    21.067013    21.820535            0            0            0    8221.9485   -1885.6832    970.65648   -930.42274    -682.4425    2088.6024   -1.9214192    17.885719    21.067013    21.820535           90           90           90 
   15500    273.08931   -124.08715   -93.623626   -124.08715            0    1552.5808    17.861108    21.038025     21.79051            0            0            0    8188.0551    4645.3563    3305.5444   -3293.1584    1907.5723   -2029.4218    381.42228    17.861108    21.038025     21.79051           90           90           90 
   16000    263.25193   -123.01043   -93.644284   -123.01043            0    383.00598    17.934679    21.124682    21.880266            0            0            0     8289.654   -421.11254    878.75441    691.37606   -19.349851    2528.6042   -176.53957    17.934679    21.124682    21.880266           90           90           90 
   16500    279.94386    -124.9586   -93.730439    -124.9586            0    -172.5883    17.933487    21.123277    21.878811            0            0            0    8288.0002   -2247.8619    4410.6739   -2680.5768    138.05699    684.72027    -1073.554    17.933487    21.123277    21.878811           90           90           90 
   17000    269.71899   -123.55654    -93.46898   -123.55654            0    2072.5673    18.017971    21.222789    21.981882            0            0            0    8405.6865    3437.2347    534.90908    2245.5581    391.12289    2003.3331    1553.8451    18.017971    21.222789    21.981882           90           90           90 
   17500    265.37568   -123.00675   -93.403697   -123.00675            0    -1990.958    17.889144    21.071047    21.824713            0            0            0    8226.6728   -1128.3911   -478.21179   -4366.2713   -698.53652    1927.6491    240.00393    17.889144    21.071047    21.824713           90           90           90 
   18000    266.59828   -124.44507   -94.705632   -124.44507            0    1297.7391    17.749464    20.906523    21.654304            0            0            0    8035.4695    4269.8286   -46.894137   -329.71712    2016.6449   -1850.0991   -1809.3079    17.749464    20.906523    21.654304           90           90           90 
   18500    274.75377   -124.57994    -93.93074   -124.57994            0     1364.073    17.824839    20.995304    21.746261            0            0            0    8138.2753    1939.1221    2282.2434   -129.14656   -3392.8222   -39.878187    516.91382    17.824839    20.995304    21.746261           90           90           90 
   19000    269.04689   -123.41537   -93.402785   -123.41537            0     948.6902    17.901917    21.086092    21.840296            0            0            0    8244.3069    -735.3248    1886.2285    1695.1669   -354.68538    2227.7448   -1318.5032    17.901917    21.086092    21.840296           90           90           90 
   19500    282.47062   -123.72868   -92.218658   -123.72868            0      3511.87    17.784944    20.948313    21.697589            0            0            0    8083.7531    3127.6488    2400.4295    5007.5318    1164.3391    232.00785    1081.5855    17.784944    20.948313    21.697589           90           90           90 
   20000    260.91947   -123.03304   -93.927077   -123.03304            0   -3502.9794    17.829327    21.000591    21.751737            0            0            0     8144.425    413.85454   -8022.2345   -2900.5583   -548.51366    761.90795   -1440.7367    17.829327    21.000591    21.751737           90           90           90 
   20500    270.58472    -124.4205   -94.236368    -124.4205            0    1221.5436    17.872902    21.051917    21.804899            0            0            0    8204.2863    1581.5958    914.98714    1168.0477    1155.9688    224.84505    914.49053    17.872902    21.051917    21.804899           90           90           90 
   21000      262.503   -124.51362   -95.231017   -124.51362            0     756.0113    17.871204    21.049917    21.802827            0            0            0    8201.9478    680.93865    2578.1593   -991.06409    250.39983   -111.55346    2008.3297    17.871204    21.049917    21.802827           90           90           90 
   21500    260.48198   -124.81875   -95.761597   -124.81875            0    2438.8719    17.827921    20.998935    21.750021            0            0            0    8142.4976    4235.2303     185.1411    2896.2444   -1548.0938   -2449.0598    423.25297    17.827921    20.998935    21.750021           90           90           90 
   22000     267.2523    -124.0573   -94.244904    -124.0573            0   -878.63962    17.844384    21.018326    21.770106            0            0            0    8165.0756   -2693.6205   -1669.7902    1727.4918   -643.12901    529.43305    466.89548    17.844384    21.018326    21.770106           90           90           90 
   22500    255.32015   -122.43339   -93.952046   -122.43339            0    -1562.082    17.841018    21.014361    21.765999            0            0            0    8160.4561    320.32062   -1351.4039   -3655.1627    2176.2122   -653.68073    838.37265    17.841018    21.014361    21.765999           90           90           90 
   23000    275.94829   -125.19761   -94.415164   -125.19761            0    1431.3448    17.766518    20.926611     21.67511            0            0            0    8058.6544    1728.5955    2185.2794    380.15954    678.93415    1616.7288   -4038.7313    17.766518    20.926611     21.67511           90           90           90 
   23500    270.92449    -123.3713   -93.149265    -123.3713            0   -626.79587    17.807913    20.975369    21.725612            0            0            0    8115.1147    1620.6746   -2869.0874   -631.97487    -1261.163    1652.3005    775.14588    17.807913    20.975369    21.725612           90           90           90 
   24000    286.75685   -123.73882    -91.75066   -123.73882            0    222.17267    17.837737    21.010497    21.761997            0            0            0    8155.9548   -1691.0272   -306.41817    2663.9634    273.35588   -492.45105    887.56689    17.837737    21.010497    21.761997           90           90           90 
   24500    264.84028   -123.09151   -93.548174   -123.09151            0   -2933.0307    17.807729    20.975152    21.725387            0            0            0    8114.8626    518.85136   -6059.3461   -3258.5975   -570.19258   -1760.8945    1223.4899    17.807729    20.975152    21.725387           90           90           90 
   25000    281.22573   -123.75723   -92.386081   -123.75723            0    3186.2452    17.853688    21.029285    21.781457            0            0            0    8177.8546    3576.1816    3131.1203    2851.4336    722.70902    1355.7344    670.07489    17.853688    21.029285    21.781457           90           90           90 
   25500    270.10502   -122.01401   -91.883389   -122.01401            0    -1393.835    17.855204    21.031071    21.783307            0            0            0    8179.9383   -2089.5627     -2221.43    129.48774    214.97199   -1983.8309   -578.49604    17.855204    21.031071    21.783307           90           90           90 
   26000    283.80032   -123.72322   -92.064864   -123.72322            0    2579.0164    17.788389    20.952372    21.701793            0            0            0    8088.4525    6271.0042    1730.4986   -264.45345   -1288.5271   -1735.5528    189.45216    17.788389    20.952372    21.701793           90           90           90 
   26500    267.78562   -123.50454   -93.632653   -123.50454            0   -1558.1685    17.929036    21.118035    21.873382            0            0            0    8281.8313   -1639.2627    -2029.863   -1005.3799   -901.58105   -1680.6381    179.51174    17.929036    21.118035    21.873382           90           90           90 
   27000    270.76913   -122.05336   -91.848655   -122.05336            0    2664.9722    17.929353    21.118408    21.873768            0            0            0      8282.27    2091.3307    3083.6245    2819.9612     1014.512     -1947.98    331.75731    17.929353    21.118408    21.873768           90           90           90 
   27500    277.95904   -124.32768   -93.320927   -124.32768            0   -562.69447     17.87068    21.049299    21.802187            0            0            0    8201.2259    1329.9386   -637.98482   -2380.0372    29.086488    1579.0347   -2350.1083     17.87068    21.049299    21.802187           90           90           90 
   28000    266.71717   -124.31843   -94.565727   -124.31843            0    2132.4836    17.895199    21.078179      21.8321            0            0            0    8235.0288    2684.8204     2377.212    1335.4183    2058.1939   -3487.2635   -708.21816    17.895199    21.078179      21.8321           90           90           90 
   28500    276.07015    -123.8478   -93.051762    -123.8478            0    1420.6824    17.907691    21.092893     21.84734            0            0            0    8252.2868     4039.699   -473.88673    696.23502    419.79444     2445.382    132.81831    17.907691    21.092893     21.84734           90           90           90 
   29000    262.41785   -123.40212   -94.129009   -123.40212            0    321.29039    17.891561    21.073895    21.827662            0            0            0    8230.0085    1234.5855    3314.4367    -3585.151   -2304.2202    623.41287   -1678.7301    17.891561    21.073895    21.827662           90           90           90 
   29500    275.62871   -123.22843   -92.481631   -123.22843            0    -1092.929    17.940792    21.131882    21.887724            0            0            0    8298.1332    110.86626   -157.42355   -3232.2298   -46.124733    2298.8864    4198.7471    17.940792    21.131882    21.887724           90           90           90 
   30000    296.80317    -123.2722   -90.163363    -123.2722            0    2162.1354    17.969973    21.166254    21.923325            0            0            0    8338.6905    3966.9058    923.21919    1596.2813    761.33215     2027.068    305.79546    17.969973    21.166254    21.923325           90           90           90 
   30500    272.27429    -121.9793   -91.606691    -121.9793            0    353.73929    17.969042    21.165158    21.922189            0            0            0    8337.3947    903.20572    593.86887   -435.85672   -2141.7256   -3879.1827   -853.26989    17.969042    21.165158    21.922189           90           90           90 
   31000     278.1365   -122.84559   -91.819046   -122.84559            0   -2131.6268    17.918148     21.10521    21.860098            0            0            0     8266.752   -376.50076    -1099.411   -4918.9686    1331.4469    371.30462    1043.5107    17.918148     21.10521    21.860098           90           90           90 
   31500     274.6862   -122.85049   -92.208827   -122.85049            0    2280.2842    17.939501    21.130362    21.886149            0            0            0    8296.3424    -986.4252     8371.205   -543.92723   -3629.8542   -798.11354   -1195.6343    17.939501    21.130362    21.886149           90           90           90 
   32000    273.97044    -123.0905   -92.528685    -123.0905            0   -926.74033    17.952691    21.145898    21.902241            0            0            0    8314.6548   -164.37696   -3720.9073    1105.0632   -136.50082   -692.47074    2155.2793    17.952691    21.145898    21.902241           90           90           90 
   32500    275.12041     -123.754   -93.063904     -123.754            0    2217.5888    17.883904    21.064875     21.81832            0            0            0    8219.4455    207.74812    2644.8077    3800.2107   -1062.7168   -754.38405    424.36669    17.883904    21.064875     21.81832           90           90           90 
   33000    271.39982   -123.26404   -92.988981   -123.26404            0    3127.6341    17.801006    20.967233    21.717185            0            0            0     8105.675    2464.5005    3798.4588    3119.9429   -570.90042   -2265.3222    3858.7468    17.801006    20.967233    21.717185           90           90           90 
   33500    281.54531   -124.46182   -93.055021   -124.46182            0   -1366.8356    17.880376     21.06072    21.814016            0            0            0    8214.5823   -176.03742   -1406.3943    -2518.075    1042.7397   -1061.5713   -317.15041    17.880376     21.06072    21.814016           90           90           90 
   34000    265.96952   -124.94846    -95.27916   -124.94846            0   -156.45156     17.87258    21.051538    21.804506            0            0            0    8203.8429   -1416.3921   -1007.1605    1954.1979    884.71874   -1274.3104   -537.89567     17.87258    21.051538    21.804506           90           90           90 
   34500    257.35022   -124.80732   -96.099511   -124.80732            0     2041.225    17.865995    21.043781    21.796471            0            0            0    8194.7772    1090.9024    1754.8509    3277.9217    2287.4118   -1799.7519    278.46142    17.865995    21.043781    21.796471           90           90           90 
   35000    258.53322   -124.83687   -95.997096   -124.83687            0   -350.45208    17.821472    20.991339    21.742154            0            0            0    8133.6649   -2034.5837    1605.0438   -621.81636   -254.33549     1021.886    1014.3972    17.821472    20.991339    21.742154           90           90           90 
   35500    265.32376   -125.59353   -95.996262   -125.59353            0     1533.775    17.822407     20.99244    21.743295            0            0            0    8134.9453    694.60725    4804.4618   -897.74409    337.04397    75.584152   -1812.3258    17.822407     20.99244    21.743295           90           90           90 
   36000    267.97639   -124.83662   -94.943446   -124.83662            0    394.48315    17.802976    20.969553    21.719588            0            0            0    8108.3664   -132.21749   -993.04435    2308.7113   -678.66122   -520.49336   -2400.1713    17.802976    20.969553    21.719588           90           90           90 
   36500     267.1593    -123.8358   -94.033777    -123.8358            0    2596.2536    17.750154    20.907336    21.655146            0            0            0    8036.4069   -700.64586    4384.1201    4105.2867    938.26058   -3489.8002    2610.5532    17.750154    20.907336    21.655146           90           90           90 
   37000    269.41696   -123.80946   -93.755591   -123.80946            0    880.28344    17.854261    21.029961    21.782157            0            0            0    8178.6425    2108.2154   -400.98361    933.61853     182.9461    963.32438   -1500.6467    17.854261    21.029961    21.782157           90           90           90 
   37500    275.84695   -124.31264   -93.541498   -124.31264            0   -2647.3147    17.844074    21.017961    21.769728            0            0            0    8164.6508   -1019.0964   -2774.6086   -4148.2389    2102.3454   -573.36131   -818.86228    17.844074    21.017961    21.769728           90           90           90 
   38000    272.82251   -122.63107   -92.197303   -122.63107            0    3252.8942    17.818654     20.98802    21.738716            0            0            0    8129.8069    3298.5913     3716.259    2743.8322    2016.5663    3718.2079    2439.8827    17.818654     20.98802    21.738716           90           90           90 
   38500    265.78219   -121.94446   -92.296061   -121.94446            0    2752.2874     17.86106    21.037969    21.790451            0            0            0     8187.989    2769.6763    4288.6635    1198.5226   -323.15911   -1789.0255    1908.4115     17.86106    21.037969    21.790451           90           90           90 
   39000    265.51175   -122.48629   -92.868054   -122.48629            0   -987.64504     17.86777    21.045872    21.798637            0            0            0    8197.2206    -3085.309    573.67144   -451.29756   -805.51733    -635.7327    1888.4566     17.86777    21.045872    21.798637           90           90           90 
   39500    270.59617   -122.29159   -92.106181   -122.29159            0    862.80314    18.011598    21.215282    21.974107            0            0            0    8396.7704   -598.65559    1733.9973    1453.0677    1343.0928    2187.7459   -1169.1941    18.011598    21.215282    21.974107           90           90           90 
   40000    271.55112   -122.53156   -92.239623   -122.53156            0   -1802.6659    17.851309    21.026484    21.778555            0            0            0    8174.5864    384.76502   -3363.8726     -2428.89   -2371.4212    773.02308   -2133.9948    17.851309    21.026484    21.778555           90           90           90 
   40500     269.2971   -123.12692   -93.086421   -123.12692            0   -542.11382    17.781817    20.944631    21.693775            0            0            0     8079.491    4140.4555   -3776.0441   -1990.7529    2915.8846   -1273.4599   -1581.1861    17.781817    20.944631    21.693775           90           90           90 
   41000    268.16669   -122.86654   -92.952146   -122.86654            0    3681.6995    17.835415    21.007762    21.759164            0            0            0    8152.7705    5408.6945    4787.4641    848.94008   -1304.2372    2679.4738    -243.4413    17.835415    21.007762    21.759164           90           90           90 
   41500    280.08125   -123.94235   -92.698862   -123.94235            0   -192.30446    17.823894    20.994192    21.745108            0            0            0    8136.9813    627.21337    579.23624    -1783.363   -310.02275    485.14075    403.01938    17.823894    20.994192    21.745108           90           90           90 
   42000    278.94852   -124.49375   -93.376619   -124.49375            0    2007.0666     17.85409    21.029759    21.781948            0            0            0    8178.4072    2352.1789    3789.6133   -120.59234   -1395.5314   -1134.7513     176.9328     17.85409    21.029759    21.781948           90           90           90 
   42500    258.75684   -121.78079   -92.916075   -121.78079            0   -856.84776    17.874009    21.053221    21.806249            0            0            0    8205.8106    3329.0419   -3266.3818   -2633.2034   -1075.6229      1710.88   -1609.1022    17.874009    21.053221    21.806249           90           90           90 
   43000    277.27409   -123.68072   -92.750381   -123.68072            0   -584.72607    17.739086    20.894299    21.641643            0            0            0    8021.3836    1457.4403   -1405.7127   -1805.9058    2821.2568    1337.2419   -2926.6641    17.739086    20.894299    21.641643           90           90           90 
   43500    272.74932   -123.76641   -93.340817   -123.76641            0    1188.1661    17.755244    20.913331    21.661356            0            0            0    8043.3226   -1346.1558    4008.6606    901.99345    1596.5033    3263.8481    988.95784    17.755244    20.913331    21.661356           90           90           90 
   44000     266.1465   -122.61583   -92.926789   -122.61583            0    386.23541    17.753128    20.910839    21.658774            0            0            0    8040.4475    226.26516     947.3086   -14.867519   -820.31532   -522.97421    1655.6885    17.753128    20.910839    21.658774           90           90           90 
   44500    274.52174   -123.25005   -92.626741   -123.25005            0    5215.6021    17.704081    20.853068    21.598937            0            0            0    7973.9905     2510.039     4226.329    8910.4383    2660.4466    -209.9949   -4325.0119    17.704081    20.853068    21.598937           90           90           90 
   45000     251.9629   -123.51944   -95.412596   -123.51944            0   -644.92368    17.788526    20.952533     21.70196            0            0            0    8088.6393    1202.4237    -199.9315   -2937.2632    499.84659   -1427.4248    2277.4651    17.788526    20.952533     21.70196           90           90           90 
   45500    263.44127   -123.70556    -94.31829   -123.70556            0    683.36271     17.90448    21.089112    21.843423            0            0            0    8247.8491   -3286.0067    1540.6592    3795.4356   -500.78042    108.84175     350.7983     17.90448    21.089112    21.843423           90           90           90 
   46000    271.16493   -123.93877   -93.689919   -123.93877            0    3855.3848    17.926504    21.115053    21.870293            0            0            0    8278.3236    4442.1154    3068.3782    4055.6607   -1390.7208     1095.494   -1747.2879    17.926504    21.115053    21.870293           90           90           90 
   46500     278.6303   -124.50031   -93.418678   -124.50031            0    2350.5299    17.786665    20.950341     21.69969            0            0            0    8086.1009    1896.1172   -372.34214    5527.8145    2602.6948    1272.2989   -1721.4145    17.786665    20.950341     21.69969           90           90           90 
   47000    273.33026   -123.77756   -93.287161   -123.77756            0    691.73524     17.80921    20.976896    21.727194            0            0            0    8116.8871    1298.2127    305.12255    471.87043   -1897.2004    1823.6576   -135.12403     17.80921    20.976896    21.727194           90           90           90 
   47500    272.64441   -123.54638   -93.132482   -123.54638            0    782.34385    17.895254    21.078244    21.832167            0            0            0    8235.1052    2008.5267   -1670.4536    2008.9584   -2774.8421    1441.7366   -3095.1471    17.895254    21.078244    21.832167           90           90           90 
   48000    276.53868   -122.93272    -92.08441   -122.93272            0   -11.887142    17.868607    21.046858    21.799659            0            0            0    8198.3732   -2051.0432    119.69175      1895.69   -2580.3554    1757.4412      1046.13    17.868607    21.046858    21.799659           90           90           90 
   48500    276.08432   -124.19839   -93.400768   -124.19839            0    287.83403    17.828751    20.999913    21.751034            0            0            0    8143.6352    109.34801    832.98284    -78.82876    1211.5752    1674.7115   -485.26609    17.828751    20.999913    21.751034           90           90           90 
   49000    273.24807   -122.12762   -91.646387   -122.12762            0   -50.383051    17.926255     21.11476    21.869989            0            0            0    8277.9786    1121.8298   -2871.8932    1598.9142   -520.84668   -351.65708     777.8928    17.926255     21.11476    21.869989           90           90           90 
   49500    286.84247   -120.78629   -88.788579   -120.78629            0   -432.95632    17.957714    21.151814    21.908368            0            0            0    8321.6355    -2364.758    2369.0046   -1303.1155   -2620.5923   -2440.8006    2058.1182    17.957714    21.151814    21.908368           90           90           90 
   50000    284.98311   -122.21463   -90.424337   -122.21463            0    2324.8022     17.87833    21.058311    21.811521            0            0            0    8211.7636    532.17437    3377.2511    3064.9812    896.53059   -2098.9584   -1761.1809     17.87833    21.058311    21.811521           90           90           90 
   50500    274.07055   -122.79914   -92.226162   -122.79914            0    3845.8248    17.847364    21.021837    21.773742            0            0            0    8169.1679    3010.5292    5659.1493    2867.7959   -1180.2287    1587.0945    1884.5146    17.847364    21.021837    21.773742           90           90           90 
   51000    267.56968   -121.52634    -91.67854   -121.52634            0    328.51125    17.891146    21.073405    21.827155            0            0            0    8229.4347    1287.9739   -1095.7326    793.29242    1106.7658    1921.7256   -1189.9292    17.891146    21.073405    21.827155           90           90           90 
   51500    266.33316   -123.09377   -93.383901   -123.09377            0    952.37248    17.936029    21.126272    21.881913            0            0            0    8291.5258    1705.6132    1216.6326   -65.128359   -173.41106   -1437.1952    2122.3664    17.936029    21.126272    21.881913           90           90           90 
   52000    257.47985    -124.3186   -95.596331    -124.3186            0    285.45739    17.838988    21.011971    21.763523            0            0            0    8157.6712    1027.8673   -1132.8521    961.35698   -2099.9489   -782.96403   -822.91124    17.838988    21.011971    21.763523           90           90           90 
   52500    269.04229   -122.13114   -92.119063   -122.13114            0   -25.737289    17.906638    21.091654    21.846056            0            0            0    8250.8319   -913.04663    2126.1173   -1290.2825   -1678.5545   -1642.5573   -824.60681    17.906638    21.091654    21.846056           90           90           90 
   53000    269.40758   -124.10551   -94.052694   -124.10551            0    3905.4701     17.96771    21.163588    21.920564            0            0            0      8335.54    3268.3212    3481.9795    4966.1096    615.16466   -807.00784   -1219.1176     17.96771    21.163588    21.920564           90           90           90 
   53500    273.76545   -124.24823   -93.709278   -124.24823            0   -1401.3707     17.89785    21.081303    21.835335            0            0            0    8238.6903    186.42825   -1620.9575   -2769.5829   -674.21588   -1123.9252    20.024416     17.89785    21.081303    21.835335           90           90           90 
   54000    270.55504   -123.05132   -92.870494   -123.05132            0      4671.16    17.802204    20.968644    21.718647            0            0            0    8107.3116    7102.5442    4723.4724    2187.4633    2408.7823    760.97378    845.18033    17.802204    20.968644    21.718647           90           90           90 
   54500    258.56827   -124.91511   -96.071433   -124.91511            0   -30.641567    17.859472    21.036098    21.788514            0            0            0    8185.8056    1092.1597   -458.38017   -725.70419   -538.50073    366.21404   -1666.2336    17.859472    21.036098    21.788514           90           90           90 
   55000    268.40015   -125.20678   -95.266342   -125.20678            0   -789.37939    17.916961    21.103812     21.85865            0            0            0    8265.1093   -1631.8635   -2514.5488    1778.2741    1412.7601   -991.26079    1701.4025    17.916961    21.103812     21.85865           90           90           90 
   55500    254.35842   -124.52326   -96.149197   -124.52326            0    245.44996    17.874449    21.053739    21.806785            0            0            0    8206.4162   -731.92123    450.06615    1018.2049   -1137.6444    1402.1929    736.73586    17.874449    21.053739    21.806785           90           90           90 
   56000    285.35358   -125.14277    -93.31115   -125.14277            0    2902.0149    17.723554    20.876005    21.622694            0            0            0    8000.3321    3749.5146      1307.55      3648.98    243.86127   -156.63381   -188.63306    17.723554    20.876005    21.622694           90           90           90 
   56500    271.73056   -123.38657   -93.074621   -123.38657            0    3469.4395     17.79395    20.958922    21.708577            0            0            0    8096.0401    2790.9126    2893.2308    4724.1751     1386.385    4560.0707    312.57785     17.79395    20.958922    21.708577           90           90           90 
   57000     268.4952   -123.67276   -93.721713   -123.67276            0    1444.4839    17.870051    21.048559     21.80142            0            0            0    8200.3601    1516.3594    2082.6549    734.43749    1892.0357    1061.6307   -162.85529    17.870051    21.048559     21.80142           90           90           90 
   57500    269.46039   -123.84648   -93.787765   -123.84648            0    3491.5447    17.803848    20.970581    21.720653            0            0            0    8109.5585    3495.9834    3927.6454    3051.0053    419.56586    526.74775    -312.4794    17.803848    20.970581    21.720653           90           90           90 
   58000    265.81376   -123.57752   -93.925595   -123.57752            0    614.82469    17.833486     21.00549     21.75681            0            0            0     8150.125     2128.569       339.18   -623.27495   -806.01974   -2493.2488   -3201.5935    17.833486     21.00549     21.75681           90           90           90 
   58500    268.00946   -124.00373   -94.106874   -124.00373            0    3414.2233    17.809815    20.977609    21.727932            0            0            0    8117.7149    2758.4868    4309.7127    3174.4705   -1848.4481    111.08057   -75.429457    17.809815    20.977609    21.727932           90           90           90 
   59000      270.052   -122.68224   -92.557533   -122.68224            0   -1249.4329    17.908707     21.09409     21.84858            0            0            0    8253.6916   -3789.1102    689.40385   -648.59242    277.22806    9.8825324   -824.78623    17.908707     21.09409     21.84858           90           90           90 
   59500    277.22616   -123.78926   -92.864263   -123.78926            0    3044.1161    17.868358    21.046564    21.799354            0            0            0    8198.0293    4770.2996    2121.2356    2240.8132   -1104.1951    1906.1904    2689.0669    17.868358    21.046564    21.799354           90           90           90 
   60000    270.76573   -124.21234   -94.008014   -124.21234            0     1492.453    17.892541    21.075049    21.828858            0            0            0    8231.3611   -2595.6164    4802.7986    2270.1769    175.72743    1284.5687    2109.7262    17.892541    21.075049    21.828858           90           90           90 
   60500    276.03263   -125.49117   -94.699316   -125.49117            0    72.474543    17.868864     21.04716    21.799971            0            0            0    8198.7256   -945.97416    828.72945    334.66834   -80.411352    625.59147   -1875.1644    17.868864     21.04716    21.799971           90           90           90 
   61000    270.22553   -124.32631   -94.182246   -124.32631            0    2797.8062    17.693244    20.840303    21.585715            0            0            0    7959.3561    1838.6628     5726.425    828.33077   -668.94616    1445.8055   -1449.3899    17.693244    20.840303    21.585715           90           90           90 
   61500       274.05   -124.25235   -93.681664   -124.25235            0    2580.2752    17.714719    20.865598    21.611916            0            0            0    7988.3739    3780.8073    1609.6397    2350.3785   -31.911263   -3183.1445    1704.7268    17.714719    20.865598    21.611916           90           90           90 
   62000    273.79395   -123.37881    -92.83668   -123.37881            0   -1313.0083    17.820378    20.990051     21.74082            0            0            0    8132.1677   -3770.7806   -582.50561    414.26131   -870.09813    142.32853    406.41494    17.820378    20.990051     21.74082           90           90           90 
   62500    276.89132   -124.78529   -93.897649   -124.78529            0   -1560.7584    17.897465    21.080849    21.834865            0            0            0    8238.1579    364.18995   -3947.6838   -1098.7813    1097.3034    1054.6497    625.54501    17.897465    21.080849    21.834865           90           90           90 
   63000    286.63912   -123.20793   -91.232903   -123.20793            0    1010.6867    17.803567    20.970249    21.720309            0            0            0    8109.1737   -1501.2889    6700.5787   -2167.2296    308.85126   -367.97284   -596.59427    17.803567    20.970249    21.720309           90           90           90 
   63500    262.41777    -123.0785   -93.805407    -123.0785            0    2009.4474    17.763803    20.923413    21.671798            0            0            0    8054.9604     1794.246   -119.19299    4353.2893   -232.90184    2500.5035    1521.6956    17.763803    20.923413    21.671798           90           90           90 
   64000    277.12079    -123.2196   -92.306358    -123.2196            0    1067.2574    17.740083    20.895473    21.642859            0            0            0    8022.7356    2355.6054    5125.6855   -4279.5187    78.516653    -43.96254   -1718.7023    17.740083    20.895473    21.642859           90           90           90 
   64500    270.55028   -121.99886   -91.818571   -121.99886            0   -375.57477    17.832241    21.004023    21.755291            0            0            0    8148.4182    -1196.589   -1142.9422    1212.8069    -3385.193    3130.9774    1799.9317    17.832241    21.004023    21.755291           90           90           90 
   65000    261.98611   -123.11325   -93.888303   -123.11325            0    1756.1445    17.754005    20.911871    21.659844            0            0            0    8041.6386    625.23951    3586.2017    1056.9922   -2305.7797   -222.60053   -389.03746    17.754005    20.911871    21.659844           90           90           90 
   65500    266.87389   -123.07287   -93.302688   -123.07287            0    1487.9388    17.806954    20.974239    21.724442            0            0            0    8113.8038    2506.8162    2452.4028   -495.40267   -1375.0345   -711.26033   -1592.0408    17.806954    20.974239    21.724442           90           90           90 
   66000     278.9966   -121.70675   -90.584256   -121.70675            0    1124.9738    17.872921     21.05194    21.804922            0            0            0    8204.3124    3142.4694    243.50743    -11.05544    1528.6626   -6.9133768   -106.13595    17.872921     21.05194    21.804922           90           90           90 
   66500    275.61701   -120.93271   -90.187216   -120.93271            0    734.34519    17.752526     20.91013     21.65804            0            0            0    8039.6294   -437.68197    1543.1047    1097.6129   -1853.7816    1227.0085   -559.54505    17.752526     20.91013     21.65804           90           90           90 
   67000     261.7854   -122.14966   -92.947103   -122.14966            0   -955.10905    17.835317    21.007646    21.759044            0            0            0    8152.6354    1366.1655    669.50763   -4901.0003   -3261.4657    1053.3641   -989.78596    17.835317    21.007646    21.759044           90           90           90 
   67500     272.8824   -123.56525    -93.12481   -123.56525            0    2082.4354    17.877322    21.057123     21.81029            0            0            0    8210.3739     3695.059    1442.6909    1109.5563   -223.03847   -12.642342   -152.61666    17.877322    21.057123     21.81029           90           90           90 
   68000    265.20717   -122.50394   -92.919682   -122.50394            0    525.84321    17.748231     20.90507    21.652799            0            0            0     8033.795    2682.7059    1427.9599   -2533.1362   -396.99594   -621.63413    245.86006    17.748231     20.90507    21.652799           90           90           90 
   68500    277.45187   -123.68173   -92.731556   -123.68173            0    2204.1093    17.770355     20.93113    21.679791            0            0            0    8063.8769    3942.6037    1015.0666    1654.6577   -2908.7311    1126.9624    1290.2535    17.770355     20.93113    21.679791           90           90           90 
   69000    256.21678   -123.51464   -94.933269   -123.51464            0    791.35922     17.90867    21.094047    21.848535            0            0            0    8253.6405   -721.75495    2467.7381    628.09451    729.40801    1142.8415    1616.2994     17.90867    21.094047    21.848535           90           90           90 
   69500    276.42878   -125.05572   -94.219676   -125.05572            0    2159.6966    17.901981    21.086168    21.840374            0            0            0    8244.3956    352.56526    2355.1981    3771.3266    737.36327    795.50408     445.5175    17.901981    21.086168    21.840374           90           90           90 
   70000     263.7818   -123.40959    -93.98433   -123.40959            0   -243.00835    17.894086    21.076869    21.830742            0            0            0    8233.4928   -2138.9949    1385.6977    24.272196    1385.8674   -2356.7859   -396.61753    17.894086    21.076869    21.830742           90           90           90 
   70500    264.79252   -123.42297   -93.884965   -123.42297            0    494.80705    17.905032    21.089761    21.844096            0            0            0    8248.6113   -362.80269    3062.2696   -1215.0457   -1605.2168    438.79464   -2727.9253    17.905032    21.089761    21.844096           90           90           90 
   71000    266.91499   -123.80514    -94.03037   -123.80514            0    4806.9097    17.757117    20.915538    21.663641            0            0            0    8045.8686    5752.1579    4040.8144    4627.7567    992.82753    648.42933    2364.5244    17.757117    20.915538    21.663641           90           90           90 
   71500    266.30001   -124.71128   -95.005108   -124.71128            0    1609.6105    17.783292    20.946368    21.695574            0            0            0    8081.5014    2258.3102    268.30309    2302.2183   -2431.0309   -261.64762   -1967.2216    17.783292    20.946368    21.695574           90           90           90 
   72000    289.85943   -123.43223   -91.097973   -123.43223            0    2395.7692    17.811701    20.979831    21.730234            0            0            0    8120.2945    3202.8377    886.75224    3097.7176   -3477.0769   -63.936036    1894.9907    17.811701    20.979831    21.730234           90           90           90 
   72500    275.55558   -123.69784     -92.9592   -123.69784            0    2086.8995     17.91002    21.095637    21.850182            0            0            0    8255.5076    294.01634    2229.0979    3737.5842   -3408.1715    1468.5623    695.07488     17.91002    21.095637    21.850182           90           90           90 
   73000    260.31365    -122.7543   -93.715916    -122.7543            0    982.91539    17.917371    21.104296    21.859151            0            0            0    8265.6772    593.17474    2473.9201   -118.34869   -2034.8204    836.41209    612.65674    17.917371    21.104296    21.859151           90           90           90 
   73500    280.87785   -124.11935   -92.787006   -124.11935            0    708.93009    17.825038     20.99554    21.746505            0            0            0    8138.5491    518.35245    5493.1058    -3884.668    1217.1196   -961.78192   -1164.7949    17.825038     20.99554    21.746505           90           90           90 
   74000    257.48655   -122.08014   -93.357126   -122.08014            0   -787.60104    17.774028    20.935456    21.684272            0            0            0    8068.8773   -1544.4157    446.62118   -1265.0086    1240.8182    1501.2093   -1155.8755    17.774028    20.935456    21.684272           90           90           90 
   74500    262.76112   -121.98805   -92.676652   -121.98805            0    947.56438    17.817266    20.986385    21.737023            0            0            0    8127.9077   -645.68235    5086.8778   -1598.5023   -235.58193     3.756441    712.65481    17.817266    20.986385    21.737023           90           90           90 
   75000    272.87522   -123.00065   -92.561006   -123.00065            0     1213.941    17.799896    20.965925    21.715831            0            0            0    8104.1591    165.32195    1910.6297    1565.8713    242.33002    1167.0365   -1048.1544    17.799896    20.965925    21.715831           90           90           90 
   75500    278.93016    -126.0244   -94.909324    -126.0244            0    1032.6383    17.784973    20.948348    21.697625            0            0            0    8083.7926   -856.87402    3761.5001    193.28889    -1325.487    2241.1165    2833.9347    17.784973    20.948348    21.697625           90           90           90 
   76000    277.63774   -123.96013   -92.989219   -123.96013            0    516.54282    17.764655    20.924416    21.672837            0            0            0    8056.1189    2299.0663    732.94487   -1482.3827    1194.3934   -1673.5928    2265.6793    17.764655    20.924416    21.672837           90           90           90 
   76500    250.72692   -125.11842   -97.149458   -125.11842            0    1366.5962    17.763778    20.923383    21.671767            0            0            0    8054.9257   -477.32927    590.85527    3986.2625    259.17147   -288.47692   -596.19045    17.763778    20.923383    21.671767           90           90           90 
   77000    256.22805    -125.3007   -96.718074    -125.3007            0    1474.1793    17.822442    20.992481    21.743337            0            0            0    8134.9925    1044.2419    1904.2634    1474.0326    1.0234886   -1848.6235    947.10653    17.822442    20.992481    21.743337           90           90           90 
   77500    272.76507    -125.4767   -95.049345    -125.4767            0    1297.7641    17.760983    20.920091    21.668357            0            0            0    8051.1245    3038.7323    201.35654    653.20344    -2605.207    2189.9656   -1433.2983    17.760983    20.920091    21.668357           90           90           90 
   78000    274.08497   -122.96548   -92.390888   -122.96548            0    2103.4535    17.801026    20.967256    21.717209            0            0            0    8105.7021    3093.7024   -392.19228    3608.8503    -344.8959    989.64782    -3330.306    17.801026    20.967256    21.717209           90           90           90 
   78500     256.4675   -124.51852   -95.909183   -124.51852            0   -730.96859    17.844393    21.018337    21.770117            0            0            0    8165.0887    2643.0751   -23.121017   -4812.8599   -850.78159    541.35757    2073.1638    17.844393    21.018337    21.770117           90           90           90 
   79000    263.54887   -124.21796   -94.818685   -124.21796            0    2019.7091    17.754425    20.912367    21.660356            0            0            0    8042.2097    4149.9019    253.50894    1655.7166    1032.6022    515.48468    766.52149    17.754425    20.912367    21.660356           90           90           90 
   79500    284.67624   -124.72668    -92.97062   -124.72668            0      956.873    17.814745    20.983416    21.733947            0            0            0    8124.4583    -201.4733   -87.802576    3159.8949    260.99094   -390.87482   -454.52913    17.814745    20.983416    21.733947           90           90           90 
   80000    267.93991   -122.37643   -92.487325   -122.37643            0   -288.80812    17.925171    21.113482    21.868666            0            0            0    8276.4758    2010.6327   -3214.4642     337.4072   -1745.5879   -22.002097     947.8326    17.925171    21.113482    21.868666           90           90           90 
   80500    271.68154    -123.8873   -93.580818    -123.8873            0    659.13068    17.914307    21.100686    21.855412            0            0            0    8261.4366   -3144.0351    2756.0952    2365.3319    1059.8652   -64.297215    68.088663    17.914307    21.100686    21.855412           90           90           90 
   81000     268.2105    -124.4127   -94.493412    -124.4127            0    3486.9721    17.857015    21.033204    21.785516            0            0            0    8182.4276    4969.9199    3129.2158    2361.7807   -1860.8449    1293.6357   -282.44152    17.857015    21.033204    21.785516           90           90           90 
   81500    266.99097   -124.59271   -94.809465   -124.59271            0   -2243.0653     17.96939    21.165567    21.922614            0            0            0    8337.8792   -2370.7929   -3946.3274   -412.07565   -2560.6479    684.51559   -1624.9108     17.96939    21.165567    21.922614           90           90           90 
   82000    256.14103   -123.63266   -95.059745   -123.63266            0    2731.9114    17.797346    20.962921     21.71272            0            0            0     8100.676    4155.0997    2172.7408    1867.8936    1061.7235   -985.28164   -210.73056    17.797346    20.962921     21.71272           90           90           90 
   82500    284.95366   -124.20267    -92.41566   -124.20267            0    1961.4449    17.793533    20.958431    21.708068            0            0            0    8095.4712    231.27425   -417.27125    6070.3316    314.29109   -1044.4198    578.92632    17.793533    20.958431    21.708068           90           90           90 
   83000    272.70445   -123.12379   -92.703203   -123.12379            0   -2072.5885    17.911298    21.097142    21.851741            0            0            0    8257.2749   -431.50047   -1233.9707   -4552.2943   -3918.9343    910.45064    893.84498    17.911298    21.097142    21.851741           90           90           90 
   83500    269.63812   -123.61433   -93.535792   -123.61433            0    3694.0612    17.760218     20.91919    21.667424            0            0            0    8050.0843    5184.3965    2771.8675    3125.9197    101.95937    1326.1569    2610.6999    17.760218     20.91919    21.667424           90           90           90 
   84000    291.41538   -124.50252   -91.994693   -124.50252            0    1825.3451    17.755711    20.913881    21.661925            0            0            0    8043.9572    3863.7897    97.794665     1514.451     1027.969   -1191.7231   -1505.6996    17.755711    20.913881    21.661925           90           90           90 
   84500    270.32426   -123.75138   -93.596302   -123.75138            0   -2585.4825    17.831413    21.003049    21.754282            0            0            0    8147.2842   -3374.5537   -2462.0718    -1919.822   -586.00115   -265.31928   -1475.0767    17.831413    21.003049    21.754282           90           90           90 
   85000     265.5839   -123.11818   -93.491896   -123.11818            0    3986.4558    17.834249    21.006389    21.757742            0            0            0    8151.1717    4555.9701    1601.1742     5802.223    1139.4877   -294.11673   -2238.7361    17.834249    21.006389    21.757742           90           90           90 
   85500    292.09519   -124.14079   -91.557134   -124.14079            0    200.53015    17.824564    20.994981    21.745926            0            0            0    8137.8992    372.79857   -1607.0952     1835.887    1132.9136    -2447.787    2037.5485    17.824564    20.994981    21.745926           90           90           90 
   86000    273.75769   -123.76418   -93.226099   -123.76418            0   -1219.1475    17.906624    21.091637    21.846039            0            0            0    8250.8128   -1274.3281    325.52748   -2708.6419    391.79194    940.51136    1254.8832    17.906624    21.091637    21.846039           90           90           90 
   86500    260.64945   -123.78188   -94.706042   -123.78188            0    1267.2363    17.855311    21.031196    21.783437            0            0            0    8180.0844    2951.8981    668.78324    181.02745    688.15428   -557.60382   -3329.9136    17.855311    21.031196    21.783437           90           90           90 
   87000    259.27198   -124.55896   -95.636784   -124.55896            0   -1027.4617    17.931149    21.120524    21.875959            0            0            0    8284.7592   -3520.9342   -1177.6593    1616.2084   -1526.3669     433.4162    795.33374    17.931149    21.120524    21.875959           90           90           90 
   87500    264.98006   -123.05832     -93.4994   -123.05832            0   -737.84863    17.835494    21.007855    21.759261            0            0            0     8152.879   -1560.1583    1005.9683   -1659.3559    37.101094    -3138.361   -4658.4656    17.835494    21.007855    21.759261           90           90           90 
   88000    273.76696   -123.75657   -93.217455   -123.75657            0    795.66525    17.691834    20.838642    21.583995            0            0            0    7957.4533    954.70843    1071.5632     360.7241    1137.7123   -1819.3114    1913.1067    17.691834    20.838642    21.583995           90           90           90 
   88500    261.83984   -123.68176   -94.473133   -123.68176            0     2063.952    17.808582    20.976156    21.726428            0            0            0    8116.0286    2110.8402    1303.3067    2777.7092    1460.5901    2688.0521   -489.74299    17.808582    20.976156    21.726428           90           90           90 
   89000    265.13775   -125.88132   -96.304805   -125.88132            0    1049.4495    17.791123    20.955592    21.705128            0            0            0    8092.1816    2303.1789    311.43352    533.73609     1002.465    36.059963   -1376.0421    17.791123    20.955592    21.705128           90           90           90 
   89500    261.60936   -125.69183   -96.508915   -125.69183            0   -1424.7312    17.715209    20.866175    21.612513            0            0            0    7989.0361     -2269.99   -1277.2059   -726.99777   -43.388309    1094.4249   -29.969807    17.715209    20.866175    21.612513           90           90           90 
   90000    255.22246   -125.43005   -96.959599   -125.43005            0     2291.098    17.773453    20.934779     21.68357            0            0            0    8068.0943    712.44966    5179.3907    981.45366    1660.1909    328.51078    3413.8531    17.773453    20.934779     21.68357           90           90           90 
   90500    274.57395    -124.7578   -94.128663    -124.7578            0   -426.64885    17.726594    20.879585    21.626403            0            0            0     8004.449    2115.8687   -4315.2954     919.4801     830.4245    2304.7597   -629.02087    17.726594    20.879585    21.626403           90           90           90 
   91000     266.6228   -123.83835   -94.096179   -123.83835            0   -3983.4431    17.755941    20.914153    21.662207            0            0            0    8044.2707   -3336.4829   -1790.9061   -6822.9404    1615.6936    143.60534    2143.1303    17.755941    20.914153    21.662207           90           90           90 
   91500    260.41972   -126.56061   -97.510398   -126.56061            0    3975.3975    17.722425    20.874675    21.621317            0            0            0     7998.803    4386.6862    4113.5857    3425.9206   -1175.9851    588.60433    -1451.638    17.722425    20.874675    21.621317           90           90           90 
   92000    261.08587    -124.4392   -95.314679    -124.4392            0    64.753474    17.809932    20.977746    21.728075            0            0            0    8117.8745    472.46247    187.27329   -465.47534    387.60458   -1699.0245   -271.55346    17.809932    20.977746    21.728075           90           90           90 
   92500    265.94333   -124.57475   -94.908374   -124.57475            0    375.86676    17.781923    20.944755    21.693904            0            0            0    8079.6347   -3428.5455    1840.6303    2715.5155   -1672.1958    1192.0537     2118.381    17.781923    20.944755    21.693904           90           90           90 
   93000    270.82926   -124.77526   -94.563852   -124.77526            0    462.63124    17.865645    21.043369    21.796045            0            0            0    8194.2968   -300.39728    891.62292    796.66809   -331.24638   -597.57846   -546.47738    17.865645    21.043369    21.796045           90           90           90 
   93500    262.56237   -124.00693   -94.717706   -124.00693            0   -1184.8369    17.874362    21.053636    21.806679            0            0            0    8206.2964    27.277656   -2013.3332   -1568.4551    979.60372    742.60861    418.29173    17.874362    21.053636    21.806679           90           90           90 
   94000    276.70197   -126.27693    -95.41041   -126.27693            0    1986.7198    17.764123    20.923789    21.672188            0            0            0    8055.3956    3324.1038    1022.6029    1613.4527   -3593.2498    2852.2531   -1504.2949    17.764123    20.923789    21.672188           90           90           90 
   94500    267.50143   -126.02091   -96.180719   -126.02091            0    2555.5012    17.848829    21.023562    21.775529            0            0            0    8171.1794    611.34317    2137.3842    4917.7764    593.71201    518.40072    2312.4745    17.848829    21.023562    21.775529           90           90           90 
   95000    260.27403   -126.77461   -97.740654   -126.77461            0    3712.0286    17.841798     21.01528    21.766951            0            0            0    8161.5263    4707.7861    2047.7187    4380.5812   -2377.6388    1455.6498   -1567.5053    17.841798     21.01528    21.766951           90           90           90 
   95500    261.69873   -124.55876   -95.365872   -124.55876            0   -1885.7055     17.81788    20.987109    21.737772            0            0            0    8128.7483   -3607.8541   -106.42349    -1942.839     421.8585    813.79086   -2238.0491     17.81788    20.987109    21.737772           90           90           90 
   96000    270.61695   -123.59379   -93.406063   -123.59379            0    2074.8502    17.809247     20.97694     21.72724            0            0            0    8116.9385    1646.4061    3059.9781    1518.1663    3033.0758    1476.8268    289.24539    17.809247     20.97694     21.72724           90           90           90 
   96500    275.59036   -124.52322   -93.780698   -124.52322            0    401.87105    17.817155    20.986254    21.736887            0            0            0    8127.7557   -2447.0974    3558.7652    93.945336    1102.0161   -653.78901    1190.5089    17.817155    20.986254    21.736887           90           90           90 
   97000    268.32924   -124.32565   -94.393121   -124.32565            0   -306.27003    17.799238    20.965151    21.715029            0            0            0    8103.2607    1522.3142    1605.8924   -4047.0166     -992.166    2732.1426    447.56912    17.799238    20.965151    21.715029           90           90           90 
   97500    273.22389   -125.20052   -94.721982   -125.20052            0     2647.196    17.791397    20.955914    21.705462            0            0            0    8092.5555     2395.782    931.98299    4613.8229   -2920.4533   -1629.3834    743.24277    17.791397    20.955914    21.705462           90           90           90 
   98000    261.20754   -124.74613    -95.60804   -124.74613            0    871.24127    17.842109    21.015647    21.767331            0            0            0    8161.9536   -425.39256    2487.6525     551.4639   -1953.3047    838.79568    40.029064    17.842109    21.015647    21.767331           90           90           90 
   98500    274.51603   -125.05251   -94.429836   -125.05251            0    1035.7464    17.809415    20.977137    21.727444            0            0            0    8117.1676    1171.2217    236.89105    1699.1265    157.46913     1074.103    1286.0765    17.809415    20.977137    21.727444           90           90           90 
   99000    257.92592    -123.5769   -94.804879    -123.5769            0    169.72658    17.838932    21.011905    21.763455            0            0            0    8157.5948   -498.59617   -1490.4233    2498.1992   -383.96882    1717.2463    1372.8364    17.838932    21.011905    21.763455           90           90           90 
   99500    276.24556   -123.04541   -92.229804   -123.04541            0    703.41268    17.743246    20.899199    21.646718            0            0            0    8027.0281     1484.702    1078.0345   -452.49852    395.79707   -141.87478   -1627.9263    17.743246    20.899199    21.646718           90           90           90 
  100000    277.67699   -126.06997   -95.094682   -126.06997            0    1385.4937    17.727235    20.880341    21.627185            0            0            0    8005.3182   -1520.6796     2976.864    2700.2966   -341.90571     -877.891    302.89067    17.727235    20.880341    21.627185           90           90           90 
  100500    271.61521   -124.66008   -94.360998   -124.66008            0   -791.01385    17.908728    21.094116    21.848606            0            0            0    8253.7216   -1692.2792   -3281.7511    2600.9887    -108.1431    260.64844     1665.995    17.908728    21.094116    21.848606           90           90           90 
  101000    282.68699   -127.29197   -95.757807   -127.29197            0    1551.8344    17.869412    21.047806     21.80064            0            0            0    8199.4803    3517.6632    357.66147    780.17839   -579.49938    318.37119    706.67715    17.869412    21.047806     21.80064           90           90           90 
  101500    261.88307    -125.0548   -95.841353    -125.0548            0   -390.99591    17.779373    20.941752    21.690793            0            0            0    8076.1593   -425.06677    265.59803    -1013.519    197.16658   -277.71077    1498.8254    17.779373    20.941752    21.690793           90           90           90 
  102000    268.15472   -125.54372   -95.630661   -125.54372            0    2322.0727    17.789713    20.953931    21.703408            0            0            0    8090.2586     3233.497    1020.4353     2712.286   -179.16255    1723.1684    1655.0315    17.789713    20.953931    21.703408           90           90           90 
  102500     261.4973   -125.25167   -96.081249   -125.25167            0    3553.7846    17.741613    20.897275    21.644725            0            0            0    8024.8115    830.94282    4113.2496    5717.1614    2122.8319   -364.52204    1012.9434    17.741613    20.897275    21.644725           90           90           90 
  103000    268.82449   -124.66693   -94.679152   -124.66693            0    174.70416    17.782995    20.946018    21.695212            0            0            0    8081.0963    2942.0127   -2049.0889   -368.81135   -784.03574    4458.7894    3213.9861    17.782995    20.946018    21.695212           90           90           90 
  103500    265.62676   -126.24515   -96.614088   -126.24515            0     1058.628    17.832951     21.00486    21.756158            0            0            0    8149.3918     1132.219    1586.2792     457.3858    54.553454    506.20114    207.89654    17.832951     21.00486    21.756158           90           90           90 
  104000    262.21479   -123.72229   -94.471835   -123.72229            0    3879.9083    17.736676     20.89146    21.638703            0            0            0    8018.1144    2664.9624    5688.0956     3286.667    914.25989   -3264.3097    1366.5717    17.736676     20.89146    21.638703           90           90           90 
  104500    255.77737   -124.05948   -95.527131   -124.05948            0   -3210.3052     17.76347    20.923021    21.671392            0            0            0    8054.5076   -3113.8518   -5724.9431   -792.12068   -696.55799   -215.42847    996.29103     17.76347    20.923021    21.671392           90           90           90 
  105000    275.88169   -124.20646   -93.431442   -124.20646            0    3027.4326    17.829114     21.00034    21.751477            0            0            0    8144.1328    3166.5678    657.28041    5258.4496    854.08715   -151.15972    1406.7566    17.829114     21.00034    21.751477           90           90           90 
  105500    278.29356   -124.35458   -93.310514   -124.35458            0     1739.524    17.865213     21.04286    21.795517            0            0            0    8193.7014   -981.10441    3033.8582    3165.8183    777.48834   -808.90422   -1062.9436    17.865213     21.04286    21.795517           90           90           90 
  106000    270.92479   -125.09327   -94.871201   -125.09327            0    2379.3652    17.878602    21.058631    21.811852            0            0            0    8212.1377    2587.7345   -1024.8348    5575.1959    219.22368   -2760.8353   -473.82009    17.878602    21.058631    21.811852           90           90           90 
  106500    270.61507   -125.46049    -95.27297   -125.46049            0    1659.9325    17.910795     21.09655    21.851127            0            0            0     8256.579    1437.9945    1288.8184    2252.9846   -1560.8959   -3118.3737    2796.8551    17.910795     21.09655    21.851127           90           90           90 
  107000    256.11129   -123.74136   -95.171764   -123.74136            0    1060.0242    17.829973    21.001352    21.752525            0            0            0    8145.3097    1288.0933    2007.5133   -115.53388    1796.3954     -2028.47    1712.5169    17.829973    21.001352    21.752525           90           90           90 
  107500    276.66059   -125.57453   -94.712627   -125.57453            0      2076.65    17.785702    20.949207    21.698515            0            0            0    8084.7875    4122.1353   -690.00806    2797.8227    742.65443   -1448.9393   -3580.3194    17.785702    20.949207    21.698515           90           90           90 
  108000    272.13734   -124.59053     -94.2332   -124.59053            0   -6314.9296    17.911108    21.096919     21.85151            0            0            0    8257.0124   -5918.0211   -8119.8952   -4906.8724   -472.43523   -1388.5968     798.0147    17.911108    21.096919     21.85151           90           90           90 
  108500    280.97376    -124.9991   -93.656055    -124.9991            0   -2087.0411    17.895405    21.078423    21.832352            0            0            0    8235.3141   -3865.1618   -767.44898   -1628.5124    1930.3459    534.63764    1.0797718    17.895405    21.078423    21.832352           90           90           90 
  109000    264.16744     -125.065   -95.596726     -125.065            0   -492.19678    17.895198    21.078178    21.832099            0            0            0    8235.0275   -2447.6438    923.61686    47.436571    817.99081   -1159.4841    395.17305    17.895198    21.078178    21.832099           90           90           90 
  109500    276.71158   -125.14427   -94.276678   -125.14427            0    1471.4416    17.854779    21.030571    21.782789            0            0            0    8179.3544   -2171.1594    3742.5389    2842.9452   -1262.3663   -1134.2533    401.38025    17.854779    21.030571    21.782789           90           90           90 
  110000    264.26668   -124.75598   -95.276637   -124.75598            0      2913.39    17.821927    20.991875    21.742709            0            0            0    8134.2881    4063.9524    1630.5671    3045.6504    657.25094    1450.0327   -1263.6538    17.821927    20.991875    21.742709           90           90           90 
  110500    264.98077    -126.0715     -96.5125    -126.0715            0   -156.67485    17.859104    21.035665    21.788065            0            0            0    8185.2995   -1313.7817    1052.3633    -208.6061    386.03061   -846.77014   -1295.6575    17.859104    21.035665    21.788065           90           90           90 
  111000    268.66506   -125.92596   -95.955972   -125.92596            0    988.05496    17.887143     21.06869    21.822272            0            0            0    8223.9123   -1003.3068   -493.72322    4461.1949   -23.357064    744.57535    60.012748    17.887143     21.06869    21.822272           90           90           90 
  111500    267.29565   -125.26382   -95.446587   -125.26382            0   -3048.2098    17.861115    21.038034    21.790518            0            0            0    8188.0651   -5486.3431   -2212.4741   -1445.8123   -1124.6365   -1845.2904   -580.00654    17.861115    21.038034    21.790518           90           90           90 
[...]
 1973500    283.72791   -124.36804   -92.717762   -124.36804            0   -164.85734    17.910789    21.096543    21.851121            0            0            0    8256.5715    424.14464   -2038.7981    1120.0814   -1165.5776   -2100.6815    -2613.298    17.910789    21.096543    21.851121           90           90           90 
 1974000    279.92938   -124.75252   -93.525975   -124.75252            0    2742.0186    17.813276    20.981685    21.732154            0            0            0     8122.448    767.04913    3086.1363    4372.8704    656.32454    2885.8515   -1490.1215    17.813276    20.981685    21.732154           90           90           90 
 1974500    272.23725   -124.71985   -94.351375   -124.71985            0   -1385.1154    17.814544    20.983178    21.733701            0            0            0    8124.1822    -379.6638   -1897.6278   -1878.0545    539.66683   -341.45299    123.83235    17.814544    20.983178    21.733701           90           90           90 
 1975000    265.14946   -124.60645   -95.028631   -124.60645            0    490.58306    17.836861    21.009466    21.760929            0            0            0     8154.754   -105.35487    3720.7593   -2143.6553    140.23416    915.07959   -1409.0282    17.836861    21.009466    21.760929           90           90           90 
 1975500    264.94146   -124.47995   -94.925334   -124.47995            0    1616.6703    17.871396    21.050143    21.803061            0            0            0    8202.2118    1958.4502     1902.677    988.88379   -2667.4511    2744.4622   -1706.4742    17.871396    21.050143    21.803061           90           90           90 
 1976000    254.07272   -122.82129   -94.479096   -122.82129            0    964.74928     17.84468    21.018676    21.770468            0            0            0    8165.4831    2610.3411   -328.80487    612.71165    311.03746    109.70004   -18.914707     17.84468    21.018676    21.770468           90           90           90 
 1976500    268.69361   -124.28181   -94.308637   -124.28181            0     1471.505    17.789976    20.954241    21.703729            0            0            0    8090.6171    2359.2221    1154.5771    900.71574   -826.53473     583.1401   -2089.9964    17.789976    20.954241    21.703729           90           90           90 
 1977000    271.59627   -124.94366   -94.646689   -124.94366            0    -54.80371    17.804935    20.971861    21.721979            0            0            0    8111.0435    303.45031   -486.88296    19.021517    1333.4906   -1436.0044    -1386.654    17.804935    20.971861    21.721979           90           90           90 
 1977500    279.57641   -125.46972   -94.282547   -125.46972            0   -349.40662    17.785588    20.949072    21.698375            0            0            0    8084.6318   -136.91782    638.36889   -1549.6709   -14.066605    505.10488    610.47967    17.785588    20.949072    21.698375           90           90           90 
 1978000     263.2997   -122.33845   -92.966977   -122.33845            0    40.154651    17.754245    20.912154    21.660137            0            0            0     8041.965    4411.2774    -2148.906   -2141.9075   -1936.0014   -536.59198     432.8869    17.754245    20.912154    21.660137           90           90           90 
 1978500    275.63395   -124.18783   -93.440448   -124.18783            0    2683.3967    17.738182    20.893234     21.64054            0            0            0    8020.1566     4506.452    3149.6919    394.04618     134.9899    1094.7797   -961.77379    17.738182    20.893234     21.64054           90           90           90 
 1979000    277.17911   -125.50181   -94.582065   -125.50181            0    4722.1557    17.683818    20.829201    21.574217            0            0            0    7946.6429    6840.4844    3004.1543    4321.8283   -550.69223    232.76657   -99.455832    17.683818    20.829201    21.574217           90           90           90 
 1979500    282.89983   -124.15787   -92.599967   -124.15787            0    1992.3412    17.715145      20.8661    21.612436            0            0            0    7988.9504    2914.0593    1826.7928    1236.1714   -1531.7815   -1863.9349   -105.89473    17.715145      20.8661    21.612436           90           90           90 
 1980000    276.87837   -123.60782   -92.721621   -123.60782            0    1013.4076    17.782841    20.945837    21.695024            0            0            0    8080.8866    1763.9347   -1005.1766    2281.4647   -1008.4712    999.77287   -215.46155    17.782841    20.945837    21.695024           90           90           90 
 1980500    268.72082   -122.41466   -92.438448   -122.41466            0   -1546.9671    17.849645    21.024523    21.776525            0            0            0       8172.3   -2416.2411   -747.69398   -1476.9661   -318.11293   -1358.2924    -1117.113    17.849645    21.024523    21.776525           90           90           90 
 1981000     278.9389   -122.53857   -91.422515   -122.53857            0    2770.9278    17.732357    20.886374    21.633434            0            0            0    8012.2588     6961.262    1256.5764    94.945021     2097.325   -1923.9917   -17.220428    17.732357    20.886374    21.633434           90           90           90 
 1981500    271.89472   -123.55853   -93.228265   -123.55853            0    189.25264    17.726415    20.879374    21.626184            0            0            0    8004.2063    168.90166   -800.18052    1199.0368   -612.81324   -443.82831    230.61958    17.726415    20.879374    21.626184           90           90           90 
 1982000    283.32857   -123.13762   -91.531892   -123.13762            0    2185.7292    17.746569    20.903114    21.650773            0            0            0    8031.5395    2550.3757    1316.9979     2689.814    2646.9899   -476.73583   -993.34988    17.746569    20.903114    21.650773           90           90           90 
 1982500    272.17706   -124.53741   -94.175644   -124.53741            0    809.81411    17.703346    20.852202     21.59804            0            0            0    7972.9977    1512.5853     499.4205    417.43651    655.47902   -1246.6667    818.88259    17.703346    20.852202     21.59804           90           90           90 
 1983000    261.80921   -122.29035    -93.08514   -122.29035            0   -1549.7031    17.744396    20.900553    21.648121            0            0            0    8028.5883   -526.07632   -2010.5672   -2112.4659    401.81952    -1380.294   -656.08294    17.744396    20.900553    21.648121           90           90           90 
 1983500    270.09095   -123.66408   -93.535026   -123.66408            0    1501.8372    17.772465    20.933615    21.682365            0            0            0     8066.749     380.2053    1596.1266    2529.1798    735.91832   -882.19748   -1263.0276    17.772465    20.933615    21.682365           90           90           90 
 1984000    270.95352   -123.54372   -93.318448   -123.54372            0    2837.9012    17.718879    20.870498     21.61699            0            0            0    7994.0021    5028.7766    1296.0163    2188.9106    1360.0872   -717.21277    830.05933    17.718879    20.870498     21.61699           90           90           90 
 1984500    289.20058   -123.60107   -91.340308   -123.60107            0     1101.691    17.646812    20.785612    21.529069            0            0            0     7896.858    1582.7103   -1592.0686    3314.4314     494.1823   -1573.3016    75.510438    17.646812    20.785612    21.529069           90           90           90 
 1985000    271.85021   -121.66436   -91.339061   -121.66436            0    1336.8046    17.799801    20.965814    21.715716            0            0            0    8104.0297    1526.6487    1464.9389    1018.8263   -3485.2035   -843.31884    679.37862    17.799801    20.965814    21.715716           90           90           90 
 1985500    269.70694   -122.42855   -92.342335   -122.42855            0    1832.9579    17.811542    20.979642    21.730039            0            0            0    8120.0759   -907.27897     2338.299    4067.8538    752.30422   -634.99478    122.44719    17.811542    20.979642    21.730039           90           90           90 
 1986000    270.32897   -124.15797   -94.002366   -124.15797            0     2327.869    17.760319    20.919308    21.667547            0            0            0    8050.2212    2073.1354    2397.6838    2512.7879    1659.4292    1086.4053   -1048.4406    17.760319    20.919308    21.667547           90           90           90 
 1986500    275.35993   -124.15948   -93.442661   -124.15948            0    479.70301    17.747526    20.904241     21.65194            0            0            0    8032.8386   -489.08272     1397.289    530.90281    680.34018    2365.8855     296.7792    17.747526    20.904241     21.65194           90           90           90 
 1987000    267.45623   -123.54757   -93.712425   -123.54757            0    3244.4301    17.765703    20.925651    21.674116            0            0            0    8057.5456    959.48383    4890.8749    3882.9317   -1875.7484   -824.84279    423.17123    17.765703    20.925651    21.674116           90           90           90 
 1987500    265.58107   -124.79214   -95.166167   -124.79214            0    500.70578    17.717229    20.868555    21.614978            0            0            0      7991.77   -1321.8671    2019.8701    804.11432    3167.8973    1615.6644   -1271.7184    17.717229    20.868555    21.614978           90           90           90 
 1988000    296.99698   -123.71679    -90.58633   -123.71679            0   -1933.2482    17.797814    20.963473     21.71329            0            0            0     8101.315   -4389.9736   -2385.5682     975.7972    38.708867    327.48113    136.25791    17.797814    20.963473     21.71329           90           90           90 
 1988500    287.09048   -123.22433   -91.198957   -123.22433            0    1503.9853     17.74633    20.902831     21.65048            0            0            0    8031.2139    832.88114    2762.5922    916.48255   -1529.8186    2441.5623    3806.2243     17.74633    20.902831     21.65048           90           90           90 
 1989000    263.05737   -123.45268   -94.108237   -123.45268            0    1759.9268    17.730114    20.883731    21.630697            0            0            0    8009.2186    231.07086   -1358.3586    6407.0682    328.24091    228.43152   -927.15568    17.730114    20.883731    21.630697           90           90           90 
 1989500    263.11811   -124.28587   -94.934651   -124.28587            0    1536.3659    17.871928     21.05077     21.80371            0            0            0    8202.9449   -839.86635     3117.634    2331.3302   -991.46981   -1793.5837    907.74361    17.871928     21.05077     21.80371           90           90           90 
 1990000    272.81535   -125.44226   -95.009292   -125.44226            0    2498.9541    17.814975    20.983687    21.734228            0            0            0    8124.7729    3327.7245    250.38485    3918.7528   -1169.8962    1060.0793    2620.9609    17.814975    20.983687    21.734228           90           90           90 
 1990500    263.12884   -125.54123   -96.188816   -125.54123            0    207.59101    17.781335    20.944063    21.693187            0            0            0    8078.8333   -3583.1307    2299.7558    1906.1479   -381.17883   -1621.5591    969.97205    17.781335    20.944063    21.693187           90           90           90 
 1991000    242.65475   -126.12545   -99.056946   -126.12545            0   -12.341722    17.877257    21.057046    21.810211            0            0            0    8210.2842    642.98714    718.06516   -1398.0775    2915.3649    289.05259   -456.41402    17.877257    21.057046    21.810211           90           90           90 
 1991500    271.98178   -125.53132    -95.19134   -125.53132            0    416.08126    17.851862    21.027134    21.779229            0            0            0    8175.3453   -888.08603    -114.1095    2250.4393    1491.9159    1182.6078    2068.8631    17.851862    21.027134    21.779229           90           90           90 
 1992000     265.6236   -126.13674   -96.506031   -126.13674            0    6537.0976    17.895937    21.079049       21.833            0            0            0    8236.0479    8256.7449     5508.854     5845.694    259.39367   -554.71319   -351.35237    17.895937    21.079049       21.833           90           90           90 
 1992500     266.9065   -125.20837   -95.434546   -125.20837            0   -2843.7607    17.945375    21.137281    21.893316            0            0            0    8304.4945   -3161.5186   -2718.7561   -2651.0075   -641.35671   -1139.8945    38.610295    17.945375    21.137281    21.893316           90           90           90 
 1993000    271.44227    -125.3692   -95.089403    -125.3692            0    1528.6957     17.84865    21.023351    21.775311            0            0            0    8170.9338   -943.83065    1664.6184    3865.2994    1462.6579   -770.48065    960.06341     17.84865    21.023351    21.775311           90           90           90 
 1993500    269.60339   -125.42026   -95.345599   -125.42026            0    1339.0694    17.859408    21.036023    21.788436            0            0            0    8185.7174   -1550.9446    3201.1047     2367.048   -410.14377   -1311.5056    2026.7209    17.859408    21.036023    21.788436           90           90           90 
 1994000    274.45751   -125.68882   -95.072672   -125.68882            0    325.27223     17.86953    21.047945    21.800784            0            0            0    8199.6428   -2193.4115    1798.0737    1371.1545   -387.90799    478.39931   -1445.9694     17.86953    21.047945    21.800784           90           90           90 
 1994500    255.14605   -124.06241   -95.600485   -124.06241            0    2341.8606    18.002331    21.204367    21.962801            0            0            0    8383.8165    1214.1145    3505.7757    2305.6915   -2594.7577   -700.30672    -794.4708    18.002331    21.204367    21.962801           90           90           90 
 1995000    270.30568   -125.86194   -95.708939   -125.86194            0   -932.26257    17.818737    20.988118    21.738817            0            0            0    8129.9208   -3750.9256   -1546.9767    2501.1145   -157.04889    1250.7419    2120.6538    17.818737    20.988118    21.738817           90           90           90 
 1995500    262.90259   -126.22857    -96.90139   -126.22857            0    554.40938    17.725163      20.8779    21.624657            0            0            0    8002.5106   -522.48993    2008.7399    176.97821    2400.0347   -2072.9364   -1238.5556    17.725163      20.8779    21.624657           90           90           90 
 1996000    266.77783   -125.19917   -95.439702   -125.19917            0    3287.0311    17.839378    21.012429    21.763998            0            0            0    8158.2057    4886.4098    1450.4025     3524.281   -1672.5057   -135.31719   -1938.9832    17.839378    21.012429    21.763998           90           90           90 
 1996500    269.40948    -125.0741   -95.021067    -125.0741            0   -3528.3952    17.994234    21.194829    21.952922            0            0            0     8372.509   -6146.5193   -2735.4308   -1703.2356    1080.3599   -2604.3227    979.40259    17.994234    21.194829    21.952922           90           90           90 
 1997000    263.42718    -124.3603   -94.974602    -124.3603            0     3204.486     17.99005    21.189902    21.947818            0            0            0    8366.6705    4743.0595    4012.4982    857.90022   -2819.0458     951.3109    3672.7711     17.99005    21.189902    21.947818           90           90           90 
 1997500    267.47258   -125.10812   -95.271152   -125.10812            0   -2860.2049    17.918416    21.105527    21.860425            0            0            0    8267.1235   -2079.2456   -4909.7036   -1591.6656   -107.77175   -1732.9042    513.39624    17.918416    21.105527    21.860425           90           90           90 
 1998000    258.31539   -125.97736   -97.161887   -125.97736            0     3515.998    17.924592    21.112801     21.86796            0            0            0    8275.6744    2535.1168    3551.3375    4461.5398    1151.0862    -2459.779   -1365.8703    17.924592    21.112801     21.86796           90           90           90 
 1998500    261.61939    -125.6405   -96.456461    -125.6405            0    1962.1311    17.946422    21.138514    21.894593            0            0            0    8305.9479    2925.8623    3345.2667   -384.73559   -699.85753   -2325.3911    434.96831    17.946422    21.138514    21.894593           90           90           90 
 1999000    259.67112   -125.82572   -96.859011   -125.82572            0    3421.4494    18.024386    21.230345    21.989709            0            0            0    8414.6688    5310.7328     3104.875    1848.7403    488.35659   -128.51888    566.47682    18.024386    21.230345    21.989709           90           90           90 
 1999500    265.21676    -124.8339   -95.248568    -124.8339            0   -2814.9223    18.047684    21.257787    22.018132            0            0            0    8447.3406   -100.78352   -5426.5351   -2917.4482   -639.29699   -697.38937    37.013499    18.047684    21.257787    22.018132           90           90           90 
 2000000    274.83803   -125.21117   -94.552578   -125.21117            0    2605.1304     17.92401    21.112115     21.86725            0            0            0    8274.8681    3882.4582   -753.86796     4686.801    -741.9165    375.07861    858.91986     17.92401    21.112115     21.86725           90           90           90 
Loop time of 10977.3 on 1 procs for 2000000 steps with 864 atoms

Performance: 7.871 ns/day, 3.049 hours/ns, 182.193 timesteps/s
73.7% CPU use with 1 MPI tasks x 1 OpenMP threads

MPI task timing breakdown:
Section |  min time  |  avg time  |  max time  |%varavg| %total
---------------------------------------------------------------
Pair    | 9538.3     | 9538.3     | 9538.3     |   0.0 | 86.89
Bond    | 0.3069     | 0.3069     | 0.3069     |   0.0 |  0.00
Neigh   | 1303.8     | 1303.8     | 1303.8     |   0.0 | 11.88
Comm    | 44.866     | 44.866     | 44.866     |   0.0 |  0.41
Output  | 18.273     | 18.273     | 18.273     |   0.0 |  0.17
Modify  | 63.094     | 63.094     | 63.094     |   0.0 |  0.57
Other   |            | 8.663      |            |       |  0.08

Nlocal:        864.000 ave         864 max         864 min
Histogram: 1 0 0 0 0 0 0 0 0 0
Nghost:        4090.00 ave        4090 max        4090 min
Histogram: 1 0 0 0 0 0 0 0 0 0
Neighs:         0.00000 ave           0 max           0 min
Histogram: 1 0 0 0 0 0 0 0 0 0
FullNghs:      192688.0 ave      192688 max      192688 min
Histogram: 1 0 0 0 0 0 0 0 0 0

Total # of neighbors = 192688
Ave neighs/atom = 223.01852
Ave special neighs/atom = 0.0000000
Neighbor list builds = 200000
Dangerous builds not checked

unfix		3
unfix		2

write_data	data.final.${pid}
write_data	data.final.0
System init for write_data ...

write_restart   restart.lmp.${pid}
write_restart   restart.lmp.0
System init for write_restart ...
Unloading pair style deepmd
Unloading compute style deepmd
Unloading fix style deepmd
Total wall time: 3:03:17
