LAMMPS data file via write_data, version 29 Sep 2021, timestep = 400000

1920 atoms
2 atom types

-0.044440753855509385 24.76884575385628 xlo xhi
-0.03845735172053644 24.762862351720564 ylo yhi
-0.017454485911734707 22.809826485912424 zlo zhi

Masses

1 1.008
2 15.999

Atoms # full

4 0 1 0 2.70188161583294 1.2868277566517259 2.210988826806331 0 0 0
5 0 2 0 3.1247375247795968 1.2956879784937947 3.0927652392531995 0 0 0
6 0 2 0 3.1753045470761023 1.9284386317272681 1.7238937356758455 0 0 0
17 0 2 0 0.8740982537326727 1.4043301028224018 2.122160544850098 0 0 0
11 0 2 0 2.732645344343731 3.7395805718571284 3.955068767349261 0 0 0
387 0 2 0 3.7906239048079 0.06191571935985318 1.233380388543969 0 1 0
1455 0 2 0 1.3208711443935088 3.305977792378087 0.28314711940411247 0 0 1
1 0 1 0 4.68726443153561 1.3892661784989082 4.013642176307596 0 0 0
2 0 2 0 5.374124779702133 1.3194790870437545 3.325008132538508 0 0 0
19 0 1 0 4.370783000532954 3.069272359540369 0.8815390476410576 0 0 0
46 0 1 0 6.317679507994346 1.5758628785615523 1.9789493152336277 0 0 0
47 0 2 0 7.276153178456607 1.7399259210946505 1.9483253947795751 0 0 0
48 0 2 0 5.917267326531212 2.3280636706372735 1.481253310819091 0 0 0
386 0 2 0 5.255272978792863 0.19226043717387897 1.0746846839378212 0 1 0
54 0 2 0 7.411039075554993 3.957419276942119 0.5407754894686747 0 0 0
21 0 2 0 4.378090084223539 3.989860897996917 0.793918634531581 0 0 0
20 0 2 0 4.1023986987358665 2.72127424268802 0.029785432561185085 0 0 0
32 0 2 0 11.253148988971816 1.6196226201746637 3.959769034389679 0 0 0
34 0 1 0 8.913532628594018 1.5574491110148991 1.9919202135571759 0 0 0
35 0 2 0 9.340741603043442 1.5916499934263038 2.846009800568257 0 0 0
36 0 2 0 9.34028801998078 2.297261614458454 1.567380498831906 0 0 0
49 0 1 0 10.746821531118824 3.31461588727755 0.8285676398695974 0 0 0
51 0 2 0 11.465636716949088 3.110730268643425 1.482587126999459 0 0 0
31 0 1 0 10.351485004841567 1.6325398006132885 4.379550370914999 0 0 0
78 0 2 0 12.054019475626667 0.7792314817115982 1.856314092378052 0 0 0
416 0 2 0 10.07894330570403 0.09185370414195612 1.438965769045446 0 1 0
76 0 1 0 12.26270299649829 1.6482374247906526 2.2400793637706906 0 0 0
417 0 2 0 10.709475306595989 0.06107253721128672 0.10995257063574138 0 1 0
64 0 1 0 15.12843490400041 1.4257028065344601 1.8321115098107534 0 0 0
65 0 2 0 15.248821814272931 1.0827070416718747 2.734435027521725 0 0 0
66 0 2 0 15.57466250419876 0.7428158836956731 1.3140659768392962 0 0 0
77 0 2 0 13.247982025323605 1.7766219417488898 2.2063164680608436 0 0 0
75 0 2 0 14.506900985865299 2.9822686480990077 4.3824049754821175 0 0 0
1514 0 2 0 14.034090151519402 3.4825588782134855 0.08935794855319125 0 0 1
80 0 2 0 16.462371261321678 2.92788656943871 1.236145423528799 0 0 0
38 0 2 0 12.36909414925278 3.555255982863513 3.910938538492001 0 0 0
61 0 1 0 16.563404600318997 1.433757412359228 4.168277355874566 0 0 0
62 0 2 0 17.201433619726707 1.6098713135855478 3.436011080983047 0 0 0
79 0 1 0 17.270042198295386 3.3012800774633484 0.8169666308426206 0 0 0
106 0 1 0 18.46525379209637 1.3836689005324037 2.1529256693708114 0 0 0
107 0 2 0 19.414305924199326 1.206074081498302 2.0795614365824964 0 0 0
108 0 2 0 18.341633624618375 2.2360527307995706 1.7080020451062783 0 0 0
68 0 2 0 18.85689065398963 3.9612434507978573 4.101385249701222 0 0 0
99 0 2 0 24.64968544781793 3.728144691690766 4.132125285118504 0 0 0
16 0 1 0 24.704563451592016 1.3308707536378779 2.0306629200744375 -1 0 0
18 0 2 0 24.47002058231947 0.5398219742811171 1.4848367610382225 -1 0 0
92 0 2 0 23.6766535358123 1.512030676428867 3.4506650674403905 0 0 0
94 0 1 0 21.317993686390565 1.6778200247192183 1.937421663607382 0 0 0
95 0 2 0 21.84476195298818 1.4434558015481322 2.7212767882957314 0 0 0
96 0 2 0 21.72806590660626 2.459487854143494 1.6345183723118732 0 0 0
109 0 1 0 23.123777046658184 3.2385277637461116 0.7033863741150823 0 0 0
110 0 2 0 23.746692394735312 2.8583802665565265 1.3329189057339144 0 0 0
91 0 1 0 22.985175787127837 1.472017564697595 4.173724623842142 0 0 0
120 0 2 0 20.887572510364926 0.06909333142798382 4.425322389518871 0 0 0
24 0 2 0 1.8454024261406106 4.27106569065567 2.05707767187494 0 0 0
10 0 1 0 3.0905701921920903 4.531665466028692 3.5344596314971706 0 0 0
22 0 1 0 1.0887342785902283 4.433051440955525 1.4813375783005425 0 0 0
23 0 2 0 1.3176831616037392 5.235720781515279 0.8751321255360308 0 0 0
124 0 1 0 2.895017312271757 7.734881753450714 2.0562341190680913 0 0 0
126 0 2 0 1.9609727749403691 7.667423656816698 1.934701998399622 0 0 0
122 0 2 0 3.8222455821100803 7.6568851126267585 3.6115479871041787 0 0 0
27 0 2 0 3.7952560440223477 6.219742505057749 1.025722591657152 0 0 0
136 0 1 0 0.3302661640282163 7.722452530845888 2.0062093094701727 0 0 0
12 0 2 0 4.056766914993779 4.458729672609372 3.6049204430978197 0 0 0
137 0 2 0 0.004320097332282925 7.766462279614439 2.9182168817796676 0 0 0
150 0 2 0 0.8619838391799696 5.910690755213096 4.472417646933036 0 0 0
121 0 1 0 4.585752471292639 7.601598405709509 4.262583112495624 0 0 0
7 0 1 0 5.9483767689429445 4.550724681626554 3.4838365999706786 0 0 0
8 0 2 0 5.963539855638603 4.610126884287225 2.5489511526022115 0 0 0
25 0 1 0 4.58908196043245 5.822800982658473 0.6761354013324199 0 0 0
52 0 1 0 7.455185540640407 4.744952072720422 1.0769597575611618 0 0 0
166 0 1 0 6.481260256007141 8.113069775127103 2.069542491052246 0 0 0
168 0 2 0 5.9746515304558905 7.277393557758216 1.8695657764891567 0 0 0
9 0 2 0 6.3595918203017225 5.370316930596359 3.8420962878321268 0 0 0
156 0 2 0 8.211184921162129 8.184082769754639 2.2560777933462193 0 0 0
180 0 2 0 8.329599568538503 6.141096896336124 4.237054407420342 0 0 0
42 0 2 0 8.741051144467049 4.100063982828443 3.7788346637515864 0 0 0
50 0 2 0 10.638866269993388 4.299584483068276 0.861520364209352 0 0 0
40 0 1 0 9.275219285440494 4.727173600118029 3.2564227000649937 0 0 0
53 0 2 0 8.242971444319958 4.593476202308067 1.633127837610308 0 0 0
41 0 2 0 10.219488910937773 4.578703823749409 3.534722381702957 0 0 0
55 0 1 0 10.64518713059001 6.064942926752055 0.6318860562183634 0 0 0
56 0 2 0 9.890911046598928 6.382384805998467 1.1703240181442318 0 0 0
57 0 2 0 11.283858684026482 6.511903681076785 1.2323972833797487 0 0 0
152 0 2 0 10.031222412955755 7.855042131979942 3.690714394044806 0 0 0
153 0 2 0 11.536643921299738 7.839828602481349 4.045720769772553 0 0 0
154 0 1 0 9.112110690617005 7.865706016158467 2.1811824803210413 0 0 0
151 0 1 0 10.682620485413711 7.871277736746789 4.437795274558725 0 0 0
37 0 1 0 12.059960135081267 4.364124423855525 3.461671911006705 0 0 0
196 0 1 0 12.507368777302835 7.785162913787799 2.100787840924989 0 0 0
39 0 2 0 12.5609046490598 5.010130573472607 3.960412786101184 0 0 0
83 0 2 0 13.243017910248572 4.938601699278261 1.9421799705168872 0 0 0
72 0 2 0 15.170809216724315 4.405226583650743 2.5802914537120736 0 0 0
70 0 1 0 15.553854208804257 4.220400656388001 3.467174475170221 0 0 0
82 0 1 0 14.052233667556477 4.988556674363966 1.4168704367464688 0 0 0
84 0 2 0 13.825591044074768 5.524536618513642 0.6286809478502303 0 0 0
184 0 1 0 15.246919559445013 7.84435738247087 1.736905723655031 0 0 0
71 0 2 0 15.113174966968923 4.9436690756188435 3.93042775681745 0 0 0
198 0 2 0 13.428578628047529 7.707686862995465 1.9059911806964076 0 0 0
186 0 2 0 15.837055158649425 7.587693618424193 2.4555639827297777 0 0 0
86 0 2 0 16.50624873716213 6.3561799634510985 0.8455550474329999 0 0 0
112 0 1 0 20.201117793508644 4.683741500770642 1.5182886194244172 0 0 0
113 0 2 0 19.401255681177133 4.651114291773624 2.1654911656131546 0 0 0
67 0 1 0 18.369012376174382 4.551770551543322 3.4964386147457365 0 0 0
69 0 2 0 17.434417469899536 4.560390453867979 3.7593889137554926 0 0 0
85 0 1 0 17.403475730280455 5.96300699895237 0.7756595269971194 0 0 0
87 0 2 0 17.316237971538996 4.954604022700627 0.6006285535373543 0 0 0
226 0 1 0 18.655140462764706 7.982717424963898 2.136352234546285 0 0 0
228 0 2 0 18.308693010795842 7.2015141627870625 1.6529619961499187 0 0 0
183 0 2 0 17.476126162435918 7.656384708983798 3.568392160390582 0 0 0
216 0 2 0 20.45638325344904 8.151775746897739 1.9583088957848367 0 0 0
181 0 1 0 16.790546576348504 7.449680467834121 4.206690211334089 0 0 0
240 0 2 0 19.018993625295266 6.068447128748461 4.434444216830652 0 0 0
1679 0 2 0 20.00653777056796 5.961012357734191 0.18865248420396538 0 0 1
111 0 2 0 23.076395176396815 4.234175350031489 0.7518233511836935 0 0 0
98 0 2 0 24.570251789380933 4.45162412687618 2.840672757212524 0 0 0
114 0 2 0 20.97658647321731 4.575767456354403 2.145063801235443 0 0 0
138 0 2 0 24.6762675385146 7.0060907962866965 1.4795921724272951 -1 0 0
97 0 1 0 24.31148535666813 4.5521826654175825 3.784364449115954 0 0 0
102 0 2 0 22.52882795869006 4.871802958422702 3.9846239757924993 0 0 0
100 0 1 0 21.59687638298874 4.895200857659585 3.658613629663347 0 0 0
115 0 1 0 23.074090110121304 6.2234343987847955 0.8974484852846827 0 0 0
116 0 2 0 22.31113688754825 6.633638669026556 1.3772830918661931 0 0 0
213 0 2 0 22.428045582833178 7.844076829893074 3.5056216378071423 0 0 0
101 0 2 0 21.154827205136073 5.550697258482964 4.271633808636708 0 0 0
211 0 1 0 23.112387046722695 7.6329495254852615 4.117578772484014 0 0 0
117 0 2 0 23.07352537442538 6.614895908164727 0.021299388424256084 0 0 0
125 0 2 0 3.3165080569912377 8.446695870531569 1.5878601763805287 0 0 0
130 0 1 0 3.269108142427655 10.877563007952569 3.464027514049972 0 0 0
132 0 2 0 2.887062170910624 11.653586762430061 4.003923327209514 0 0 0
142 0 1 0 1.4287962902049074 10.836151661998828 1.4727926696607507 0 0 0
143 0 2 0 2.1801455614739744 10.812652814423494 2.0947820364680156 0 0 0
144 0 2 0 1.5990245019966902 10.082032243634872 0.9110842959405611 0 0 0
219 0 2 0 0.2590471033000257 10.752464481072714 3.088419425682082 1 0 0
218 0 2 0 -0.04375160960187685 9.862406322523226 4.249757909136255 1 0 0
135 0 2 0 2.1426423107691237 9.223616527357658 4.183555666854259 0 0 0
167 0 2 0 6.3251466329383845 8.30466735544276 2.968124590459524 0 0 0
131 0 2 0 4.215794326812276 10.95552245560275 3.543307940800482 0 0 0
141 0 2 0 4.437451304231856 10.48486734488665 0.4872003345671212 0 0 0
139 0 1 0 4.567437168705369 9.558759153101844 0.5089450176081406 0 0 0
127 0 1 0 6.094042769158247 11.32460582796805 3.505730448464416 0 0 0
129 0 2 0 6.380293101604068 11.540200562507787 2.637480418190739 0 0 0
140 0 2 0 5.274118185564657 9.395432238631992 1.1369106657778143 0 0 0
173 0 2 0 7.742999971137293 10.258803997705886 0.6961715108834791 0 0 0
172 0 1 0 7.749563479381537 11.020330732253129 1.2573266969906123 0 0 0
128 0 2 0 6.60490895903739 10.553993755612995 3.7775533787894764 0 0 0
145 0 1 0 4.697053071510657 12.285388739202524 0.6694693685254978 0 0 0
1740 0 2 0 7.874921057174882 12.223674837363799 0.06285953328196514 0 0 1
155 0 2 0 9.550894866163901 8.608824632817049 1.760390462486712 0 0 0
174 0 2 0 8.427066137927834 10.91813527886494 1.9703001163055969 0 0 0
160 0 1 0 9.367043805467931 10.842971922818759 3.7562479004252185 0 0 0
161 0 2 0 10.345128244680092 10.809834250828946 4.033685666224951 0 0 0
162 0 2 0 8.982252127005118 11.569238291795992 4.314990655950576 0 0 0
169 0 1 0 10.868464171472205 9.755434704904246 0.9533193162785276 0 0 0
171 0 2 0 10.875213206471381 10.680257247019572 0.7756365966710966 0 0 0
157 0 1 0 12.19069519225341 10.923111897058932 3.6272706301147646 0 0 0
197 0 2 0 12.123995784845741 8.674322281133707 1.8779494170178601 0 0 0
170 0 2 0 10.919589707263338 9.344126789047332 0.09341968502225775 0 0 0
185 0 2 0 15.608420589300126 8.629446771575278 1.3583364913041156 0 0 0
158 0 2 0 12.64023305259176 10.242410789917148 4.097218591262681 0 0 0
159 0 2 0 12.541506130336709 10.906846450931676 2.718129291701171 0 0 0
190 0 1 0 15.732694156929432 10.689369731317736 3.4026789667944457 0 0 0
192 0 2 0 15.327516707396878 10.965410039867603 2.5980823051886253 0 0 0
202 0 1 0 13.853549816552297 10.620592088788698 1.4896775631495542 0 0 0
203 0 2 0 13.906696487318264 11.393941700156843 0.8983014721048446 0 0 0
204 0 2 0 13.866543539370594 9.91650806955721 0.800523127951291 0 0 0
194 0 2 0 14.745006171231442 9.414714632891638 4.277555005228487 0 0 0
330 0 2 0 13.399708286019928 12.321586946455879 4.505433732415215 0 0 0
227 0 2 0 18.063645990505783 8.631155596639351 1.7490173874466106 0 0 0
191 0 2 0 16.74419830716215 10.714234806547754 3.238170917492202 0 0 0
200 0 2 0 16.978799063383114 10.519071799022909 0.3809517038072096 0 0 0
187 0 1 0 18.40123367115425 10.966635553249622 3.3864317419303256 0 0 0
189 0 2 0 19.04496866232904 11.209999562120819 2.697750129927912 0 0 0
199 0 1 0 16.983738232665694 9.544216556477114 0.546692799621265 0 0 0
232 0 1 0 20.197751206638017 11.065871519203437 1.4625115170118672 0 0 0
234 0 2 0 20.366387354712145 10.363464815280016 0.8272388697662888 0 0 0
188 0 2 0 18.747829089001428 10.192588319439215 3.8921224580956553 0 0 0
205 0 1 0 17.158606147151303 12.282339946520167 0.5523082012865506 0 0 0
359 0 2 0 19.66158335558785 12.068611218091071 4.436548589982264 0 0 0
225 0 2 0 20.501734203553696 9.134002638081249 4.219719641295602 0 0 0
214 0 1 0 21.34060372038026 8.249724471098236 2.3051542591036887 0 0 0
233 0 2 0 21.007370678662674 11.160612819717919 2.0407139036356696 0 0 0
217 0 1 0 24.59045506266569 10.788460680638073 3.943830620308862 0 0 0
215 0 2 0 21.83393016952398 8.924127222562296 1.8055743732223726 0 0 0
220 0 1 0 21.93755961065851 11.132593450662219 3.4296449456895886 0 0 0
221 0 2 0 22.898620465935075 11.15187399507696 3.6058321655225822 0 0 0
222 0 2 0 21.59900749293793 11.784377228099729 4.11779058903621 0 0 0
229 0 1 0 23.147006980876554 9.544414046212275 0.7295320074165274 0 0 0
230 0 2 0 23.970091509079715 9.193854888210723 1.0989721419168297 0 0 0
231 0 2 0 23.204067332538095 10.55412157315454 0.7166229183168806 0 0 0
235 0 1 0 23.2810695386746 12.276479875295873 0.5483289612933558 0 0 0
244 0 1 0 2.850764996017809 13.706552496334671 2.2726620431989772 0 0 0
245 0 2 0 1.8847258878197846 13.776905358205632 2.1423270858558583 0 0 0
246 0 2 0 3.161252091094929 12.903008935970595 1.8156534534026307 0 0 0
256 0 1 0 0.27652569507201774 13.7708754027418 1.9206403358975705 0 0 0
1694 0 2 0 1.4325477946946334 15.735780046607307 0.04598910351713115 0 0 1
260 0 2 0 3.763072294379881 14.930582884495244 1.0474716365021304 0 0 0
242 0 2 0 3.9866332169995937 14.08358895543152 3.67247575178979 0 0 0
255 0 2 0 0.7926538481744646 15.431159850378696 4.264768295568558 0 0 0
257 0 2 0 0.004417666318618292 14.045427224049456 2.817958978392788 0 0 0
147 0 2 0 5.187954311028081 12.802503334929515 1.3027983208409355 0 0 0
259 0 1 0 4.588958055253775 15.34862312617948 0.7334946103271491 0 0 0
286 0 1 0 6.394349988484375 14.048343671675179 2.2473714563851894 0 0 0
287 0 2 0 5.9652184179179715 14.150599953640503 3.1195848340449257 0 0 0
288 0 2 0 5.857096645455883 14.69492273220171 1.8026330570999625 0 0 0
241 0 1 0 4.708439731800566 14.02267312755849 4.328171104890863 0 0 0
248 0 2 0 6.681253560233074 16.427767307718184 4.3928430765459705 0 0 0
276 0 2 0 8.081814369525048 14.090439585495394 2.5404056636673977 0 0 0
175 0 1 0 11.03070707446211 12.395930926630374 0.886910886969923 0 0 0
176 0 2 0 10.382805805328431 12.852552380408286 1.417432765959016 0 0 0
272 0 2 0 11.56608721025431 13.894356325489069 3.924922899489756 0 0 0
274 0 1 0 9.0800681692076 14.191750351626599 2.3552862272951023 0 0 0
275 0 2 0 9.596446129940983 14.020728445265046 3.1953373398932574 0 0 0
289 0 1 0 10.607803044518324 15.747501241635916 0.6721566180518336 0 0 0
291 0 2 0 10.033133116666674 15.389080279412775 1.3404908109055964 0 0 0
318 0 2 0 12.172154290596474 13.606058437706329 1.7093507646379684 0 0 0
317 0 2 0 12.346328988119469 15.00423895779373 2.2836293659352047 0 0 0
271 0 1 0 10.793118613519292 13.942189064168682 4.457055260375327 0 0 0
281 0 2 0 9.184731282775724 16.132405903644297 4.059511926444772 0 0 0
177 0 2 0 10.94474472804152 12.771316383214732 0.03452714225390487 0 0 0
316 0 1 0 12.667065841533063 14.117001015325258 2.47013243517729 0 0 0
304 0 1 0 15.356732264427295 13.915315051450992 1.991068896491981 0 0 0
305 0 2 0 14.416902145814776 13.972786251316977 2.2624553925475865 0 0 0
306 0 2 0 15.484217337620107 13.070149593144423 1.473840660154585 0 0 0
320 0 2 0 16.334837919767658 15.852371132241048 1.2446133869237188 0 0 0
311 0 2 0 15.13933458647954 16.4850615782806 3.8802961593837115 0 0 0
315 0 2 0 13.199499917183111 15.659178152625028 4.467542628011969 0 0 0
1754 0 2 0 13.993955937485225 15.635270967519913 0.13970479410814185 0 0 1
302 0 2 0 16.521558517424538 13.793825842550088 3.320723674300595 0 0 0
207 0 2 0 17.95648619748753 12.63956155308071 1.0014566270859917 0 0 0
319 0 1 0 17.02143717161598 15.998074999360016 0.564118861348884 0 0 0
346 0 1 0 18.90208787796975 14.072756779268996 1.8573415615051898 0 0 0
347 0 2 0 18.381634580207965 14.821246333966117 1.4404011677360424 0 0 0
348 0 2 0 18.53502576702745 14.006791334975038 2.7813082188246705 0 0 0
301 0 1 0 17.26771707659394 13.85552246525212 4.0117178036406225 0 0 0
1784 0 2 0 20.047068121708115 15.811060268935982 0.11973678794309581 0 0 1
309 0 2 0 18.78604054317865 16.198541110067616 3.985813201452177 0 0 0
335 0 2 0 20.628179697921723 14.030626793333525 2.0500516241155746 0 0 0
237 0 2 0 22.49880155774629 12.715442508882537 0.9237175348639757 0 0 0
258 0 2 0 24.37478980409469 13.246972800682222 1.5430467142318953 -1 0 0
332 0 2 0 22.557488054795925 14.047422482029829 3.5854740177096263 0 0 0
334 0 1 0 21.592089312926248 14.071497303953326 1.979248132742192 0 0 0
336 0 2 0 21.823761909433607 14.783740851202825 1.3355059208413842 0 0 0
349 0 1 0 23.10393269361945 15.70525514880659 0.5709064830485077 0 0 0
350 0 2 0 23.767472207854873 15.288938125903973 1.1225358017580729 0 0 0
331 0 1 0 23.304476873558848 14.07026044857898 4.258551532915238 0 0 0
251 0 2 0 2.810556507874595 16.623906686031404 4.122048200111305 0 0 0
264 0 2 0 0.7888687611135163 17.129210367601004 2.1212291580111673 0 0 0
250 0 1 0 3.335296962451531 17.237790452504825 3.610314776342797 0 0 0
262 0 1 0 1.5069174374510146 17.073693778082543 1.4055912057024733 0 0 0
263 0 2 0 2.190647183155969 17.41754901781941 1.9528930161039872 0 0 0
364 0 1 0 3.036958033429098 20.126065692942234 2.0769669573513374 0 0 0
366 0 2 0 2.069059695657158 20.23066800246852 2.019877939476777 0 0 0
376 0 1 0 0.31578159285149754 20.081916990978556 1.8135753810882582 0 0 0
338 0 2 0 0.07030739685678011 17.622596650676485 4.1531288993022955 1 0 0
363 0 2 0 3.8719136920699615 20.144831193180522 3.8105740499398992 0 0 0
390 0 2 0 2.148484510670676 18.664277787093624 4.196025304061826 0 0 0
267 0 2 0 3.914119655766898 18.48679865073992 1.2287314683313801 0 0 0
378 0 2 0 -0.005016554961455713 20.035752585013306 2.7515988175993664 0 0 0
252 0 2 0 4.26710259423896 17.159041020152955 3.9139012219763143 0 0 0
292 0 1 0 7.70485507935636 16.710794897326892 1.364225508044997 0 0 0
266 0 2 0 4.708446077172085 17.22283684163967 0.8180150796038442 0 0 0
249 0 2 0 6.735982016728855 16.970406956450702 2.9612587339432492 0 0 0
247 0 1 0 6.269846563396832 17.124644028400127 3.7852765301977565 0 0 0
265 0 1 0 4.638954810215746 18.230680903676905 0.6583559011688677 0 0 0
408 0 2 0 6.15518074903681 19.683303895017268 1.9694175222470007 0 0 0
406 0 1 0 6.425784243395 20.53882980003597 2.410962725595618 0 0 0
407 0 2 0 5.823962000548722 20.464302344652957 3.1659099570031177 0 0 0
294 0 2 0 7.499255860832794 17.375487568213636 0.6744279566070774 0 0 0
361 0 1 0 4.5759760141507435 20.1971155266392 4.464011340302783 0 0 0
395 0 2 0 8.163587568377716 20.42478838373475 2.342730172581663 0 0 0
419 0 2 0 7.131708266385899 18.547603702887265 4.359620372472734 0 0 0
290 0 2 0 10.642505453794836 16.75342474739208 0.802060711596612 0 0 0
293 0 2 0 8.53916842064998 16.92470707080841 1.7949096000470237 0 0 0
278 0 2 0 11.024923093597137 16.839905398849247 3.424631143301023 0 0 0
280 0 1 0 9.422097772729872 16.858081096750645 3.4404438884752633 0 0 0
295 0 1 0 10.843885093051956 18.413803820477355 0.8936855579400359 0 0 0
296 0 2 0 9.982177178710538 18.731775493835244 1.2444116900033686 0 0 0
394 0 1 0 9.04760960354599 20.120894056891046 2.193135498322338 0 0 0
396 0 2 0 9.435739309855805 20.00252369243367 3.096741852304744 0 0 0
393 0 2 0 11.394574708767665 20.146194814774326 3.4756970948195973 0 0 0
282 0 2 0 9.019385047314747 17.602040745264233 3.933888571313445 0 0 0
277 0 1 0 12.038964729089074 16.690992424768943 3.41546283789186 0 0 0
391 0 1 0 10.883175401850512 19.986748904453925 4.281829192834113 0 0 0
437 0 2 0 12.153412871129174 19.62910166596525 1.7328868810747575 0 0 0
279 0 2 0 12.322495911200468 17.558666864324373 3.774627740940905 0 0 0
297 0 2 0 10.9292499339992 18.805928400408114 0.007267847208990982 0 0 0
324 0 2 0 14.531700190400013 17.00194574520207 1.8984723818559945 0 0 0
436 0 1 0 12.601252733779013 20.447598300860605 1.9707487999082962 0 0 0
323 0 2 0 12.992495232782197 16.9658963497266 1.9160318341170657 0 0 0
322 0 1 0 13.779236016563292 16.953326228264686 1.2997768726438037 0 0 0
310 0 1 0 15.791495601219548 16.965845873602618 3.380013412504246 0 0 0
312 0 2 0 15.591954066392988 17.884293158518034 3.6210982750322573 0 0 0
424 0 1 0 15.302138403200747 20.031106751017084 1.970923836773489 0 0 0
425 0 2 0 14.385071020155051 19.941206499331585 1.7403456315061985 0 0 0
1890 0 2 0 13.874399822446106 18.37772495263856 0.08289218102212283 0 0 1
423 0 2 0 16.10125625085184 20.23180394205435 3.8212476679449523 0 0 0
321 0 2 0 17.24222016971713 17.001745347486676 0.6458266161249908 0 0 0
326 0 2 0 16.538175483597485 18.83136523292667 1.1900748601114444 0 0 0
352 0 1 0 20.373733179369275 17.28359552461371 1.496392420367406 0 0 0
353 0 2 0 19.610103199201454 17.259306332821737 2.113802539469849 0 0 0
308 0 2 0 17.638107736958403 17.089043765038333 3.538287839915503 0 0 0
325 0 1 0 17.23907027375597 18.584171937022077 0.5880662663616971 0 0 0
307 0 1 0 18.591833250616517 16.9620723383344 3.451660509765408 0 0 0
466 0 1 0 18.806248060319263 20.442706688065265 2.033077923577719 0 0 0
468 0 2 0 18.54953178330762 19.633481169761204 1.541639164149401 0 0 0
467 0 2 0 18.186001807204562 20.47557007618692 2.8028100023442444 0 0 0
421 0 1 0 16.8963539131014 20.226917721442206 4.339540138657519 0 0 0
354 0 2 0 20.18476459813553 17.939287531327786 0.7552786064932366 0 0 0
480 0 2 0 19.484829727678353 18.22589951157117 4.520494477766288 0 0 0
455 0 2 0 20.613318663846073 20.276848418609617 2.368833562624656 0 0 0
351 0 2 0 23.095808209578564 16.685920320992558 0.663070230939619 0 0 0
337 0 1 0 24.62533315301141 17.153243066551646 3.3402648918583586 0 0 0
342 0 2 0 21.414903773700672 16.959065518817432 2.930793881701699 0 0 0
339 0 2 0 23.681651540178123 17.103489295746286 3.4236848055888207 0 0 0
340 0 1 0 21.84713498544125 16.93398995392066 3.7713099020568928 0 0 0
355 0 1 0 23.087628611220957 18.421599117736818 0.8648636169892336 0 0 0
356 0 2 0 23.909175431414567 18.761108044239826 1.2721469026156162 0 0 0
453 0 2 0 22.86358610943782 20.280053777596052 3.7422045829180615 0 0 0
454 0 1 0 21.585773211697237 20.364359856283663 2.3402376932612143 0 0 0
456 0 2 0 21.889058125568923 19.582154152728968 1.7552973079451661 0 0 0
341 0 2 0 21.436722388214243 17.70015503554818 4.268099627124443 0 0 0
451 0 1 0 23.557490265765175 20.302368978166477 4.373932449446149 0 0 0
365 0 2 0 3.4625831023080003 20.75503395197395 1.516164990404955 0 0 0
370 0 1 0 3.503066067477906 22.897956231832133 3.715490648535876 0 0 0
371 0 2 0 3.0014963379726054 22.697197791744927 2.902867646350469 0 0 0
372 0 2 0 3.0767107230476483 23.647319408103385 4.08241511949733 0 0 0
382 0 1 0 1.8300781702915383 22.943980815602394 1.4591332491926317 0 0 0
383 0 2 0 1.7494802574190744 22.25857018488422 0.7185485874000392 0 0 0
384 0 2 0 1.773525305198155 23.7776886810246 0.9691771657709416 0 0 0
458 0 2 0 0.19494297023145565 22.63732818719309 4.133960574298213 1 0 0
459 0 2 0 0.26073033694937137 23.08465525754807 2.6235773462748537 1 0 0
385 0 1 0 4.4670947622976795 24.592337587714916 0.6133904569473673 0 0 0
381 0 2 0 4.469001475201291 22.658982297269375 0.6895501148398809 0 0 0
367 0 1 0 6.2023016946439435 23.289393695190554 3.783319617824643 0 0 0
368 0 2 0 5.192078511354199 23.222288769883164 3.814291454113629 0 0 0
379 0 1 0 4.575555966380023 21.663052702261034 0.5519766255787819 0 0 0
380 0 2 0 5.343458875788165 21.49721763529135 1.1278190173954625 0 0 0
414 0 2 0 6.957743165179143 23.068836595759556 2.0743519845781915 0 0 0
412 0 1 0 7.677712208723156 23.03997517098999 1.3623705143323024 0 0 0
413 0 2 0 7.458967374595975 23.840452274601503 0.8516228989762991 0 0 0
369 0 2 0 6.540805730985694 22.508423859092545 4.217495645967732 0 0 0
1845 0 2 0 7.518534411548992 21.824247306181718 0.06313316166565208 0 0 1
438 0 2 0 12.046988633197161 21.10335755182208 1.4448120734683723 0 0 0
415 0 1 0 10.877420303289101 24.482365180122123 1.0025633403174385 0 0 0
400 0 1 0 9.325439891876343 23.213872640720567 3.55283611588693 0 0 0
401 0 2 0 10.26046122259925 23.483743734786458 3.3567241742243037 0 0 0
402 0 2 0 8.967490919743879 22.867271266667252 2.7375097396785497 0 0 0
409 0 1 0 10.753952173392385 21.781789841806642 0.6924855421271835 0 0 0
410 0 2 0 9.99503978996286 21.32180086499301 1.1625267628023903 0 0 0
411 0 2 0 10.562624443063665 22.736165270569714 0.8341396991824512 0 0 0
397 0 1 0 12.13508489235403 23.32638640881892 3.6356936617351714 0 0 0
426 0 2 0 15.608674591756841 20.82567426357224 1.474505015548965 0 0 0
398 0 2 0 12.702994890045325 24.002787315352684 4.005486588974721 0 0 0
399 0 2 0 12.628103997405255 22.992229727253886 2.8877900238002683 0 0 0
430 0 1 0 15.755592928196705 23.359576917320275 3.50656003726954 0 0 0
431 0 2 0 15.462669393792616 22.569699417303134 3.902269611126294 0 0 0
442 0 1 0 14.04819847788606 23.293354248309043 1.3835324526097996 0 0 0
443 0 2 0 14.820214175006083 23.500839521426244 1.9799289236191333 0 0 0
444 0 2 0 13.988633494255073 24.030928257598973 0.7773757960937306 0 0 0
90 0 2 0 14.808632828433879 24.717513961902988 4.470935453786877 0 -1 0
435 0 2 0 13.345672639320957 21.79288926296443 4.536299944164646 0 0 0
1875 0 2 0 13.989140060020805 21.842681183679254 0.05952613903106166 0 0 1
446 0 2 0 17.52292093500232 24.68194929641419 0.9708770057995824 0 0 0
432 0 2 0 16.73816512252491 23.30097087042803 3.4663576704727492 0 0 0
445 0 1 0 16.756339876807267 24.610406157363897 0.35772473513021624 0 0 0
439 0 1 0 16.774187859425474 21.82157487779586 0.5154104153691031 0 0 0
447 0 2 0 16.60452571569037 23.665318497392356 0.2701320197422081 0 0 0
427 0 1 0 18.65359188367013 23.18622599867529 3.4123693716075834 0 0 0
429 0 2 0 18.715384679469956 23.861141678451013 4.109633849313811 0 0 0
440 0 2 0 17.551461909220123 21.773607799381338 1.0655179002134794 0 0 0
474 0 2 0 19.569054775553205 23.42741903660719 1.9921930195436621 0 0 0
428 0 2 0 19.156664153581218 22.490750178186154 3.840911055172256 0 0 0
472 0 1 0 20.363448115859775 23.283548212218243 1.4361502454971975 0 0 0
473 0 2 0 20.309304117573355 24.05990423032496 0.8134776771890188 0 0 0
1905 0 2 0 19.9829845410246 21.880728222812294 0.05620183829569372 0 0 1
476 0 2 0 22.542660046249004 24.708656072632543 0.9931726867852855 0 0 0
377 0 2 0 24.639773278703885 20.78923042060937 1.404419856127051 -1 0 0
457 0 1 0 24.656959105999128 23.288448991043325 3.4699855883794237 0 0 0
475 0 1 0 23.33145033165114 24.399539022859813 0.5050071369164226 0 0 0
460 0 1 0 22.071878005465365 23.228357021826746 3.410367052386247 0 0 0
461 0 2 0 21.60803112649227 23.334146667480894 2.542205985902161 0 0 0
462 0 2 0 23.021374844664166 23.163677903305526 3.2655122437965898 0 0 0
469 0 1 0 23.323470561045212 21.835148116706335 0.7365798418160967 0 0 0
471 0 2 0 22.633297716657495 21.655474346995064 1.4255492067816617 0 0 0
477 0 2 0 23.304488193168766 23.394854729524212 0.6123270847142632 0 0 0
465 0 2 0 21.10265267410894 21.901535681016064 4.409778536825283 0 0 0
13 0 1 0 1.4031079010850271 2.845809097016047 4.685486668258811 0 0 0
14 0 2 0 1.57918803322696 1.899394157096516 4.922669550643217 0 0 0
15 0 2 0 1.3734261473796086 3.2204905065963843 5.565738521293915 0 0 0
484 0 1 0 2.876202792572402 1.5607145222575338 7.753176046790218 0 0 0
485 0 2 0 1.906959816827733 1.6579690192575691 7.927210011404033 0 0 0
486 0 2 0 3.219455880641045 2.2883454828300716 7.1801588626717825 0 0 0
496 0 1 0 0.08700868832575773 1.470091834119732 7.432863913964274 0 0 0
866 0 2 0 3.8791848560634294 0.37717036720919056 6.772472517390615 0 1 0
28 0 1 0 2.0995328110446017 0.16956300957968518 4.962695836635065 0 0 0
45 0 2 0 6.912967058502491 3.198908896179986 4.59078811990549 0 0 0
500 0 2 0 4.67421073357068 2.6666295161518803 5.455392359396159 0 0 0
3 0 2 0 4.804355504511741 0.6780815950487744 4.657889735481543 0 0 0
43 0 1 0 7.819134359081418 3.052834909295621 4.96365731408685 0 0 0
499 0 1 0 4.574148317213013 3.2597673466721933 6.24561359924133 0 0 0
501 0 2 0 5.113910086294241 2.9841563705556586 6.9555655721869165 0 0 0
526 0 1 0 6.243427341461711 1.5112473304466625 7.808583388441507 0 0 0
527 0 2 0 7.186553160002307 1.6215314786723132 7.889412366120531 0 0 0
528 0 2 0 5.95960955054452 1.3724760586796594 8.715527076956077 0 0 0
44 0 2 0 7.836139080070227 2.0799336633356793 5.286015075883438 0 0 0
534 0 2 0 7.784461470204454 4.0798785335040355 6.405485784309789 0 0 0
867 0 2 0 5.3369284744593095 0.0010422873674434951 7.045908280984163 0 1 0
58 0 1 0 7.740877272384839 0.3935114624762623 5.086189945852134 0 0 0
59 0 2 0 8.522590173481412 0.11119645402876074 4.612014284706956 0 0 0
33 0 2 0 10.383703117152336 2.323185506364188 5.008005899615918 0 0 0
514 0 1 0 9.10230991537088 1.4536403720857294 7.78767425021464 0 0 0
515 0 2 0 9.577299087293158 1.4122269525963533 8.649719517690583 0 0 0
516 0 2 0 9.477040931167123 0.8169699779867419 7.233758638189689 0 0 0
529 0 1 0 10.745949937651325 3.1269136007806124 6.40897915054597 0 0 0