LAMMPS (29 Sep 2021 - Update 2)
  using 1 OpenMP thread(s) per MPI task
echo both

include		in.partitions
variable        pid world 0
include		in.temp
variable        temperature equal 255
variable        tempDamp equal 0.100 # this is 0.1 ps
include		in.pressure
variable        pressure equal 9119.25
variable        pressureDamp equal 1.0 #this is 1ps
include		in.seed
variable        seed world 745823

units           metal
atom_style	full
include		in.box
read_data       iceVI.data
Reading data file ...
  orthogonal box = (0.0000000 0.0000000 0.0000000) to (24.724405 24.724405 22.792372)
  1 by 1 by 1 MPI processor grid
  reading atoms ...
  1920 atoms
Finding 1-2 1-3 1-4 neighbors ...
  special bond factors lj:    0        0        0       
  special bond factors coul:  0        0        0       
     0 = max # of 1-2 neighbors
     0 = max # of 1-3 neighbors
     0 = max # of 1-4 neighbors
     1 = max # of special neighbors
  special bonds CPU = 0.003 seconds
  read_data CPU = 0.023 seconds
include 	in.setup
variable	out_freq equal 500
variable	out_freq2 equal 500

timestep        0.0005

neigh_modify    delay 7 every 1

include         in.deepmd
# This is deepMD model

# create groups ###
#group ox type 2
#group hy type 1

mass 2 15.999
mass 1 1.008

pair_style      deepmd ../graph.pb
pair_coeff      * *

bond_style      none
angle_style     none
dihedral_style  none
improper_style  none
neigh_modify exclude none


neighbor        2.0 bin
neigh_modify    every 10 delay 0 check no

thermo          ${out_freq}
thermo          500
thermo_style 	custom step temp pe etotal epair emol press lx ly lz xy xz yz vol pxx pyy pzz pxy pxz pyz

restart 	${out_freq} restart.lmp.${pid} restart2.lmp.${pid}
restart 	500 restart.lmp.${pid} restart2.lmp.${pid}
restart 	500 restart.lmp.0 restart2.lmp.${pid}
restart 	500 restart.lmp.0 restart2.lmp.0


include         in.dump
dump            myDump all atom ${out_freq2} dump.water.${pid}
dump            myDump all atom 500 dump.water.${pid}
dump            myDump all atom 500 dump.water.0
dump            myDump2 all dcd ${out_freq2} dump.dcd
dump            myDump2 all dcd 500 dump.dcd
dump_modify     myDump append yes
dump_modify     myDump2 append yes


timer           timeout 03:55:00 every 1000
New timer settings: style=normal  mode=nosync  timeout=03:55:00

fix             2 all nph aniso ${pressure} ${pressure} ${pressureDamp}
fix             2 all nph aniso 9119.25 ${pressure} ${pressureDamp}
fix             2 all nph aniso 9119.25 9119.25 ${pressureDamp}
fix             2 all nph aniso 9119.25 9119.25 1
fix             3 all temp/csvr ${temperature} ${temperature} ${tempDamp} ${seed}
fix             3 all temp/csvr 255 ${temperature} ${tempDamp} ${seed}
fix             3 all temp/csvr 255 255 ${tempDamp} ${seed}
fix             3 all temp/csvr 255 255 0.1 ${seed}
fix             3 all temp/csvr 255 255 0.1 745823
velocity 	all create ${temperature} ${seed} dist gaussian
velocity 	all create 255 ${seed} dist gaussian
velocity 	all create 255 745823 dist gaussian

run             400000

CITE-CITE-CITE-CITE-CITE-CITE-CITE-CITE-CITE-CITE-CITE-CITE-CITE

Your simulation uses code contributions which should be cited:

- USER-DEEPMD package:

@article{Wang_ComputPhysCommun_2018_v228_p178,
  author = {Wang, Han and Zhang, Linfeng and Han, Jiequn and E, Weinan},
  doi = {10.1016/j.cpc.2018.03.016},
  url = {https://doi.org/10.1016/j.cpc.2018.03.016},
  year = 2018,
  month = {jul},
  publisher = {Elsevier {BV}},
  volume = 228,
  journal = {Comput. Phys. Commun.},
  title = {{DeePMD-kit: A deep learning package for many-body potential energy representation and molecular dynamics}},
  pages = {178--184}
}

CITE-CITE-CITE-CITE-CITE-CITE-CITE-CITE-CITE-CITE-CITE-CITE-CITE

Neighbor list info ...
  update every 10 steps, delay 0 steps, check no
  max neighbors/atom: 2000, page size: 100000
  master list distance cutoff = 8
  ghost atom cutoff = 8
  binsize = 4, bins = 7 7 6
  1 neighbor lists, perpetual/occasional/extra = 1 0 0
  (1) pair deepmd, perpetual
      attributes: full, newton on
      pair build: full/bin
      stencil: full/bin/3d
      bin: standard
Per MPI rank memory allocation (min/avg/max) = 9.089 | 9.089 | 9.089 Mbytes
Step Temp PotEng TotEng E_pair E_mol Press Lx Ly Lz Xy Xz Yz Volume Pxx Pyy Pzz Pxy Pxz Pyz 
       0          255   -333.91511   -270.66231   -333.91511            0    45254.126    24.724405    24.724405    22.792372            0            0            0     13932.89    45936.464    47276.264    42549.649   -806.67598   -395.06229   -353.57305 
     500    235.82684   -313.77229   -255.27539   -313.77229            0    5181.2188    24.805784    24.845068    22.856074            0            0            0     14086.23    7444.2912     6581.959    1517.4063   -1447.9936   -1956.7598    1166.2769 
    1000      256.739    -313.5122   -249.82804    -313.5122            0    8521.0408    24.819149    24.830086    22.826519            0            0            0    14067.107    8194.1989    7606.9278    9761.9957    396.07693   -968.51056   -1108.6714 
    1500    254.22184   -312.51994   -249.46016   -312.51994            0    14325.147    24.864543    24.724666    22.782227            0            0            0    14005.773     13884.75    15398.053    13692.636    770.09322   -1583.6246    2843.0171 
    2000    255.97179   -311.22208   -247.72822   -311.22208            0    2053.8435    24.843511    24.847612    22.881357            0            0            0    14124.706    775.80226    2875.4021    2510.3261    1753.3862    -929.2551   -743.93555 
    2500    265.99435   -312.10946    -246.1295   -312.10946            0    11640.436    24.707599    24.801034    22.841774            0            0            0    13996.846    8698.7274    15060.496    11162.086   -264.80323   -3729.6126    740.12591 
    3000    261.60391   -312.35373   -247.46282   -312.35373            0    11433.485    24.805692    24.841387    22.891882            0            0            0    14106.156    11994.426    12458.853    9847.1777    783.64966    1707.8343    215.71592 
    3500    255.30324   -312.32441   -248.99638   -312.32441            0    5466.9645    24.839595    24.721631    22.829559            0            0            0    14019.068    4055.3057    8021.0944    4324.4935    588.36227   -12.911925   -622.93018 
    4000     250.1323   -311.88448   -249.83911   -311.88448            0    9612.0442    24.886499    24.804192      22.8474            0            0            0     14103.46    9657.2039    9482.6144    9696.3142    167.51375     2542.338    42.762921 
    4500    247.88668   -311.01149   -249.52314   -311.01149            0    12171.838    24.784306    24.807224    22.774004            0            0            0    14002.138    9981.9402     13590.95    12942.624    375.94213    212.63696   -1825.1432 
    5000    252.02218   -310.95041   -248.43626   -310.95041            0    5639.0599    24.782633    24.824491    22.888331            0            0            0    14081.273    4824.8095    5174.1709    6918.1992   -167.87762   -384.45818   -383.14347 
    5500    262.62445   -314.94546   -249.80141   -314.94546            0    10003.246    24.719416    24.716643    22.936035            0            0            0    14013.481     9198.699    11046.799    9764.2405   -2338.0408    1146.2082   -244.32858 
    6000    259.39333   -313.56012   -249.21754   -313.56012            0    8577.6664    24.827623     24.69989    22.891535            0            0            0    14037.994    7259.5572    10858.731    7614.7104    293.02305   -930.49672    441.18112 
    6500    246.03829   -311.23694   -250.20709   -311.23694            0    6048.6185     24.94979    24.849474     22.72966            0            0            0    14092.142    7889.3159     6145.408    4111.1317   -924.67844   -3236.4687     628.6253 
    7000    253.79808   -310.26031   -247.30564   -310.26031            0    14734.979     24.77003    24.904867    22.634652            0            0            0    13963.188    11154.055    15235.742     17815.14    436.13406    527.63939   -1954.8474 
    7500    250.55548   -310.10341   -247.95306   -310.10341            0    8131.3626    24.841395    24.889275    22.916333            0            0            0    14168.809     7172.693     9345.602     7875.793   -1727.3551   -1843.4937   -1345.8852 
    8000    254.79653   -312.26559   -249.06326   -312.26559            0    8212.8918    24.734278    24.636703    22.924276            0            0            0     13969.39    8358.0029    6992.5994    9288.0731    773.38239     2068.925    578.21699 
    8500    251.21458   -312.41859   -250.10476   -312.41859            0    8793.7311    24.817837    24.782949    22.951896            0            0            0    14116.775    6047.9472    9575.3228    10757.923    481.50814    583.17338   -9.3843668 
    9000     262.3325   -311.33525   -246.26361   -311.33525            0    10485.003    24.765242    24.819812     22.80391            0            0            0    14016.848    11711.623    10101.384    9642.0027    880.45196    1046.9248    1157.4722 
    9500    256.52148   -310.77661    -247.1464   -310.77661            0    10282.289    24.860605    24.861067    22.820025            0            0            0    14104.171    13415.208    6229.0771    11202.581    547.81934    -907.0512    1250.8372 
   10000    256.12323    -309.5844   -246.05298    -309.5844            0    11177.041    24.848637    24.776138    22.834032            0            0            0    14057.847    8781.6204    13369.755    11379.748    1180.1574    1629.8461   -318.74007 
   10500    264.22614   -309.46234   -243.92099   -309.46234            0    6891.7343    24.859165    24.789302    22.928067            0            0            0    14129.223    7533.6661    7581.6963    5559.8404   -736.05084   -1138.2782    579.93597 
   11000    249.48443   -309.01261   -247.12794   -309.01261            0    10340.567    24.731658    24.842022    22.923843            0            0            0    14084.051     10446.87    10600.862    9973.9701     1499.585   -450.38477   -640.93605 
   11500    258.07924   -312.88766   -248.87105   -312.88766            0    10476.134     24.77531    24.811888    22.870953            0            0            0    14059.283    11924.219    9620.3243    9883.8576   -927.81727    907.68523   -322.61344 
   12000    257.05706    -310.7677   -247.00464    -310.7677            0    6745.7088     24.89276    24.760426    22.844928            0            0            0    14080.594    5879.6898    9187.6803    5169.7563   -2096.4093   -224.68122    497.03352 
   12500    259.22578   -311.08204   -246.78103   -311.08204            0    6822.9451    24.800192     24.83844     22.84478            0            0            0     14072.34     8507.356    6354.6138    5606.8654   -13.907708    203.66746    709.85379 
   13000    265.13364   -311.59768   -245.83122   -311.59768            0    8959.6591    24.784971    24.881432    22.934798            0            0            0    14143.559     10369.18    8407.6738    8102.1235   -557.21042    1782.4201   -794.79941 
   13500    259.21291   -312.72571   -248.42789   -312.72571            0    9556.3869    24.812104    24.661002    22.880904            0            0            0    14000.627     10140.05    9393.0083    9136.1018    3.2494926   -81.695721   -1058.7575 
   14000    255.83265   -313.89094    -250.4316   -313.89094            0    5524.3699    24.911035     24.81908    22.888522            0            0            0    14151.263    8594.4243    4970.2433     3008.442   -838.11449    262.94915    318.11576 
   14500    251.40141   -313.13963   -250.77946   -313.13963            0    11396.527    24.720625    24.830424    22.746915            0            0            0    13962.594     13781.36    8034.6522    12373.569    260.07064   -1280.6384   -1392.0641 
   15000    258.13615   -312.43881   -248.40809   -312.43881            0    7064.8197    24.845892    24.852984    22.919857            0            0            0    14152.887    7915.0186    8520.5236     4758.917   -868.25756   -854.87977    758.95777 
   15500    253.72095   -310.86176   -247.92622   -310.86176            0    8690.5399    24.832652    24.645732    22.908771            0            0            0      14020.6    9931.2238    7246.6292    8893.7668    2161.1647    711.49081    1300.9291 
   16000     255.8939   -310.60088   -247.12635   -310.60088            0    8535.1134    24.806124    24.820515     22.89017            0            0            0    14093.495    8756.7906    8292.8081    8555.7416   -889.95801    867.76808    175.73403 
   16500    257.11934   -310.99447   -247.21596   -310.99447            0    6477.4891    24.687841    24.958985    22.821549            0            0            0    14062.261    9059.6707    2518.8716     7853.925    1333.6079   -329.89601   -379.81791 
   17000    254.18409   -311.24171    -248.1913   -311.24171            0    10320.812    24.866557    24.792125    22.795301            0            0            0    14053.184     11302.25    9352.7136    10307.471    2644.9979    643.91436    3279.9218 
   17500    249.74992   -309.91335   -247.96283   -309.91335            0    6873.9256     24.93133    24.728219    22.878737            0            0            0    14104.911    5413.0021    8446.0734    6762.7013   -370.59274   -1464.4952    -289.5026 
   18000    252.99403    -313.2449   -250.48968    -313.2449            0    10266.664    24.766378    24.795814    22.840819            0            0            0    14026.604    8204.7507    10475.188    12120.053     45.74741   -249.97132    1508.1115 
   18500    253.93933   -312.15963   -249.16993   -312.15963            0    8995.5428    24.739927    24.912677    22.857608            0            0            0    14088.008    9627.6612    8872.0111    8486.9562   -101.06013   -599.13894     891.3536 
   19000    257.15672   -312.27673   -248.48895   -312.27673            0    10055.996    24.810381    24.787188    22.841546            0            0            0    14047.085    7742.7866    10671.664    11753.538    419.99572    969.72807     -1262.15 
   19500    257.93109   -312.56052   -248.58066   -312.56052            0    9993.2705    24.869014    24.753149    22.899361            0            0            0    14096.536    9504.4332    11639.684    8835.6942   -502.88346    1723.5597    1137.0645 
   20000    249.92741   -311.79226   -249.79771   -311.79226            0     7718.458    24.747983    24.739584     22.88298            0            0            0    14010.214    9956.2381     7242.066    5957.0699   -205.62728    948.57113   -719.14428 
   20500    251.77576   -312.59344    -250.1404   -312.59344            0    10271.759    24.729866    24.915762    22.867615            0            0            0    14090.188    10075.672    10447.379    10292.227    665.07054    432.53428    1180.7356 
   21000    251.33768   -311.38052   -249.03616   -311.38052            0    7522.3386     24.88039    24.812076    22.701116            0            0            0    14014.174    6658.2976    8575.7874    7332.9309    1702.0576    1289.0045    1407.7343 
   21500    249.22115    -313.7466   -251.92724    -313.7466            0    6942.8954    24.999417     24.70864    22.776247            0            0            0    14068.924    5415.1458    7387.4542    8026.0861   -1093.7361   -2367.2898    128.07769 
   22000    255.94738   -311.71341   -248.22561   -311.71341            0    8718.3059    24.679522    24.780488    23.029469            0            0            0    14084.147    9043.4237    9864.5639    7246.9301     1488.824    834.63615   -2459.5639 
   22500    262.26072   -313.10373    -248.0499   -313.10373            0    11105.872    24.592152    24.826956    23.028243            0            0            0    14059.854    11755.835    11370.368    10191.414   -378.64858    1363.9464   -1962.1229 
   23000    251.26646   -313.33284   -251.00614   -313.33284            0    6721.9802    24.860137    24.809011     22.80519            0            0            0    14065.224    4521.8681    7051.7717    8592.3008   -343.43456    1283.9278    1028.7886 
   23500    253.32432   -311.53759   -248.70043   -311.53759            0     5461.621     24.95034    24.802081    22.687376            0            0            0     14039.41    5184.9263    5105.2695    6094.6671    1222.1051    1296.8241   -541.42749 
   24000    265.22834   -311.59758   -245.80763   -311.59758            0    7002.1962     24.77751    24.856064    22.828375            0            0            0    14059.342    6783.2663    8246.2086    5977.1136    139.52524    452.58006     740.0636 
   24500    250.75695   -310.62963   -248.42931   -310.62963            0    9267.8706    24.687254    24.820214    22.970937            0            0            0    14075.279    10768.746    6585.2044    10449.662    473.36972    1131.7735     1013.262 
   25000    265.75138   -311.10404   -245.18435   -311.10404            0    9603.1229    24.829757     24.71007    22.959047            0            0            0    14086.409    11888.977    9735.9784     7184.413    1580.2932   -85.162545    135.16734 
   25500    259.24865   -310.52478    -246.2181   -310.52478            0     8500.803    24.945302     24.79847    22.782087            0            0            0     14093.12    7781.9785    9083.1812    8637.2493    358.41549   -2045.4837   -2084.8776 
   26000    264.48131   -309.76297   -244.15832   -309.76297            0    10541.758    24.867452    24.904678    22.729939            0            0            0    14077.013    12343.881     8780.425    10500.969   -838.80051    1745.8564    1496.3711 
   26500    255.56105   -312.30814   -248.91616   -312.30814            0    8026.3757    24.733924    24.835806     22.90801            0            0            0    14072.091    8525.2015    10729.805    4824.1209    1198.3756    933.28126   -1.3130893 
   27000    261.83607   -312.31974   -247.37124   -312.31974            0    7796.5677    24.724404    24.717525    22.998161            0            0            0    14054.775    8025.7205    6707.2004    8656.7821    -1024.621   -318.82387    6.1661788 
   27500    254.59845    -311.5149    -248.3617    -311.5149            0    11219.677     24.79002    24.807665    22.879417            0            0            0    14070.442    10589.675    10097.546    12971.811    310.30638    365.40852   -43.989075 
   28000    250.89537   -310.91808   -248.68343   -310.91808            0    7158.9225    24.824341    24.917318    22.713324            0            0            0    14049.463    5108.7524    8750.4266    7617.5884    1440.0583   -470.93731    598.68465 
   28500    257.61935     -311.475   -247.57247     -311.475            0    7927.7643    24.858731    24.841558    22.762127            0            0            0    14056.287     8224.208    8818.8268    6740.2582   -365.39851    1319.1947    627.34014 
   29000    256.60137   -312.55184   -248.90181   -312.55184            0    7385.8324    24.813521    24.713406    22.963099            0            0            0    14081.584    7149.9058    9520.1184    5487.4731   -19.556117    1115.5049    366.11931 
   29500    261.88175   -311.28357   -246.32375   -311.28357            0    8658.1949    24.709253      24.7612    22.926594            0            0            0    14027.195    9403.1918    9998.0185    6573.3745   -1041.1814   -1519.6121    2156.0333 
   30000    267.52106   -310.15555   -243.79689   -310.15555            0    8284.6296    24.846654    24.947115    22.847246            0            0            0    14161.919    7875.0141    9228.2208     7750.654    744.88032   -1437.2892   -1902.2407 
   30500    265.45113   -311.77534   -245.93013   -311.77534            0    9877.4878    24.920899     24.83385    22.651737            0            0            0     14018.75     8604.203    8878.6399    12149.621   -1503.6509   -1307.8132   -1026.3827 
   31000    257.99975   -309.51845   -245.52156   -309.51845            0    6153.2184    24.919502    24.840529    22.809879            0            0            0    14119.625    2967.8548    10227.192    5264.6083   -838.93251   -478.83631   -1035.4514 
   31500    262.30431   -311.03539   -245.97075   -311.03539            0    9742.7348    24.589326    24.775877    23.044004            0            0            0    14038.917    12281.349    8564.1833    8382.6726    275.69275    481.41487   -3012.5599 
   32000    252.64002   -310.72768   -248.06027   -310.72768            0    9997.1791    24.703834    24.717981    23.069791            0            0            0    14087.081     10610.81    8833.9255    10546.801    65.147662   -1571.9576   -302.15388 
   32500    258.47869   -310.64138   -246.52569   -310.64138            0    9170.0549    24.929364    24.800644    22.768394            0            0            0    14076.885    9748.2104    9857.0653     7904.889   -1937.0147   -164.54455    1395.2577 
   33000    259.09315    -311.1892   -246.92109    -311.1892            0    9711.1211    24.916405    24.890657    22.621852            0            0            0    14029.749    10370.182    9665.4506     9097.731    552.50936    1023.5151    544.30404 
   33500    254.02701   -313.08796   -250.07651   -313.08796            0    9567.0784    24.780601    24.883116    22.884406            0            0            0     14110.95    8892.7503    10904.466    8904.0188   -1033.6601   -1490.7271    1647.6749 
   34000    244.19457   -310.85004   -250.27753   -310.85004            0    9847.9746    24.700842    24.707212    22.941234            0            0            0    14000.782    10875.927    10588.026    8079.9713     1825.611    731.02369    -553.0783 
   34500    245.64717   -312.26641   -251.33358   -312.26641            0    9517.7105    24.825619    24.788178    22.892784            0            0            0    14087.805    9669.8647    7905.9885    10977.278    919.21174    639.51007   -1721.8554 
   35000     254.5929   -314.45628   -251.30445   -314.45628            0    9310.1894    24.844109    24.798551    22.755983            0            0            0    14019.913    6726.9687    10741.338    10462.261    453.98062    358.83634   -69.711832 
   35500    254.96162   -312.20228   -248.95899   -312.20228            0    9463.5548    24.878277    24.873476    22.794958            0            0            0    14105.731    9545.9787    7089.5558     11755.13    1466.3435   -679.07604    165.50946 
   36000    249.93741   -311.19803     -249.201   -311.19803            0    10399.066    24.747215    24.812087    22.871531            0            0            0    14043.808    10266.521    11791.718    9138.9582    2.8916595   -252.15104    3758.0076 
   36500    252.76526   -312.72803   -250.02956   -312.72803            0    8816.7877    24.730976    24.767149    22.959782            0            0            0    14063.228    8253.3999    8549.7886    9647.1747    1225.2737   -1094.6775   -1370.0304 
   37000    253.74615   -312.62614   -249.68435   -312.62614            0    6091.3151    24.805433    24.803204    22.867592            0            0            0    14069.383    6266.5037    4478.8645     7528.577    87.115454    161.61068    403.90472 
   37500    251.52514   -311.82959   -249.43872   -311.82959            0    10645.298    24.889346    24.855153    22.721266            0            0            0    14056.023    9180.4368    10674.357    12081.102    530.64201    518.08824    629.37732 
   38000    259.12106    -311.2856   -247.01056    -311.2856            0    7793.3229    24.876791    24.890057    22.774871            0            0            0    14101.853    9112.6546     4484.621    9782.6931   -1025.8947   -2435.1568    958.13227 
   38500    257.80807   -310.87471   -246.92537   -310.87471            0    11661.949    24.752395    24.719202    22.926425            0            0            0     14027.75    11696.906     13975.45    9313.4918   -1290.2665    944.01278    346.01605 
   39000    255.23167   -312.78974   -249.47947   -312.78974            0    8728.7323    24.703629    24.730054    23.072057            0            0            0    14095.229    9828.1578     9964.788     6393.251   -1057.2805   -111.00548   -441.10327 
   39500    262.73768     -311.245   -246.07286     -311.245            0    10859.154    24.774976    24.825186    22.844862            0            0            0    14050.581    11213.134    9531.1215    11833.206   -2091.0797   -1104.4497    664.42281 
   40000     250.6938   -311.85387   -249.66922   -311.85387            0    10359.375    24.937984    24.901117     22.63334            0            0            0    14054.935    9377.0317    10205.478    11495.614    2315.9596   -3259.4787    2680.2325 
   40500    252.71798   -312.39465    -249.7079   -312.39465            0    10680.745    24.855523    24.824741    22.777111            0            0            0    14054.205    11541.415    9641.9879    10858.831    1285.1942    863.22835    437.41613 
   41000    250.59801   -312.20335   -250.04246   -312.20335            0    8668.7305    24.658297    24.748813    23.026831            0            0            0    14052.436    9798.5423    8966.4803     7241.169   -299.10402    -2054.752    1858.8687 
   41500    259.83392   -312.95403   -248.50217   -312.95403            0    8928.0418    24.729669    24.742887    22.996424            0            0            0     14071.13     6953.497    12112.293    7718.3352    625.48819    1110.5951   -151.84805 
   42000    256.34128   -311.36891    -247.7834   -311.36891            0    10032.681    24.940099    24.776108    22.769373            0            0            0    14069.618     8908.832    9925.1001     11264.11    962.76622    804.54207   -880.07456 
   42500    251.96869   -309.81014   -247.30925   -309.81014            0     8047.676    24.887611    24.878984    22.723053            0            0            0    14069.625    8096.5192    9675.1421    6371.3668    179.79285     -2698.73   -1730.3923 
   43000    261.15659   -311.53665    -246.7567   -311.53665            0    9548.6809    24.770389    24.871951    22.849873            0            0            0     14077.53    10301.913    7984.9639    10359.166    1014.8257    2830.4482    1516.2327 
   43500    259.47846   -311.11815   -246.75446   -311.11815            0    7387.9355     24.75872    24.737424    22.945932            0            0            0    14053.625    7977.2221    6578.7424    7607.8421   -1100.6235   -642.08868    2941.7028 
   44000    259.30759   -314.17597   -249.85466   -314.17597            0    6771.6332    24.872608    24.737673    22.931673            0            0            0    14109.639    4756.1867    10085.679     5473.034    1103.6144    776.66897   -1913.3557 
   44500    261.56444   -312.94494   -248.06383   -312.94494            0    12093.223    24.804936    24.818466    22.771801            0            0            0    14018.787    10378.377    10496.011    15405.281   -1042.9434    592.02849    1026.8241 
   45000    252.18424   -312.52109   -249.96674   -312.52109            0    8159.1224     24.82239     24.96687    22.768214            0            0            0    14110.314    7903.9804    7904.5508    8668.8359    1872.6798    1168.2174    1598.6217 
   45500    253.73692    -313.1383    -250.1988    -313.1383            0    10214.927    24.727967    24.763155    22.849907            0            0            0    13991.969    11835.798    7702.2969    11106.687    -1136.825   -819.48595     1072.063 
   46000    254.80542   -312.62866   -249.42412   -312.62866            0    9147.0368    24.886403    24.639028    23.053437            0            0            0    14135.832    8930.6856    9206.2666    9304.1583   -482.48453   -2325.4251   -832.45732 
   46500    253.67008   -310.12883   -247.20591   -310.12883            0    10604.694    24.754203    24.800432     22.91515            0            0            0    14067.952     12267.74    5926.3632    13619.979     499.4696    1548.9555   -1884.1979 
   47000    254.83221   -311.46183   -248.25065   -311.46183            0    8249.5642    24.715454    24.966594     22.75401            0            0            0    14040.606    7788.7533    8683.2352    8276.7042   -2.6352287   -1170.2271    103.59062 
   47500    266.80555   -312.87049   -246.68931   -312.87049            0    10398.454    24.880283     24.86253    22.801925            0            0            0     14104.97    9779.6067      8675.59    12740.164    1282.6328    1384.1816    1474.0292 
   48000    256.69885   -311.96599   -248.29178   -311.96599            0    9955.2957    24.864373    24.712717    22.860304            0            0            0    14046.885    8651.6365    10356.837    10857.413   -1232.7194    880.21436   -689.22379 
   48500    252.39769   -310.79421   -248.18691   -310.79421            0    8853.0899    24.800232     24.78233     22.92064            0            0            0    14087.199    8332.3044    9432.4051    8794.5601   -632.96121    1628.9944    1459.6333 
   49000    252.80651   -308.72512   -246.01641   -308.72512            0    11079.946    24.728716     24.82834     22.86996            0            0            0    14041.537    11958.284    8338.1151     12943.44    1427.1677    633.27113   -1192.4482 
   49500     263.7763   -308.34628   -242.91651   -308.34628            0    11581.445    24.846313    24.866314    22.905406            0            0            0     14151.79    9766.4017    13990.508    10987.425    -693.5372    1473.3634   -193.60511 
   50000    262.53996   -310.01154   -244.88845   -310.01154            0    7356.9331     24.82983    24.723728    22.864503            0            0            0    14036.197    6389.8375    6734.8864    8946.0754    1554.6982    1310.4391    -706.9862 
   50500    255.34005    -311.3479   -248.01075    -311.3479            0    7823.6481    24.858493    24.766079    22.869285            0            0            0    14079.416    6419.6959    9621.9923    7429.2562   -52.168445   -1223.6272   -487.77702 
   51000    255.42004   -309.52804   -246.17104   -309.52804            0    9991.9251    24.778455    24.890772    22.853829            0            0            0    14095.211    9352.7943    10621.465    10001.516   -584.24313   -273.98678    665.62192 
   51500    261.46066   -312.60261   -247.74723   -312.60261            0    8369.7865    24.747436    24.855408    22.838309            0            0            0    14048.018    8670.9341    8964.3243    7474.1011     2220.846    548.31143   -440.99862 
   52000    245.30872   -310.99701   -250.14813   -310.99701            0    9647.1968    24.895513    24.750481    22.847509            0            0            0    14078.085    9512.3027    9320.6396    10108.648   -325.12364    812.43159    181.39982 
   52500    253.77707    -309.1969   -246.24744    -309.1969            0    9147.4219    24.877997    24.722834    22.868814            0            0            0    14065.569    7428.0407    10128.513    9885.7122   -1469.1927     -1808.58    912.48218 
   53000    251.18459   -311.63667   -249.33027   -311.63667            0    7359.5953    24.743768    24.885362    22.936443            0            0            0     14123.29    8549.1964    6444.9172    7084.6723    -647.6234   -685.77595    1045.3163 
   53500    254.88305   -310.93989   -247.71609   -310.93989            0    8596.3186    24.678454    24.853794    22.857625            0            0            0    14019.798    10416.199    6947.9311    8424.8251    833.15215   -3323.1011   -1110.6655 
   54000    255.38424    -309.7362   -246.38808    -309.7362            0    9340.5047    24.968774    24.694398    22.889237            0            0            0    14113.248    8072.3665    10849.143    9100.0042    3714.8296   -945.49368    996.76399 
   54500    251.76175    -312.6757   -250.22615    -312.6757            0    8362.4307    24.910014    24.677776    22.860222            0            0            0    14052.721      9043.31    6629.0251    9414.9569     3239.101    1357.9817    1017.8811 
   55000    260.59145   -312.79018   -248.15041   -312.79018            0    11912.083    24.692687    24.880156    22.874302            0            0            0    14053.009     12848.52    11892.259     10995.47   -1128.5438    183.74883   -1488.7966 
   55500    253.39743   -312.50402   -249.64873   -312.50402            0    9253.6836     24.77908    24.887789    22.882828            0            0            0     14111.76    8242.2877    9824.0885    9694.6747    -1720.957   -1347.6155    557.95335 
   56000    260.93279   -310.46668   -245.74225   -310.46668            0    10069.794    24.864598    24.670031    22.850868            0            0            0     14016.96    11620.533    9646.0541    8942.7941   -1683.3705    -1296.289     572.6039 
   56500    249.89824   -310.25477   -248.26746   -310.25477            0    10039.891    24.890072    24.771719    22.925074            0            0            0     14134.91     7270.873    10369.874    12478.927   -2213.4434   -1191.2957    595.47936 
   57000    249.76376   -310.95558   -249.00162   -310.95558            0    10187.808    24.673976    24.835682    22.852927            0            0            0     14004.16    11267.999    10379.166    8916.2593   -476.61009   -1248.3333   -1789.8776 
   57500    252.39922   -311.19725   -248.58957   -311.19725            0    8984.4974    24.786066    24.837698    22.879098            0            0            0    14085.032    10265.142    7646.6482     9041.702    1018.5719    420.58161   -751.40261 
   58000    249.34481   -310.70337   -248.85333   -310.70337            0    10238.081    24.856155    24.720211    22.828206            0            0            0    14026.778    7820.5069    12872.973    10020.763     104.9737     325.9701    720.18588 
   58500    257.85227   -310.92057   -246.96026   -310.92057            0    7654.8773    24.811321    24.810337    22.833462            0            0            0    14055.759    8053.2748    6658.3196    8253.0374    1433.7287   -108.59098   -593.43302 
   59000    255.84383   -311.85533   -248.39321   -311.85533            0    6769.0597    24.746216    24.874726    22.881717            0            0            0    14084.963    8021.2993    4569.5345    7716.3452    1159.1738   -1164.0201   -1158.8868 
   59500    258.45883   -311.56348   -247.45271   -311.56348            0    9560.2446    24.751105    24.748388    22.896991            0            0            0     14025.55    8002.2125    10898.492    9780.0291   -309.72047    2620.7153    420.86372 
   60000    252.16915   -312.23682   -249.68621   -312.23682            0    11201.602    24.822779    24.694275    22.967029            0            0            0    14078.342    9576.8209    13938.497    10089.489   -577.90481    1525.1479   -2853.6928 
   60500    249.04789   -310.74211   -248.96573   -310.74211            0    9607.0847    24.802586    24.815237    22.883642            0            0            0     14084.47    10990.327     9956.236    7874.6916    882.25016   -1033.4802    1130.8761 
   61000    250.61395   -310.89754    -248.7327   -310.89754            0     10772.88    24.731918    24.933313    22.727545            0            0            0     14014.91    15203.454    4745.8633    12369.321     2357.279    210.16308    829.57158 
   61500    263.21712   -311.46513   -246.17407   -311.46513            0     7142.729    24.829219    24.847997    22.869923            0            0            0    14109.745    4750.3193    10352.069    6325.7981   -497.57254    867.36244    1717.8401 
   62000    254.82935   -309.92389   -246.71342   -309.92389            0    11620.122    24.798018    24.635238    22.899828            0            0            0    13989.621    11029.567    11518.079     12312.72   -973.91017   -880.14305    1443.2073 
   62500     251.0782    -311.3407    -249.0607    -311.3407            0    7173.4685    24.840879     24.83962    22.919669            0            0            0    14142.306    5153.5164    7980.5082    8386.3808    1120.8905     2393.916    115.51902 
   63000    260.35047   -308.73717   -244.15717   -308.73717            0    7835.8807    24.727584    24.857814    22.786856            0            0            0     14006.48    6176.7327    7730.5212    9600.3883   -728.22906    618.24425    -1043.492 
   63500    251.20176   -311.81791   -249.50726   -311.81791            0    6817.1963    24.855125    24.867036     22.89374            0            0            0    14150.009    5516.9052    6760.2668    8174.4167   -1123.7052    2614.8826    254.75732 
   64000    261.65427    -310.2989    -245.3955    -310.2989            0    11918.252    24.800285    24.688378    22.912298            0            0            0    14028.715    12065.331    13915.789     9773.636    -1496.466   -1348.0085    2252.6864 
   64500     251.3904   -312.09143   -249.73399   -312.09143            0    8075.1401    24.870047    24.849385    22.875004            0            0            0    14136.875    7477.0063    8957.8767    7790.5372    903.37867    2112.2675   -562.38335 
   65000    255.94173   -314.58439   -251.09799   -314.58439            0    8158.9252    24.788292    24.911116    22.656776            0            0            0     13990.65    8522.2604    6079.6851      9874.83    681.90092   -1595.3629    531.64151 
   65500    245.71394   -311.47785   -250.52845   -311.47785            0    9863.1141    24.918873    24.899438    22.771912            0            0            0    14129.196    8878.1619    13257.932    7453.2486   -485.13901    1951.4677   -1114.4548 
   66000    260.11506    -309.5497    -245.0281    -309.5497            0    11093.154    24.785786    24.681727    22.941114            0            0            0    14034.365    11980.028    11534.013    9765.4194    111.30774    640.82165   -1690.4981 
   66500    262.46282   -311.45456    -246.3506   -311.45456            0    9634.2542    24.754578    24.738813    23.036107            0            0            0    14107.286    11705.019    7213.4069    9984.3365   -2074.6991    751.74817   -779.19177 
   67000    253.58526   -311.52687   -248.62499   -311.52687            0    10911.239    24.788054    24.835129     22.83991            0            0            0     14060.58    10097.575    11247.261    11388.881    1572.1443    -841.1686    611.39509 
   67500    247.36412   -310.25525   -248.89653   -310.25525            0    10675.851     24.84119    24.841127    22.751601            0            0            0    14039.629    11548.243    10715.373    9763.9357    650.88805   -1668.6533   -660.81168 
   68000    254.63049   -313.23629   -250.07514   -313.23629            0    10425.565    24.833982    24.808827    22.863252            0            0            0    14086.094    11831.461    10105.505      9339.73     1820.569   -122.48593   -599.27835 
   68500     251.1031   -309.95791   -247.67173   -309.95791            0    9023.8991    24.742679    24.726061    22.948241            0            0            0    14039.481    8766.9567    9150.1584    9154.5822   -1720.3427    21.572391    1166.4419 
   69000    252.57343   -313.41566   -250.76477   -313.41566            0    9457.6443    24.812086    24.768897    22.949269            0            0            0    14103.886    11114.243    7621.4329    9637.2573    154.68978    1662.7836    256.55134 
   69500    254.23207   -312.78546   -249.72314   -312.78546            0    10632.499    24.801077     24.81649    22.759431            0            0            0    14007.876    8316.2282    12229.829    11351.439    863.77432    -636.8098      90.8097 
   70000    248.20761   -311.37451   -249.80656   -311.37451            0    6779.1842    24.926566    24.819253    22.770156            0            0            0    14086.956      6979.06    7660.4023    5698.0902    170.39534    1045.3695    1994.6178 
   70500    256.66616    -313.3102    -249.6441    -313.3102            0    10238.734    24.777768    24.727638    22.940808            0            0            0    14055.734     8925.996    13100.174     8690.033   -877.35401   -1753.0335   -122.21368 
   71000    251.74577   -312.79439    -250.3488   -312.79439            0    8147.6361    24.677036    24.786462    23.013294            0            0            0    14076.229    13927.539    6502.3449    4013.0247    223.51452    -1314.354    47.571226 
   71500    256.10222    -312.0174   -248.49119    -312.0174            0    9712.9088       24.849    24.840616    22.782974            0            0            0    14063.121    9420.6343    9563.8679    10154.224   -140.36018    1164.4492   -292.23778 
   72000    262.03215   -309.39692   -244.39978   -309.39692            0    8685.1553     25.01774    24.839824    22.643075            0            0            0    14071.227    7261.9513    10415.963     8377.552   -1594.8637    1508.7167   -1207.4403 
   72500    254.72002   -311.65244   -248.46909   -311.65244            0    9277.7062    24.837134    24.884461    22.831676            0            0            0    14111.316    9866.2035     9574.835      8392.08    517.57879    1202.5141    781.01491 
   73000    250.15415   -311.60473   -249.55394   -311.60473            0    7760.3183    24.600665    24.830443    23.015397            0            0            0    14058.849    7725.9793    9067.4666    6487.5091   -47.906097    1352.0625    4373.8714 
   73500    258.22674   -311.17729   -247.12409   -311.17729            0    9934.9676    24.788681    24.806303    22.883636            0            0            0    14071.504    10196.806    10349.013    9259.0837    1068.5308   -434.79238    3446.2559 
   74000    253.21643   -310.75365   -247.94326   -310.75365            0    10581.972    24.994819    24.781605     22.70657            0            0            0    14064.716    8313.5496    10902.656     12529.71     1068.026   -544.08903   -321.81851 
   74500    253.62811   -310.86236   -247.94985   -310.86236            0    7239.3777    24.855073     24.83426    22.753464            0            0            0    14044.743    5152.2004    8076.7957     8489.137    907.97284    762.10184    256.22811 
   75000    261.39134   -311.90068    -247.0625   -311.90068            0    8770.3698    24.696331    24.886164     22.91858            0            0            0    14085.689    11093.954    7671.4383     7545.717   -548.79384   -396.53953   -591.12134 
   75500    260.00236   -312.44156   -247.94792   -312.44156            0    10910.957    24.755318    24.785241    22.908687            0            0            0    14056.004    10423.444     8968.728    13340.697    32.643714   -243.57552    -439.1429 
   76000    256.93314   -312.50631   -248.77399   -312.50631            0    8284.0712    24.918871    24.718338    22.832462            0            0            0    14063.726     10405.16     9299.611    5147.4424    1021.0322   -1084.9191   -467.94655 
   76500    245.57316   -314.31087   -253.39639   -314.31087            0    8107.3176    24.862053    24.839077    22.766928            0            0            0    14059.727    6416.5225    8218.1639    9687.2665   -642.50543   -2254.1894     606.1662 
   77000    244.85194   -313.50966   -252.77409   -313.50966            0    12765.459    24.690083    24.860306    22.822782            0            0            0    14008.692    14475.509    10998.943    12821.925   -614.92737    1948.1412   -487.98827 
   77500    256.23013   -313.57313   -250.01519   -313.57313            0    6618.2263     24.82646    24.810931    22.933863            0            0            0    14126.517    6626.9516    4411.8094    8815.9178    322.37583   -2696.0051   -1611.3268 
   78000     261.0544   -309.12403   -244.36943   -309.12403            0    9407.3014    24.870102    24.694527    22.825413            0            0            0     14018.35    9352.3248    9016.7552    9852.8241   -333.66128    1758.8951   -1365.8516 
   78500    262.56298    -314.5677   -249.43889    -314.5677            0    9233.2175    24.932116     24.78426     22.78584            0            0            0    14079.918    6012.8839    11062.029     10624.74   -36.037614    664.10536   -833.62788 
   79000    250.66746   -312.15303   -249.97491   -312.15303            0    12251.809    24.690172    24.904014    22.791875            0            0            0    14014.369     13121.37    10744.639    12889.419    -365.5128   -159.48387   -974.15699 
   79500    254.90072      -311.68   -248.45182      -311.68            0    8981.1236    24.609072    24.944903    22.994939            0            0            0    14115.924    9172.4409     10459.44      7311.49    2.8830605   -127.83691   -89.356389 
   80000    255.95337   -311.00691   -247.51762   -311.00691            0    11162.784    24.851847    24.593817     23.00585            0            0            0    14061.216    11002.919    11343.172    11142.262    1055.9035   -2313.0684   -1081.5916 
   80500     246.4871    -310.7611   -249.61992    -310.7611            0    6925.4152    25.015644    24.652217    22.819066            0            0            0    14072.315    4120.7628    8726.9827    7928.5001    648.17071   -602.87555    695.55445 
   81000    254.55006    -311.4095    -248.2683    -311.4095            0    10481.771    24.761041     25.00102    22.723195            0            0            0    14066.823    7741.9507     11763.47    11939.893    1084.3933   -1193.3294   -1339.3788 
   81500    256.64769   -313.97297   -250.31145   -313.97297            0    7315.7008     24.68621    24.939443    22.826018            0            0            0    14053.074    8235.2815    6192.1841    7519.6368    -112.7212    177.62748    1407.4522 
   82000    257.97007   -312.71829   -248.72876   -312.71829            0    9508.6137    24.843543    24.713681    22.942986            0            0            0    14086.429    9841.7418    10369.505    8314.5945    885.97628    1540.1497    2253.0917 
   82500    263.04632   -310.58742   -245.33872   -310.58742            0     10953.89     24.88935     24.66281    22.918026            0            0            0    14068.031    8969.3863    14944.069    8948.2153   -360.62887   -1054.4729    838.57055 
   83000    263.23572   -312.70311   -247.40743   -312.70311            0    8175.6216    24.785091    24.961962    22.829229            0            0            0     14124.09    11233.815    6654.4025    6638.6472    759.28226   -319.64007    1740.1542 
   83500    254.55301   -311.22333    -248.0814   -311.22333            0    8342.1655    24.662688    24.956829    22.761727            0            0            0    14009.899    7163.4767    8316.9113    9546.1086    1294.0345    662.17842    944.19193 
   84000    260.69123    -310.0695   -245.40499    -310.0695            0    9519.8038    24.877566    24.780936    22.897079            0            0            0    14115.806    10151.942    8190.5606    10216.908   -1258.4036   -706.73301   -600.19691 
   84500    256.17103    -311.7549   -248.21162    -311.7549            0     9289.316    24.882486    24.659124    22.917733            0            0            0     14061.87    9683.1027    9754.3659    8430.4794   -643.72174    -1561.975    63.979207 
   85000    256.36425   -313.13302   -249.54181   -313.13302            0    7173.1842    24.802656    24.855615     22.82975            0            0            0    14074.204    8114.1067     6319.506    7085.9399    167.03636    563.26336    1025.4886 
   85500    253.07435   -308.80998   -246.03483   -308.80998            0    9034.9428    24.729941    24.891667    22.774628            0            0            0    14019.365    8918.5318    9208.1582    8978.1382   -1217.7316   -2469.6143    939.53162 
   86000    258.24139    -312.1756   -248.11877    -312.1756            0    7951.2239    24.891948    24.792853    22.870618            0            0            0    14114.428    7506.2401    8974.7101    7372.7215   -313.71844   -1123.6792   -268.51444 
   86500    251.47602   -312.02512   -249.64644   -312.02512            0    11446.088    24.802213     24.73854    22.810319            0            0            0     13995.74    9802.4924    12060.836    12474.937    152.52945    -25.13106    320.57215 
   87000    252.50462   -312.24443    -249.6106   -312.24443            0    8880.6588    24.785433    24.847839    22.900688            0            0            0     14103.72    7478.3331    10149.953    9013.6901    276.90337   -3443.0765    -149.1932 
   87500    249.64514   -310.23057   -248.30604   -310.23057            0    10328.107    24.750212      24.8121    22.837951            0            0            0    14024.894    12829.638    7234.4225    10920.262    75.912731   -600.89467    2027.4538 
   88000     260.0205   -311.19104   -246.69289   -311.19104            0    9125.4283    24.904686    24.841716    22.812935            0            0            0    14113.796    8644.6887    12369.187    6362.4094    104.51927   -2799.2248    941.40082 
   88500     256.8704   -312.44112   -248.72436   -312.44112            0     12205.29    24.790183    24.804187    22.755156            0            0            0    13992.153    15069.212    11086.496    10460.162    -75.70361    1180.2615    1612.2931 
   89000    248.59947   -314.98675   -253.32159   -314.98675            0     7379.344    24.778728    24.829599    22.925054            0            0            0    14104.545    10400.477    3758.9687    7978.5869    1346.1869    223.99225     1077.152 
   89500    258.03024   -315.80723   -251.80277   -315.80723            0    10247.175    24.723301    24.700233    22.908408            0            0            0    13989.507    10910.568     11341.58    8489.3771    217.81647    41.318983   -696.10593 
   90000    251.04415    -315.0848   -252.81324    -315.0848            0    9508.3159    24.843582    24.826501     22.78084            0            0            0    14050.749    10952.817     9048.873    8523.2576    81.151259    1059.6872    -617.9559 
   90500    260.43219   -312.46573   -247.86547   -312.46573            0     7796.256    24.852053    24.904954    22.733689            0            0            0    14070.772    8529.1619     7304.578    7555.0281    125.99337   -365.43118    1701.1158 
   91000     255.1828   -312.68726   -249.38911   -312.68726            0    9686.2322    24.744238    24.857997    22.862856            0            0            0    14062.765    8517.9169    11410.932    9129.8475   -958.70795   -681.05035   -899.48119 
   91500    250.05273    -311.9249   -249.89927    -311.9249            0    7383.1436    24.727405    24.743979    22.983464            0            0            0    14062.534    8174.6539    7993.5501    5981.2269     1887.823    189.34282    1195.3762 
   92000    257.40738   -313.10264   -249.25268   -313.10264            0    9418.8824    24.800858    24.716444     22.87419            0            0            0    14021.628    9411.1439    6131.8215    12713.682     1619.336    2079.1069   -445.09746 
   92500     260.6689   -313.59465   -248.93567   -313.59465            0    8056.4077    24.923881    24.915661    22.794639            0            0            0    14155.356    10337.092    5673.1075     8159.023    578.46882    17.297407   -993.25047 
   93000    258.52688   -311.70064   -247.57299   -311.70064            0    11652.317    24.713054    24.877922    22.728706            0            0            0    13973.822     9986.982    11676.731    13293.237   -892.21562    1597.5526   -1739.3644 
   93500     246.3286   -311.71193   -250.61007   -311.71193            0    6515.5804    24.820787    24.863382    22.962156            0            0            0    14170.606    6333.6267    8633.6106     4579.504    133.75417   -634.36898   -296.94754 
   94000    261.22635   -314.20527   -249.40802   -314.20527            0    11364.347    24.794634    24.625534    22.858316            0            0            0    13956.856    10446.872    12673.668    10972.502    1153.1827   -779.96825    2540.8787 
   94500    251.21611   -312.57656   -250.26235   -312.57656            0     5936.817     24.88766    24.863133    22.887568            0            0            0    14162.488    4590.7308    6021.9656    7197.7547   -1147.0551    -1064.019    2074.0285 
   95000    255.46575   -313.57498   -250.20665   -313.57498            0    9287.4094    24.719203    24.816303    22.792778            0            0            0    13981.985    9470.3603    8210.3964    10181.472     -1305.22     528.2838    900.89926 
   95500    248.95964   -310.68811   -248.93361   -310.68811            0    8947.9315    24.826038    24.828284    22.897021            0            0            0    14113.447    7884.3672    9139.2536    9820.1738   -1867.9362     746.8577   -860.17266 
   96000    257.38397   -312.52964   -248.68549   -312.52964            0    9442.5528    24.822515    24.742105    22.890089            0            0            0    14058.206     9707.252    10415.543    8204.8636    439.77488    982.34073    2556.0251 
   96500    252.12974   -311.44458   -248.90374   -311.44458            0    9056.8492     24.81072    24.798374    22.822001            0            0            0     14041.59    6898.9877    10446.508    9825.0522    2164.5727   -113.59467    1305.1841 
   97000    250.17125   -311.03936   -248.98433   -311.03936            0    9411.7126    24.828228    24.829013    22.835734            0            0            0    14077.325    8749.0958    9927.9886    9558.0534    158.58696   -1821.8997    2943.9025 
   97500    250.37309   -311.07622   -248.97112   -311.07622            0    8815.2158    24.771951     24.81628    22.812954            0            0            0     14024.21    7130.5158    8789.9866    10525.145    1532.7334    2042.2537   -2451.8585 
   98000    252.41082   -312.60075   -249.99019   -312.60075            0    8547.5634     24.81755    24.758407    22.894527            0            0            0    14067.382    9128.3417    7560.3855    8953.9629    1689.9888    877.21713    1605.2997 
   98500    248.60657   -312.60995   -250.94303   -312.60995            0    9749.4083    24.792295    24.703772    22.896973            0            0            0    14023.553    8675.8754    10233.045    10339.304    319.06214    1073.1195   -2441.5215 
   99000    255.31145   -312.40325   -249.07319   -312.40325            0    9770.1523    24.770864    24.809063    22.826879            0            0            0    14028.074    12782.942    9496.9491    7030.5659    1137.3927    45.037727   -1457.1301 
   99500    264.02413    -311.2812   -245.78995    -311.2812            0    6974.5992    24.814411    24.889505    22.792258            0            0            0    14076.918    4672.9141     10039.39    6211.4937   -99.663842    867.87462   -1570.4868 
  100000    255.54585   -311.60247   -248.21427   -311.60247            0    10219.867    24.864902    24.765924    22.811673            0            0            0     14047.48    11223.739    10311.337    9124.5241    601.00537    228.79993   -2184.3428 
  100500    256.02959   -312.13047   -248.62227   -312.13047            0    9838.7507    24.839813    24.714323    22.944333            0            0            0    14085.507    8812.6967    11868.891    8834.6647   -1706.2705    480.36053    531.16638 
  101000    258.74735    -312.8502   -248.66786    -312.8502            0    10624.591    24.638819    24.775582    22.937242            0            0            0    14001.835     11087.51    9795.0999    10991.163    910.75804   -5.9094644    13.135632 
  101500    253.12216   -311.74154   -248.95453   -311.74154            0    7173.1385    24.808464     24.88668    22.853439            0            0            0     14109.72    10278.704    5603.4498    5637.2614    230.00723   -2067.5926    700.81452 
  102000    260.36532   -311.58771   -247.00403   -311.58771            0    10388.262    24.888504    24.757131    22.641831            0            0            0    13951.171    9935.7531    12156.286    9072.7471    1459.0732   -1539.9859   -696.04329 
  102500    250.31237   -312.70873   -250.61869   -312.70873            0    4731.0776     24.94891    24.860137    22.815271            0            0            0    14150.791    4231.5099    5290.2582    4671.4647     2055.416    -2005.493    1885.6632 
  103000    248.80675   -311.36526   -249.64869   -311.36526            0    10849.804    24.594352    24.794535     22.90028            0            0            0    13964.717    9682.5642     12785.93    10080.918   -658.31403    774.14263    19.967303 
  103500    244.56145   -311.02988   -250.36636   -311.02988            0    10001.099    24.727875    24.834168    22.986904            0            0            0    14116.171    13294.631    8497.4311    8211.2351    2278.6945    1124.0203    586.30325 
  104000    251.14355   -310.18019   -247.88398   -310.18019            0    10791.478    24.922359    24.689307    22.788801            0            0            0    14022.309    9100.1831    11941.739    11332.511   -1245.7795    1441.3764    1025.5933 
  104500    245.62866   -311.07033   -250.14209   -311.07033            0    8094.4669    24.928124    24.807944    22.775736            0            0            0    14084.868    7833.9275    8734.1919    7715.2814    586.30498    721.10489   -826.92534 
  105000    257.47128   -310.37147   -246.50566   -310.37147            0    8453.4231    24.731909    24.884704    22.822573            0            0            0    14046.067    6222.7974    10151.777     8985.695   -1657.9651    369.33182    1134.9649 
  105500    260.86863    -310.1548   -245.44628    -310.1548            0    7772.5119    24.795375    24.808928     22.89771            0            0            0     14085.45    10019.442    5545.0573    7753.0366   -198.53082   -905.02492    1629.4304 
  106000    252.39191   -310.77855   -248.17268   -310.77855            0    11921.264    24.894323     24.70214    22.925301            0            0            0    14097.755    11542.437    11216.719    13004.636    816.36307   -473.87401    1820.3573 
  106500    255.27849   -310.20796   -246.88608   -310.20796            0    7851.4116    24.829622    24.785624    22.825283            0            0            0    14047.083     7845.936     5463.752    10244.547    1065.7593   -645.04824    2289.3589 
  107000     248.7431   -310.03622   -248.33544   -310.03622            0    10104.992    24.792979    24.935088    22.795901            0            0            0    14092.771    10970.985    8853.6432    10490.348   -1483.1351   -26.853942    1857.6787 
  107500    258.27421   -309.74946   -245.68449   -309.74946            0    9008.5078    24.760873    24.774261    22.841174            0            0            0    14011.515     9756.355    7737.6508    9531.5174    122.57756   -1644.9709   -342.19474 
  108000    251.24105   -309.37127   -247.05087   -309.37127            0    9367.0594    24.893608    24.677862     23.00798            0            0            0    14134.285    7507.7637    10298.228    10295.186    1149.1238   -1439.4716    2471.0014 
  108500     257.2391   -311.36895   -247.56073   -311.36895            0    7455.6335    24.793089    24.700944    22.902887            0            0            0    14026.019    7615.2165    10445.585    4306.0989   -1828.8264    194.26821    -177.4703 
  109000    254.83439    -312.4606   -249.24887    -312.4606            0    8432.4584    24.810936    24.979032    22.791476            0            0            0    14125.089    10338.902    5616.1888    9342.2847    1592.3006   -558.57505    687.03269 
  109500     254.9952    -311.4103   -248.15868    -311.4103            0     7452.563    24.895921    24.816976    22.679853            0            0            0    14012.554    2764.0778    9925.5388    9668.0723    637.88262   -947.50469   -812.32979 
  110000    249.91045   -310.15887   -248.16853   -310.15887            0    8639.9026    24.825901    24.730691    22.908562            0            0            0    14064.979    10102.938    7199.4071    8617.3626   -1158.9573    1608.1025    1751.6369 
  110500    247.73284   -311.67752   -250.22734   -311.67752            0     10200.31    24.726788    24.745695    22.985621            0            0            0    14064.478    7244.3544    13378.266    9978.3115   -383.43264   -314.23674   -1378.5977 
  111000    259.23217   -313.49208   -249.18949   -313.49208            0    9814.4873    24.731051    24.791675     22.86573            0            0            0    14019.532    12283.965    8198.1209    8961.3763   -1561.7251    2251.7366    692.66409 
  111500    250.53343   -310.80982   -248.66495   -310.80982            0    9582.3942    24.882124    24.845522    22.748487            0            0            0    14063.328    8097.0979    9356.4194    11293.665    667.62679    802.21675    -156.5265 
  112000    253.70158   -312.31659   -249.38586   -312.31659            0    11191.458    24.843722    24.838483    22.783997            0            0            0    14059.557    10704.573    12171.091    10698.709   -344.44186   -2231.8416   -120.15355 
  112500    247.27421   -311.13236   -249.79594   -311.13236            0     7304.594    24.733722    24.726582    22.901648            0            0            0    14006.199    9102.1427    6094.1266    6717.5126   -1614.5874    823.79858    2401.4578 
  113000    256.55114   -313.38426   -249.74669   -313.38426            0    9558.0193    24.717037     24.78322    22.943245            0            0            0    14054.292     9301.861    9953.3107     9418.886    -1230.299   -484.24935    1894.7049 
  113500    256.97689   -311.64574   -247.90257   -311.64574            0    9419.3252    24.844989    24.842432    22.812829            0            0            0    14080.306    7572.6808    10278.609    10406.686    2095.0046    1197.5758    318.46725 
  114000    253.86625   -312.28267   -249.31109   -312.28267            0    9014.2786    24.856297    24.811179    22.677754            0            0            0    13985.689    9939.3851    6511.1359    10592.315   -597.48513   -192.80918   -72.929603 
  114500    253.87078    -310.9088   -247.93609    -310.9088            0    6753.5216    24.889547     24.83918    22.909181            0            0            0    14163.279    2442.5587    8664.4633    9153.5428    2762.7751   -557.20855    1788.1817 
  115000    261.37655   -310.65955   -245.82504   -310.65955            0    10861.722    24.685905    24.654771    22.973147            0            0            0    13982.039    7619.2775    13174.383    11791.505    1258.5064    2388.0312   -2035.5011 
  115500    259.01429   -313.00549   -248.75694   -313.00549            0    7242.7044    24.798671    24.838143    22.924874            0            0            0    14120.644    7922.1277    5110.9438    8695.0416    269.75098   -207.55508   -543.57349 
  116000    256.21028   -314.76867   -251.21565   -314.76867            0    6851.0669    24.818876    24.789342    22.736123            0            0            0    13988.254     5166.335    7936.4904    7450.3752    -2141.569    1404.2679   -1551.5807 
  116500    256.77563   -311.80257   -248.10932   -311.80257            0    9981.1822    24.846594    24.804042    22.835468            0            0            0    14073.407    8974.0577    9237.3843    11732.105    2109.9339   -1818.5768   -10.039688 
  117000     250.0872   -312.68246   -250.64827   -312.68246            0     8714.082    24.770701    24.760604    22.919931            0            0            0    14057.654    9908.6012    8103.2992    8130.3456    1091.6799    1100.3326    550.09044 
  117500    246.71836   -312.05489   -250.85635   -312.05489            0    12073.054    24.790888    24.732679    22.832822            0            0            0    13999.832     10486.03    12633.117    13100.016     1252.956   -945.77851    2058.3084 
  118000    246.09809   -312.30889    -251.2642   -312.30889            0    9403.1926     24.84066     24.85819    22.794565            0            0            0    14075.504    12237.767    6889.1275    9082.6829   -1312.9979    370.06879    2406.3337 
  118500    255.68705     -312.252   -248.82877     -312.252            0    8908.6545    24.762102    24.786832    22.790632            0            0            0    13988.298    6758.5065     10424.49    9542.9666    3879.0975    1431.3534    2381.0103 
  119000    256.33555   -313.08785   -249.50376   -313.08785            0    8387.2291    24.756387    24.788712    22.928982            0            0            0    14071.034    10342.865     6608.259    8210.5636   -82.608055    -1041.428    1072.7387 
  119500    256.86509   -311.99752   -248.28208   -311.99752            0    9527.1628    24.747968    24.716507    22.916025            0            0            0    14017.351    7576.4093    11539.733    9465.3462    1921.3662    103.91501   -275.40415 
  120000    257.05295   -311.83634    -248.0743   -311.83634            0    10012.344    24.843752    24.834399    22.853414            0            0            0    14100.092    10637.428    11374.523    8025.0801   -1434.6531    751.99893   -804.54794 
  120500    261.90499   -313.42369    -248.4581   -313.42369            0     8464.748    24.740792    24.759726    22.778137            0            0            0    13953.323    10729.911    5551.6279    9112.7046    724.40535    945.51343   -342.37111 
  121000    248.78896   -311.24375   -249.53159   -311.24375            0    8185.0673    24.839638    24.861388    22.913676            0            0            0    14150.292     7789.681    6610.0564    10155.464   -801.44042   -747.35661     122.4121 
  121500    255.23564   -312.62521   -249.31395   -312.62521            0    10548.123    24.709844    24.698739    22.814809            0            0            0    13923.923      13675.1    9092.6199    8876.6485   -240.85464   -500.29003   -708.78003 
  122000    248.08574    -310.6793   -249.14158    -310.6793            0    6404.2148    24.901899     24.85172     22.89335            0            0            0    14167.664     7166.214    5038.6476    7007.7829   -192.77103    -395.3428    991.09703 
  122500    255.00643   -309.21671   -245.96231   -309.21671            0    9736.1541     24.73876     24.77674    22.757619            0            0            0    13949.188    9341.5326    10656.145    9210.7851    1524.0847     1122.302    1094.9519 
  123000    250.59259   -312.41034   -250.25079   -312.41034            0    8029.7454     24.86785    24.885428    22.829942            0            0            0    14128.243     8515.108    6296.9593     9277.169   -352.21028   -1197.6592   -488.57086 
  123500    257.60951   -312.28046   -248.38037   -312.28046            0    11924.066     24.78454    24.668544    22.830299            0            0            0    13958.411    12504.422    13759.472    9508.3031   -1747.8227    325.79424    315.41372 
  124000    257.98722   -313.03484   -249.04105   -313.03484            0     10035.07    24.770272    24.781325    22.976691            0            0            0    14104.015    11486.701    9523.8647    9094.6448   -1480.4732    1860.0492   -1437.4043 
  124500    257.92625   -310.68528   -246.70662   -310.68528            0     9920.715    24.748542    24.841849    22.878765            0            0            0    14065.854    10274.588    10766.162     8721.395    669.11238    -1543.077   -1199.5196 
  125000    270.25172   -312.35503   -245.31903   -312.35503            0    9086.7066    24.849086    24.762348    22.764553            0            0            0    14007.524    10311.724    10111.832    6836.5628    741.16762   -1606.9752    1249.6442 
  125500    257.58312   -311.71238   -247.81883   -311.71238            0    8985.3739    24.896161    24.816119    22.854886            0            0            0    14120.346    8086.2806    9920.9847    8948.8563   -197.91221    2318.9189    1521.3418 
  126000    259.52126   -311.29339   -246.91909   -311.29339            0    11963.733    24.736865     24.76169     22.82722            0            0            0    13982.279    14188.473    12383.788    9318.9392    1625.0638    704.91031    2635.4421 
  126500    248.56045   -311.94479   -250.28931   -311.94479            0    8861.1137    24.773768    24.813915    22.920016            0            0            0    14089.717    6974.9655    9168.5875    10439.788    153.24377   -1555.0672    1161.8214 
  127000    254.92672   -311.35885   -248.12422   -311.35885            0    9793.8231    24.765327    24.749699    22.835351            0            0            0    13996.572    9372.4443     10198.75    9810.2749   -1336.1693    -1003.359    -248.4269 
  127500    258.68059   -313.17101   -249.00523   -313.17101            0     11134.92    24.895601    24.840561    22.768842            0            0            0    14080.723      8591.73    11516.241    13296.788   -1094.3758    2460.5953    37.332854 
  128000     260.0146   -313.23067     -248.734   -313.23067            0    5839.6526    24.758929    24.801002    22.770864            0            0            0    13982.363     8176.133    5386.2622    3956.5625   -1426.1519   -90.043705    1059.0027 
  128500    252.26837    -311.1641   -248.58887    -311.1641            0    8754.8226    24.822316    24.784564    22.959966            0            0            0    14125.207    7666.3919    9321.5617    9276.5143   -491.10768   -1094.0801    378.16345 
  129000     253.3141   -310.45697   -247.62235   -310.45697            0    11202.883    24.721137    24.676853    22.896949            0            0            0    13968.052    12807.458    10609.636    10191.553    280.83984   -2313.8457    702.34647 
  129500    256.20026   -311.37645   -247.82592   -311.37645            0    7164.3305    24.857032    24.867774    22.857529            0            0            0    14129.131    6429.7001    8090.3359    6972.9555    1049.0791   -150.00693    738.43343 
  130000    257.14086   -312.21002   -248.42617   -312.21002            0    10413.372     24.85931     24.85668    22.711688            0            0            0    14034.005     9311.792    10041.712     11886.61   -1380.5151   -539.31035   -1316.2297 
  130500    256.91074   -311.54056   -247.81379   -311.54056            0    7815.4247    24.827437    24.800002    22.840311            0            0            0    14063.248    5846.8929    9692.0256    7907.3557    569.39667   -758.07242     1103.631 
  131000    251.42501   -313.94201   -251.57598   -313.94201            0    5108.6886    24.788145    24.754972    22.980762            0            0            0    14101.681    1967.2225    9990.2405    3368.6028    524.18257    632.89085   -519.77131 
  131500    248.22226   -313.14022   -251.56864   -313.14022            0    9897.8918    24.694952    24.770547    22.839268            0            0            0    13970.951    10495.607    9119.6237    10078.445   -512.89811   -2111.6749   -774.03686 
  132000    248.57817   -311.52337    -249.8635   -311.52337            0    7542.1823    24.838776    24.909263    22.801434            0            0            0    14107.603    6192.2081    7476.2053    8958.1335    510.57394   -1381.2109   -220.03221 
  132500    262.79075   -311.59972   -246.41441   -311.59972            0    8907.5256    24.840001    24.755724    22.773274            0            0            0     14004.02    6973.2197    9369.4961    10379.861   -771.65351    2220.2766   -804.78921 
  133000    255.25652   -310.08834    -246.7719   -310.08834            0    9295.1855    24.882873    24.793631    22.911286            0            0            0    14134.815    7826.6256    8938.4985    11120.433     41.64982   -593.45629   -258.36826 
  133500    257.08521   -312.89678   -249.12674   -312.89678            0    9605.1068    24.691544    24.801574    22.864144            0            0            0    14001.754    9258.3584    12646.359     6910.603    128.69848   -131.96217   -2351.3602 
  134000    251.29192   -312.89369   -250.56067   -312.89369            0    11447.778    24.790036    24.856825    22.805981            0            0            0    14053.082    12609.956    10047.674    11685.706   -1468.7276    1286.0285    393.13944 
  134500    253.05229   -310.12292   -247.35324   -310.12292            0    9129.0514    24.888962    24.765208    22.754537            0            0            0    14025.449    8815.0866    7890.4673      10681.6   -1199.7394    1020.7914    1250.0209 
  135000     255.6221   -314.70564   -251.29852   -314.70564            0     6903.847    24.852519    24.736371    22.851204            0            0            0    14048.032    5864.8949    6948.3889    7898.2572     536.9885    1471.2485    38.388145 
  135500    259.10233    -313.6706   -249.40021    -313.6706            0    9467.9573    24.713783    24.817679    22.879329            0            0            0    14032.778    8374.5075    8739.8987    11289.466   -385.80791   -1388.4427   -1337.5534 
  136000    253.19514   -311.25936   -248.45425   -311.25936            0    7185.0624    24.736999    24.857336    22.865497            0            0            0      14059.9    5372.6968    8999.4974    7182.9931    958.73827     2333.026   -2413.1381 
  136500    250.41524   -310.38686   -248.27131   -310.38686            0    6496.1396    24.892846    24.753218    22.729036            0            0            0    14005.132    5079.0621    6915.1657     7494.191   -155.20836   -338.05891   -1316.0935 
  137000    256.52445   -311.48233   -247.85138   -311.48233            0    10667.938    24.937224    24.753105    22.832259            0            0            0    14093.754    10226.392     10947.33    10830.093     1886.941    1092.3585   -327.01594 
  137500    261.61413   -310.55906   -245.66562   -310.55906            0    10495.631    24.629737    24.828039    22.972803            0            0            0    14048.055    11927.897    11987.529    7571.4673   -658.42302    1414.4361   -1292.4425 
  138000    258.81769   -311.56271   -247.36293   -311.56271            0    7873.5483    24.675257    24.869314    22.960843            0            0            0    14090.075    10504.533    6372.7624    6743.3497    844.28014    400.19042    646.62618 
  138500    257.61861   -312.41502   -248.51267   -312.41502            0     9652.477    24.971788    24.662379    22.779183            0            0            0    14028.872    8414.5274    8969.8743    11573.029   -746.78873   -704.01897    1483.0819 
  139000    243.49303   -313.55625   -253.15775   -313.55625            0    10437.658    24.926221    24.773213    22.718401            0            0            0    14028.672    7964.5801    10845.736    12502.659    1293.2204    428.74193   -624.65471 
  139500    255.06462   -311.77955   -248.51072   -311.77955            0    8306.7421    24.653408     24.91348    22.846612            0            0            0    14032.439    7791.8515    6333.9132    10794.462    599.05197    27.471256    1642.7622 
  140000    253.51586   -310.00021   -247.11555   -310.00021            0    7720.2139    24.733677    24.786964    22.967007            0            0            0    14080.446    6618.8487    8467.8819     8073.911    578.81293   -646.41275   -666.32026 
  140500    259.08865   -310.39232   -246.12532   -310.39232            0    8172.3536    24.809763    24.708786    22.906518            0            0            0    14042.134    7937.7492    9817.3283    6761.9832    565.33268    287.80789   -402.29576 
  141000     257.6167   -313.14612   -249.24424   -313.14612            0    9563.9697    24.821613    24.817912    22.877111            0            0            0    14092.772    5393.0463    11673.954    11624.909   -552.92398     1638.446   -543.14342 
  141500    250.03719   -311.07418    -249.0524   -311.07418            0    8996.2995    24.704657    24.811505    22.853908            0            0            0    14008.525    9637.4715    7225.5009    10125.926   -453.89259    1365.4849   -100.31191 
  142000    256.02074   -312.34586   -248.83986   -312.34586            0    7281.1715    24.839237    24.807961    22.911345            0            0            0    14118.218    7723.7765    5794.1054    8325.6326   -1738.4216    1025.9305    741.77557 
  142500    259.24506   -310.52741   -246.22161   -310.52741            0    9518.9994    24.877699    24.691315    22.787778            0            0            0    13997.691    7144.5565    12684.186     8728.256   -38.319207    -1068.525    2384.0881 
  143000    258.78793   -312.82716   -248.63476   -312.82716            0     4953.714    24.861177      24.8982    22.841246            0            0            0    14138.698    5607.8481    2084.2254    7169.0686   -205.13008    262.13337    545.18823 
  143500    253.60825   -310.19448    -247.2869   -310.19448            0    11546.419    24.645958    24.867335    22.866808            0            0            0    14014.593    12293.838     11325.51     11019.91    156.81858    1076.1213    1266.9096 
  144000    257.47537   -311.88962    -248.0228   -311.88962            0     10717.86    24.802516    24.795694    22.955289            0            0            0    14117.401    13680.099     9463.217    9010.2628   -1353.5834     1063.512   -1551.8446 
  144500    249.76964   -308.90607   -246.95066   -308.90607            0    8861.9777    24.874464    24.702265    22.892807            0            0            0    14066.614     9136.836     8243.838     9205.259    1610.2358    1023.5645    566.48965 
  145000    259.78181   -312.88681   -248.44788   -312.88681            0    9171.5721    24.842273    24.851537    22.797025            0            0            0    14074.169    9278.9006      8858.99    9376.8255   -696.35744   -2503.9258   -860.59688 
  145500    254.82588   -311.42921    -248.2196   -311.42921            0    12227.106    24.744681    24.955096    22.769098            0            0            0    14060.052    12190.001    10313.359    14177.958     2476.565   -2222.9748   -892.35783 
  146000    253.19036   -312.10241   -249.29849   -312.10241            0      8235.44    24.805749    24.721739    22.891585            0            0            0    14038.064     7455.936    9416.2591    7834.1249   -96.522489   -549.64674    1872.4634 
  146500    256.23729   -313.53305   -249.97333   -313.53305            0    10285.142    24.842625    24.620358    22.963511            0            0            0    14045.271    8065.5744    13889.408    8900.4424     650.4617   -1135.7616    1041.3899 
[...]
  365000    256.08702   -310.61703   -247.09459   -310.61703            0    9294.7608    24.770287    24.715706    22.819514            0            0            0    13970.452    9933.5457    8917.7713    9032.9652   -79.481459    882.04574   -1102.9243 
  365500    265.90594   -313.93776   -247.97973   -313.93776            0     9543.539    24.815577    24.868746    22.906214            0            0            0    14136.165    7676.9123    11682.347    9271.3576    -2492.925    1270.6599     117.6399 
  366000    258.36693   -309.73177    -245.6438   -309.73177            0    10723.829    24.749929    24.863639    22.804044            0            0            0    14032.999    10530.661    8385.3883    13255.437    537.47627     464.3933   -539.29791 
  366500    256.34646   -311.67912   -248.09232   -311.67912            0    8129.0202      24.8545    24.820316    22.843508            0            0            0    14092.081    8842.0526    8155.8376    7389.1703   -149.03025     2334.476   -780.09046 
  367000    248.07998   -310.95203   -249.41574   -310.95203            0    8180.4158    24.830877    24.755449    22.849789            0            0            0    14045.754    9268.2188    8544.5954    6728.4331   -151.78271   -3089.2828    881.03049 
  367500    254.95038   -311.62913   -248.38864   -311.62913            0    6732.6059     24.78309    24.765078    22.894969            0            0            0    14051.905    6402.6767    5925.7273    7869.4137    501.08397    3106.1449    -2568.218 
  368000    256.29267   -310.58665    -247.0132   -310.58665            0    10011.943      24.7839    24.815929    22.915527            0            0            0    14093.863    8969.9689    11507.485    9558.3757   -593.84889   -2814.9611   -2630.2486 
  368500    256.19915   -312.22286   -248.67261   -312.22286            0    9794.3341    24.785684    24.762295    22.821779            0            0            0    14006.876    8345.3381    9860.5595    11177.105    1679.0142     283.5047   -726.16051 
  369000    256.40587   -311.43801   -247.83647   -311.43801            0    6122.3761    24.974228    24.781303    22.872043            0            0            0    14155.368    5533.0402    5556.4542    7277.6338    1052.9119   -2190.7351    2394.0704 
  369500    264.41046   -312.91318   -247.32611   -312.91318            0    11744.162    24.750676    24.780519    22.807465            0            0            0    13988.607     8786.128    14603.819    11842.538   -1662.2259    2149.9987    1238.2935 
  370000    255.33297   -311.35396   -248.01857   -311.35396            0    7939.1536    24.697919    25.000063    22.921703            0            0            0    14152.995    10428.701    5402.6269    7986.1327   -68.905651    115.92233    1334.2328 
  370500    251.54119   -312.57308   -250.17824   -312.57308            0    11542.455    24.852593    24.674934    22.818516            0            0            0    13993.137      9304.69    12038.233    13284.442   -1370.0798   -640.66389     497.1656 
  371000    244.40046   -312.56191   -251.93832   -312.56191            0    9120.5639    25.003838    24.666305    22.860489            0            0            0    14099.259    8097.2146    8010.5083    11253.969    289.82324   -513.27985    798.11368 
  371500    257.17614   -312.91327   -249.12067   -312.91327            0    10251.467    24.718666    24.891809      22.8397            0            0            0    14053.092    11189.477    9069.9346     10494.99    770.38789   -296.32129   -1119.7879 
  372000    254.83825   -310.78622   -247.57353   -310.78622            0    6798.8246     24.69131     24.91732    22.885435            0            0            0    14080.064    8259.1612    6260.6545    5876.6583   -1268.7451   -2202.5672    2234.7186 
  372500    248.14915   -311.39854   -249.84508   -311.39854            0    8307.0271    24.858901    24.719563    22.871149            0            0            0    14054.348    4719.5073    11652.132     8549.442    -601.8843    682.43203    1746.9285 
  373000    240.11644   -312.72535   -253.16441   -312.72535            0     10274.44    24.814575    24.720487    22.829388            0            0            0    14004.195    10973.621    10522.779    9326.9194    688.47595   -18.338999   -1638.6149 
  373500    251.17352   -310.81068   -248.50703   -310.81068            0    8701.4811    24.786249     24.82518    22.819894            0            0            0    14041.608    9327.3634    8560.0862    8216.9937    1209.7083    146.78255   -1752.3463 
  374000    255.17036   -312.02405   -248.72899   -312.02405            0     10288.77    24.790146    24.850835    22.817303            0            0            0    14056.733    10551.566    11402.537    8912.2048    2265.9408    155.92929   -410.26064 
  374500    263.52993   -311.10852   -245.73986   -311.10852            0    9695.9558    24.867641     24.81525    22.843501            0            0            0    14096.649    9912.7242    8081.5139    11093.629    849.76158   -1847.3163    1278.5702 
  375000    263.30669   -312.60786   -247.29458   -312.60786            0    10886.241    24.798837    24.828321    22.795993            0            0            0      14035.8    11617.424    9924.3862    11116.912    -2217.627    133.09996   -42.563261 
  375500    253.21754   -311.22008   -248.40941   -311.22008            0     9615.618    24.786824    24.835874    22.831623            0            0            0    14055.202    10017.932    10793.011    8035.9118   -1342.6456      1926.83   -3116.4911 
  376000    252.23234   -309.30609    -246.7398   -309.30609            0    8110.8674    24.806558    24.783163    22.880256            0            0            0    14066.438    8705.1262    10073.896    5553.5804    382.66277    2477.3406   -835.47682 
  376500    248.58948   -310.10124   -248.43856   -310.10124            0    7919.1638    24.778588    24.784071    22.892908            0            0            0    14058.862    8960.0504    8034.7562    6762.6847   -1809.9846    1442.3444    1843.2395 
  377000    249.73782   -312.84659   -250.89907   -312.84659            0    8977.9706    24.741598    24.824857    22.856724            0            0            0    14038.752    10839.929    8037.0773    8056.9059   -1487.5076   -503.80623    338.98205 
  377500    251.41956   -313.26179   -250.89711   -313.26179            0    8899.3665    24.871172    24.782771    22.788675            0            0            0    14046.405     7419.604    10725.889    8552.6061    3198.0557   -215.01129   -526.56772 
  378000    253.24485   -311.28279   -248.46535   -311.28279            0    10451.873    24.925018    24.793441    22.774202            0            0            0    14073.932    10840.938    9812.3185    10702.362    114.84568     1131.375    111.72446 
  378500    251.72437   -311.20193   -248.76164   -311.20193            0    10502.684    24.729562    24.823443    22.818443            0            0            0    14007.623    12251.715    10926.469    8329.8671    -515.6785   -753.76143    189.62234 
  379000    249.01199   -310.85043   -249.08295   -310.85043            0    8583.9656    24.682706     24.87339    22.991198            0            0            0    14115.275     9004.562    11270.243     5477.092   -689.13697   -972.31301    614.42125 
  379500    251.87684   -312.40615   -249.92804   -312.40615            0    10611.404    24.763436    24.707479     22.87182            0            0            0    13993.941    9267.9424    13654.096     8912.175    1332.7679   -670.57199    701.76239 
  380000    251.66855   -314.99231   -252.56587   -314.99231            0     8277.515    24.956124    24.810391    22.777245            0            0            0    14103.014    8268.6816    6609.6832    9954.1802    538.57689    1202.9408    633.10182 
  380500     256.2472   -311.34551   -247.78334   -311.34551            0    11938.465    24.801297    24.769262    22.743236            0            0            0    13971.393    10298.409    13107.169    12409.816    1609.7243   -1500.2214     -740.757 
  381000    251.02594   -311.04111   -248.77407   -311.04111            0    9560.8421      24.7722    24.867219    22.980718            0            0            0    14156.483    11635.272     7992.358     9054.896    418.76446   -205.22279   -945.67266 
  381500    261.33135    -309.1784    -244.3551    -309.1784            0    9646.4981    24.747083    24.715071    22.960529            0            0            0    14043.254    10657.195    12565.411    5716.8887   -509.93619   -401.48917   -801.59687 
  382000    259.43162   -312.99272   -248.64065   -312.99272            0    8257.7556    24.872045    24.810568    22.826288            0            0            0    14085.864    10553.836    7157.9115    7061.5192   -397.54378   -134.67067    1598.4257 
  382500    263.26087   -310.28629   -244.98438   -310.28629            0    7731.1022    24.881202    24.883935    22.741132            0            0            0    14079.994    5803.9106    9021.0899    8368.3061    246.95258    602.19345   -1498.7662 
  383000     259.9501   -309.60155   -245.12087   -309.60155            0    8881.3492    24.756862    24.822319    22.903842            0            0            0    14074.931    8455.2212    8985.5467    9203.2797       1860.4    1010.0785   -1222.3818 
  383500    263.50654   -310.88093   -245.51808   -310.88093            0     8923.621    24.735435    24.735577    23.073267            0            0            0    14117.269    7369.7916    9674.9681    9726.1033    854.71471    341.00735    1935.6431 
  384000    252.40246   -313.01483   -250.40635   -313.01483            0    8529.7264    24.771479    24.714778    22.876269            0            0            0    14005.346    8147.0819    7596.2139    9845.8833   -48.176152   -90.974651   -939.44534 
  384500    250.87476   -312.63624    -250.4067   -312.63624            0    8790.9331    24.897724    24.911002     22.72525            0            0            0     14094.82     9614.907    6777.3957    9980.4968   -1268.3058    1121.7027   -543.60058 
  385000    247.41608   -312.20745   -250.83584   -312.20745            0    7778.3049    24.786858     24.86548    22.664294            0            0            0    13968.846    5538.3983    8057.7267    9738.7897     1256.517    434.77294    1440.2981 
  385500    251.44519   -312.93264   -250.56161   -312.93264            0     8828.852     24.76925    24.753619    23.030038            0            0            0    14120.374    9023.5851    9925.6396    7537.3313    849.68344   -1508.5821    2227.0763 
  386000    256.33458     -310.237   -246.65316     -310.237            0     10201.19    24.688238    24.626877    23.077339            0            0            0    14030.888    10109.747    12006.663    8487.1588    357.90675   -2981.5299    1536.5571 
  386500    256.21122   -311.72172   -248.16848   -311.72172            0    8675.2341    24.842165    24.796715    22.901231            0            0            0    14107.252    6853.2029    9677.3405    9495.1589    428.61735   -103.09388   -3795.6855 
  387000    251.29306   -310.49541   -248.16211   -310.49541            0    9377.6154    24.855011    24.882816      22.6502            0            0            0    14008.303    10971.608    7113.0271    10048.211   -664.82505   -409.23011    407.72501 
  387500    252.61254   -312.65435   -249.99376   -312.65435            0    9986.6762    24.828897    24.850209    22.774617            0            0            0    14052.014    8797.2023    8681.4131    12481.413   -1041.1175    58.660396   -61.819429 
  388000    246.46395   -312.15326   -251.01782   -312.15326            0    6390.9252    24.742742    24.724256    22.932186            0            0            0     14028.67    7125.1945    8886.0092    3161.5718   -39.953362    2668.1849   -90.662803 
  388500    252.02718   -314.58234   -252.06694   -314.58234            0        11419    24.726055    24.766479    22.910505            0            0            0    14029.873    11155.209    9719.9536    13381.837    2382.3362     149.3609   -1462.7981 
  389000    246.22191   -312.32807   -251.25267   -312.32807            0    11024.065    24.770255    24.844766    22.796168            0            0            0    14029.016    8266.4952    11842.651    12963.048   -254.37782    -649.0529   -833.78697 
  389500    246.47828   -313.33341   -252.19442   -313.33341            0    11680.156    24.824902    24.829068    22.742259            0            0            0    14017.855    11335.525     10996.96    12707.982   -165.07658   -1222.5953   -471.43283 
  390000    246.39248   -314.72447   -253.60676   -314.72447            0    10504.286    24.846962    24.761935    22.796577            0            0            0    14025.796    10481.007    8833.3454    12198.505   -136.05612    1035.0554    1569.6234 
  390500    253.10964   -311.10756   -248.32366   -311.10756            0    6253.7614    24.742228    24.769102    22.940894            0            0            0    14059.161    6715.3183    6696.7213    5349.2445     -2312.85   -146.35008    -56.43265 
  391000    262.06605   -312.75306   -247.74751   -312.75306            0    9416.5317    24.736741    24.807928    22.935044            0            0            0    14074.486    10332.377    6776.6872    11140.531   -1283.5219   -2498.1791   -277.67776 
  391500    253.33251   -310.42142   -247.58223   -310.42142            0    8059.2861    24.916504    24.813054    22.700263            0            0            0    14034.541    8072.9134    8093.0586    8011.8863   -1944.7122     -372.925    576.62411 
  392000    248.75484   -312.21815   -250.51446   -312.21815            0    9085.9028    24.954595    24.832976    22.699362            0            0            0    14066.723    4352.7494    10875.395    12029.565    266.91614   -1142.5959    1441.4314 
  392500    253.10682   -310.99804   -248.21484   -310.99804            0    10231.014    24.675925    24.790886    22.878456            0            0            0    13995.622    11661.481    10743.533    8288.0266   -444.16893   -1750.4546    1935.7291 
  393000    252.54457     -310.876   -248.23226     -310.876            0    6871.0592    24.684934    24.822554    23.052167            0            0            0    14125.056    6218.4249    8600.4073    5794.3455   -2241.1432    296.47203    1412.5784 
  393500    256.81959   -312.06952   -248.36536   -312.06952            0    8745.5764    24.843196    24.745619    22.805773            0            0            0    14020.083    7535.6036    8372.1843    10328.941    183.03122    1899.4257   -2264.6429 
  394000    251.62537   -312.71737   -250.30165   -312.71737            0    7303.2347    24.937327    24.843947    22.685693            0            0            0    14054.731     6067.242    7820.6507    8021.8115   -3195.9163   -312.96509   -711.28764 
  394500    255.18322   -311.14137   -247.84312   -311.14137            0    9325.2932    24.776945    24.823947    22.820926            0            0            0    14036.275    7862.5023    10129.642    9983.7355    1080.0512    -588.4003    787.06677 
  395000    251.38893   -311.74275   -249.38567   -311.74275            0    7537.5202    24.716027    24.768516    22.975175            0            0            0    14064.927    9605.9237    6823.7588    6182.8782   -228.73216    166.24676   -420.23568 
  395500    252.81625   -313.35448   -250.64336   -313.35448            0    8501.7374    24.776081    24.793087     22.86676            0            0            0    14046.491    10266.325    7702.4075    7536.4796    156.37569    1864.7001   -1449.9959 
  396000    252.31293   -313.04035   -250.45408   -313.04035            0    8744.5395     24.86006    24.839187    22.764501            0            0            0    14057.163    9517.4843    8822.6227    7893.5116   -1862.8489    829.15307   -657.34819 
  396500    262.14633   -311.30576   -246.28031   -311.30576            0    10874.137    24.814199    24.822032     22.78603            0            0            0    14034.801    10193.818     9939.115    12489.478    927.56121   -1763.6366     1090.917 
  397000    251.92443   -312.91864   -250.42873   -312.91864            0    9403.1994    24.809327    24.771683    22.879531            0            0            0    14061.046     7264.198    12349.082    8596.3187   -103.47663    1414.9974   -291.89124 
  397500    253.93364   -310.66631   -247.67801   -310.66631            0    9690.8677    24.789417    24.777235    22.884277            0            0            0    14055.825    9767.5849     9568.765    9736.2533    1299.8662    1979.2448     495.8187 
  398000    249.02539   -311.18096   -249.41016   -311.18096            0    9151.0181    24.809668    24.826269    22.822911            0            0            0     14057.35    9717.6125    9891.8622    7843.5795    1245.4209   -742.36778    1790.9629 
  398500    256.25149   -312.25324      -248.69   -312.25324            0    8049.7354    24.821504    24.792276    22.824324            0            0            0    14045.668    6809.3558    8567.8394     8772.011   -857.92843    1160.7711   -1037.7694 
  399000    252.77085   -314.03943   -251.33956   -314.03943            0     8299.444    24.789205    24.759513    22.843659            0            0            0    14020.721    7999.5223    6977.0129    9921.7969   -57.952226   -3092.9419   -334.11379 
  399500     254.5012   -314.82143   -251.69235   -314.82143            0    7723.4723    24.828363    24.777797    22.812046            0            0            0    14033.792    3454.1304    8111.1157    11605.171     457.4692   -1946.3177    -1540.023 
  400000    250.70443   -313.83657   -251.64928   -313.83657            0     9922.678    24.813287     24.80132    22.827281            0            0            0     14047.96    10717.076    9283.0634    9767.8946    463.96769   -1239.3096   -316.18189 
Loop time of 4418.63 on 1 procs for 400000 steps with 1920 atoms

Performance: 3.911 ns/day, 6.137 hours/ns, 90.526 timesteps/s
63.3% CPU use with 1 MPI tasks x 1 OpenMP threads

MPI task timing breakdown:
Section |  min time  |  avg time  |  max time  |%varavg| %total
---------------------------------------------------------------
Pair    | 3787.2     | 3787.2     | 3787.2     |   0.0 | 85.71
Bond    | 0.060125   | 0.060125   | 0.060125   |   0.0 |  0.00
Neigh   | 581.56     | 581.56     | 581.56     |   0.0 | 13.16
Comm    | 15.842     | 15.842     | 15.842     |   0.0 |  0.36
Output  | 2.8659     | 2.8659     | 2.8659     |   0.0 |  0.06
Modify  | 28.795     | 28.795     | 28.795     |   0.0 |  0.65
Other   |            | 2.263      |            |       |  0.05

Nlocal:        1920.00 ave        1920 max        1920 min
Histogram: 1 0 0 0 0 0 0 0 0 0
Nghost:        7268.00 ave        7268 max        7268 min
Histogram: 1 0 0 0 0 0 0 0 0 0
Neighs:         0.00000 ave           0 max           0 min
Histogram: 1 0 0 0 0 0 0 0 0 0
FullNghs:      551382.0 ave      551382 max      551382 min
Histogram: 1 0 0 0 0 0 0 0 0 0

Total # of neighbors = 551382
Ave neighs/atom = 287.17813
Ave special neighs/atom = 0.0000000
Neighbor list builds = 40000
Dangerous builds not checked

unfix		3
unfix		2

write_data	data.final.${pid}
write_data	data.final.0
System init for write_data ...

write_restart   restart.lmp.${pid}
write_restart   restart.lmp.0
System init for write_restart ...
Total wall time: 1:13:42
