LAMMPS data file via MDAnalysis

        2268  atoms
           0  bonds
           0  angles
           0  dihedrals
           0  impropers

           2  atom types
           0  bond types
           0  angle types
           0  dihedral types
           0  improper types

0.000000 47.450699 xlo xhi
0.000000 20.111000 ylo yhi
0.000000 20.458000 zlo zhi


Masses

1 15.999000
2 1.008000

Atoms

1 0 1 -1.179400 11.583746 6.639445 2.619402
2 0 2 0.589700 12.329391 6.650593 3.204121
3 0 2 0.589700 10.949882 7.238840 3.002985
4 0 1 -1.179400 4.484259 16.933020 11.722788
5 0 2 0.589700 4.693640 16.032717 11.964246
6 0 2 0.589700 5.335939 17.353306 11.606965
7 0 1 -1.179400 1.478729 0.466666 5.661360
8 0 2 0.589700 0.529794 0.591714 5.671131
9 0 2 0.589700 1.595892 19.699766 5.685901
10 0 1 -1.179400 3.399364 0.898486 19.612185
11 0 2 0.589700 2.989886 1.445602 0.027426
12 0 2 0.589700 2.783037 0.914151 18.898743
13 0 1 -1.179400 21.099794 13.988880 11.300980
14 0 2 0.589700 20.231569 13.687874 11.561984
15 0 2 0.589700 20.949574 14.451510 10.497768
16 0 1 -1.179400 6.921186 10.851697 3.886310
17 0 2 0.589700 6.862781 9.914717 3.705542
18 0 2 0.589700 6.335792 10.985700 4.612579
19 0 1 -1.179400 0.449966 6.198760 1.958503
20 0 2 0.589700 0.596579 7.129494 2.121566
21 0 2 0.589700 46.967514 6.135588 1.760105
22 0 1 -1.179400 1.193982 18.266180 18.154119
23 0 2 0.589700 1.604009 18.380558 18.989485
24 0 2 0.589700 1.863043 17.833246 17.637562
25 0 1 -1.179400 5.698201 16.235029 18.234768
26 0 2 0.589700 6.192771 15.705306 17.625587
27 0 2 0.589700 5.645506 15.691805 19.000881
28 0 1 -1.179400 1.362314 7.301232 17.793007
29 0 2 0.589700 2.142892 7.559406 17.315432
30 0 2 0.589700 1.528355 6.393914 18.041414
31 0 1 -1.179400 8.424205 6.597192 0.150700
32 0 2 0.589700 9.372510 6.552224 0.269697
33 0 2 0.589700 8.291435 6.392247 19.486607
34 0 1 -1.179400 5.675041 8.766902 18.600563
35 0 2 0.589700 4.822066 9.128711 18.366543
36 0 2 0.589700 5.561365 7.819186 18.534046
37 0 1 -1.179400 18.489784 11.119099 3.248888
38 0 2 0.589700 18.081770 11.399157 2.450565
39 0 2 0.589700 17.909410 11.453480 3.915126
40 0 1 -1.179400 2.131540 14.173806 18.487209
41 0 2 0.589700 1.195795 14.300668 18.639723
42 0 2 0.589700 2.464664 15.051121 18.304495
43 0 1 -1.179400 3.410706 12.980847 11.997355
44 0 2 0.589700 2.540740 13.374269 11.931846
45 0 2 0.589700 3.261375 12.141503 12.421020
46 0 1 -1.179400 1.927174 9.107589 6.771888
47 0 2 0.589700 2.359053 8.645989 7.472167
48 0 2 0.589700 1.743812 8.426631 6.141428
49 0 1 -1.179400 6.845541 18.253960 11.890821
50 0 2 0.589700 7.602418 18.585621 11.420181
51 0 2 0.589700 7.162846 18.142403 12.764014
52 0 1 -1.179400 7.346469 5.732230 9.718588
53 0 2 0.589700 7.118610 5.034232 9.120437
54 0 2 0.589700 6.521460 5.948342 10.142025
55 0 1 -1.179400 15.775193 13.129743 14.814976
56 0 2 0.589700 15.036905 12.549648 14.995871
57 0 2 0.589700 15.462904 14.000813 15.052719
58 0 1 -1.179400 22.918270 12.096161 12.567811
59 0 2 0.589700 23.230898 11.951271 11.697670
60 0 2 0.589700 22.187088 12.705955 12.472584
61 0 1 -1.179400 8.900243 18.586750 6.117728
62 0 2 0.589700 8.305621 18.782528 5.412194
63 0 2 0.589700 8.355514 18.130262 6.742397
64 0 1 -1.179400 18.611328 13.182535 9.281365
65 0 2 0.589700 18.832859 12.425090 9.808902
66 0 2 0.589700 19.307907 13.221073 8.642783
67 0 1 -1.179400 14.148820 13.323662 18.000719
68 0 2 0.589700 13.833363 12.436752 17.832838
69 0 2 0.589700 13.354081 13.836829 18.142368
70 0 1 -1.179400 20.500341 7.989341 2.287500
71 0 2 0.589700 20.863914 8.581118 2.929154
72 0 2 0.589700 19.591599 8.272290 2.188586
73 0 1 -1.179400 10.203015 4.216670 13.336874
74 0 2 0.589700 10.705557 3.780752 14.007394
75 0 2 0.589700 9.734801 3.507997 12.907131
76 0 1 -1.179400 8.636826 19.707943 2.942539
77 0 2 0.589700 9.565362 19.554857 3.112975
78 0 2 0.589700 8.560947 19.659441 2.014004
79 0 1 -1.179400 15.390670 19.147409 5.612426
80 0 2 0.589700 15.020576 18.504868 5.022804
81 0 2 0.589700 14.630289 19.532698 6.036609
82 0 1 -1.179400 8.399276 7.054765 5.921159
83 0 2 0.589700 8.968499 6.755501 6.611941
84 0 2 0.589700 8.147504 6.254196 5.472957
85 0 1 -1.179400 22.785646 1.832150 13.397012
86 0 2 0.589700 22.311138 1.331151 14.043293
87 0 2 0.589700 22.521753 2.739590 13.543819
88 0 1 -1.179400 22.200466 7.196207 10.035932
89 0 2 0.589700 23.117334 7.434044 9.901701
90 0 2 0.589700 21.954626 7.646029 10.823518
91 0 1 -1.179400 21.453449 18.085033 10.268291
92 0 2 0.589700 22.342619 17.786005 10.453514
93 0 2 0.589700 20.925488 17.741713 10.970622
94 0 1 -1.179400 14.394769 11.474333 4.298628
95 0 2 0.589700 14.192505 12.156901 3.675353
96 0 2 0.589700 14.075705 11.823056 5.109621
97 0 1 -1.179400 6.055311 13.648494 9.259385
98 0 2 0.589700 5.430187 13.251349 8.668588
99 0 2 0.589700 6.826432 13.832139 8.736614
100 0 1 -1.179400 11.321066 10.197074 3.974261
101 0 2 0.589700 10.861736 9.377133 3.798373
102 0 2 0.589700 11.759568 10.047274 4.790352
103 0 1 -1.179400 6.820887 4.639573 12.468991
104 0 2 0.589700 6.770111 4.714843 13.397457
105 0 2 0.589700 7.592098 5.152852 12.234610
106 0 1 -1.179400 5.618550 1.069352 6.118253
107 0 2 0.589700 4.701068 1.295682 5.969857
108 0 2 0.589700 5.722210 1.114194 7.044412
109 0 1 -1.179400 23.414932 2.229853 20.028746
110 0 2 0.589700 23.209755 3.137486 19.811102
111 0 2 0.589700 24.291073 2.269172 0.164687
112 0 1 -1.179400 24.706041 0.957279 2.853148
113 0 2 0.589700 24.545574 1.888442 2.705519
114 0 2 0.589700 25.362226 0.937020 3.531892
115 0 1 -1.179400 25.720758 4.137428 5.213418
116 0 2 0.589700 25.530914 5.019145 5.525134
117 0 2 0.589700 25.480343 3.562008 5.920861
118 0 1 -1.179400 18.875425 18.823938 4.141302
119 0 2 0.589700 19.737423 18.410591 4.095232
120 0 2 0.589700 19.003775 19.690859 3.766697
121 0 1 -1.179400 24.568062 5.668906 1.321975
122 0 2 0.589700 24.366993 4.950826 1.906510
123 0 2 0.589700 24.328163 6.459325 1.792892
124 0 1 -1.179400 24.035900 3.637531 3.051081
125 0 2 0.589700 23.170958 3.823096 3.407286
126 0 2 0.589700 24.649654 3.970733 3.688872
127 0 1 -1.179400 22.615461 15.728472 13.454917
128 0 2 0.589700 22.247452 15.284167 12.710755
129 0 2 0.589700 21.958225 15.610938 14.123233
130 0 1 -1.179400 19.370035 10.328009 19.038185
131 0 2 0.589700 20.078657 10.811616 18.624702
132 0 2 0.589700 18.717442 10.204502 18.366583
133 0 1 -1.179400 15.016898 18.141136 1.847971
134 0 2 0.589700 14.932873 19.068411 1.632562
135 0 2 0.589700 15.067069 17.696468 1.023555
136 0 1 -1.179400 26.562260 0.268663 4.748476
137 0 2 0.589700 26.446856 0.757277 5.542483
138 0 2 0.589700 26.194592 19.587093 4.928168
139 0 1 -1.179400 12.927126 15.335489 1.084719
140 0 2 0.589700 12.325226 14.638809 1.339401
141 0 2 0.589700 12.465575 16.145147 1.296638
142 0 1 -1.179400 26.061293 2.311178 0.364535
143 0 2 0.589700 26.453295 3.086272 -0.027001
144 0 2 0.589700 26.657602 2.083061 1.059408
145 0 1 -1.179400 29.570433 2.285378 20.201704
146 0 2 0.589700 29.266600 1.688111 19.535843
147 0 2 0.589700 29.428883 3.158766 19.846382
148 0 1 -1.179400 31.315201 1.325602 3.187980
149 0 2 0.589700 31.320930 2.242716 2.921759
150 0 2 0.589700 31.261524 0.831957 2.390695
151 0 1 -1.179400 32.749142 4.577369 5.589515
152 0 2 0.589700 32.233906 4.070723 6.201075
153 0 2 0.589700 32.745106 5.468026 5.930576
154 0 1 -1.179400 28.267511 3.922395 3.527549
155 0 2 0.589700 27.688581 3.823508 4.264016
156 0 2 0.589700 27.770517 4.463031 2.929451
157 0 1 -1.179400 31.567198 6.245639 1.343887
158 0 2 0.589700 32.524357 6.241780 1.350935
159 0 2 0.589700 31.319590 5.602403 1.990910
160 0 1 -1.179400 30.942274 4.225167 3.197549
161 0 2 0.589700 31.228256 4.213182 4.087544
162 0 2 0.589700 29.986340 4.235756 3.244267
163 0 1 -1.179400 27.386728 5.723420 1.645788
164 0 2 0.589700 26.572432 5.625763 1.164876
165 0 2 0.589700 27.358870 6.619809 1.971166
166 0 1 -1.179400 29.308811 0.642901 4.832197
167 0 2 0.589700 28.516148 0.368648 4.382872
168 0 2 0.589700 29.902693 0.930050 4.156400
169 0 1 -1.179400 29.170485 5.166212 6.543575
170 0 2 0.589700 29.839163 5.427040 7.160618
171 0 2 0.589700 29.251518 4.214352 6.488959
172 0 1 -1.179400 33.145821 0.656520 5.076058
173 0 2 0.589700 32.794674 19.980871 5.306823
174 0 2 0.589700 32.561047 0.973351 4.405343
175 0 1 -1.179400 27.925385 1.581617 2.090819
176 0 2 0.589700 28.511829 1.827875 1.393858
177 0 2 0.589700 28.043324 2.269570 2.728860
178 0 1 -1.179400 32.396881 2.456789 0.256791
179 0 2 0.589700 31.452133 2.330601 0.171018
180 0 2 0.589700 32.780090 1.850691 19.876842
181 0 1 -1.179400 36.179367 2.316239 20.165443
182 0 2 0.589700 35.698166 2.085513 0.701987
183 0 2 0.589700 37.081165 2.050523 0.102959
184 0 1 -1.179400 37.722458 1.290305 3.392618
185 0 2 0.589700 37.006218 1.077019 3.975384
186 0 2 0.589700 37.715496 0.583061 2.764375
187 0 1 -1.179400 39.196495 4.307625 5.676661
188 0 2 0.589700 38.489323 4.249530 5.050663
189 0 2 0.589700 39.154785 3.479802 6.142767
190 0 1 -1.179400 34.555187 4.145998 3.552046
191 0 2 0.589700 35.468319 4.254589 3.810968
192 0 2 0.589700 34.049232 4.383703 4.309120
193 0 1 -1.179400 37.768726 6.142613 1.691114
194 0 2 0.589700 37.598423 6.728146 2.409907
195 0 2 0.589700 38.720119 6.158180 1.589663
196 0 1 -1.179400 37.492229 4.081620 3.480454
197 0 2 0.589700 37.619583 3.191620 3.161001
198 0 2 0.589700 37.813171 4.644766 2.794280
199 0 1 -1.179400 34.230209 6.260565 1.844267
200 0 2 0.589700 34.712799 5.927019 1.107325
201 0 2 0.589700 34.395958 5.620444 2.518479
202 0 1 -1.179400 35.861614 0.976704 5.384539
203 0 2 0.589700 35.839397 0.214128 5.947575
204 0 2 0.589700 34.989933 1.004393 5.000154
205 0 1 -1.179400 35.795685 5.512667 6.399508
206 0 2 0.589700 36.403412 5.770462 7.074862
207 0 2 0.589700 35.691769 6.300401 5.879722
208 0 1 -1.179400 39.719826 0.444295 4.891967
209 0 2 0.589700 39.026901 0.713642 4.304509
210 0 2 0.589700 39.640633 1.045280 5.613653
211 0 1 -1.179400 34.432064 1.667217 2.060077
212 0 2 0.589700 34.501614 2.426574 2.623585
213 0 2 0.589700 33.568424 1.751475 1.666394
214 0 1 -1.179400 38.976337 2.093462 0.572630
215 0 2 0.589700 39.169102 2.902896 0.111950
216 0 2 0.589700 39.640770 2.053223 1.242850
217 0 1 -1.179400 42.787365 2.732467 0.452038
218 0 2 0.589700 43.696392 2.694856 0.741877
219 0 2 0.589700 42.676525 3.627407 0.139941
220 0 1 -1.179400 44.396259 1.093292 3.539427
221 0 2 0.589700 44.591690 0.512919 2.822730
222 0 2 0.589700 45.084492 0.910351 4.162632
223 0 1 -1.179400 45.999279 4.612502 5.827901
224 0 2 0.589700 46.618191 4.505500 5.124107
225 0 2 0.589700 46.026142 5.547404 6.025192
226 0 1 -1.179400 41.087154 4.412971 3.689872
227 0 2 0.589700 40.588184 4.422740 4.485744
228 0 2 0.589700 41.984627 4.217543 3.952324
229 0 1 -1.179400 44.847740 5.720552 1.917472
230 0 2 0.589700 44.549126 4.942599 2.376078
231 0 2 0.589700 44.255451 5.790171 1.187943
232 0 1 -1.179400 44.058121 3.984580 3.993804
233 0 2 0.589700 44.715786 4.247408 4.621191
234 0 2 0.589700 44.188988 3.042529 3.890823
235 0 1 -1.179400 40.689602 6.042514 1.632993
236 0 2 0.589700 40.939926 5.565000 2.403568
237 0 2 0.589700 41.044113 6.922050 1.758367
238 0 1 -1.179400 42.575428 0.076767 5.391696
239 0 2 0.589700 41.723930 0.212951 4.986869
240 0 2 0.589700 43.212135 0.312131 4.734151
241 0 1 -1.179400 42.774921 4.920928 6.911064
242 0 2 0.589700 43.576431 5.207382 7.337689
243 0 2 0.589700 42.807125 3.965442 6.951838
244 0 1 -1.179400 46.081841 0.473260 5.338600
245 0 2 0.589700 45.851849 1.032514 6.061482
246 0 2 0.589700 45.938515 19.764645 5.648496
247 0 1 -1.179400 40.905678 1.920827 2.345036
248 0 2 0.589700 40.910210 2.723026 2.853529
249 0 2 0.589700 41.554123 2.077305 1.676152
250 0 1 -1.179400 45.487434 2.638452 0.828824
251 0 2 0.589700 45.697838 3.569981 0.769159
252 0 2 0.589700 45.894787 2.249190 0.074901
253 0 1 -1.179400 13.053164 2.183339 2.022363
254 0 2 0.589700 13.869922 1.686404 2.066526
255 0 2 0.589700 13.250139 2.915720 1.453572
256 0 1 -1.179400 17.427498 14.344212 2.917735
257 0 2 0.589700 17.489559 15.278093 2.723399
258 0 2 0.589700 16.559677 14.089174 2.612658
259 0 1 -1.179400 14.765645 18.454647 14.082997
260 0 2 0.589700 15.037560 17.550159 14.233173
261 0 2 0.589700 14.735008 18.536947 13.154260
262 0 1 -1.179400 0.026119 16.000492 15.403295
263 0 2 0.589700 0.235166 15.091057 15.610028
264 0 2 0.589700 46.643463 15.952263 14.946877
265 0 1 -1.179400 17.551781 12.905351 16.948139
266 0 2 0.589700 16.874876 12.965057 16.291277
267 0 2 0.589700 17.516094 11.996015 17.236563
268 0 1 -1.179400 18.986332 10.888679 10.720786
269 0 2 0.589700 19.717314 10.612480 10.182171
270 0 2 0.589700 18.207071 10.571192 10.276270
271 0 1 -1.179400 0.072987 12.609013 2.034804
272 0 2 0.589700 0.829852 12.537095 1.468150
273 0 2 0.589700 0.067936 13.525594 2.302775
274 0 1 -1.179400 7.602498 4.728991 4.477480
275 0 2 0.589700 7.517605 3.851734 4.840795
276 0 2 0.589700 8.371414 4.675240 3.924483
277 0 1 -1.179400 2.214549 18.878195 0.449564
278 0 2 0.589700 2.640769 19.697561 0.205304
279 0 2 0.589700 1.475122 19.148840 0.979848
280 0 1 -1.179400 2.392381 12.691683 0.638470
281 0 2 0.589700 2.488709 11.745570 0.534699
282 0 2 0.589700 2.468403 13.041940 20.011391
283 0 1 -1.179400 5.900042 19.497795 17.030758
284 0 2 0.589700 5.633751 18.877274 16.369856
285 0 2 0.589700 6.748804 19.174143 17.324724
286 0 1 -1.179400 8.558387 2.730601 6.660202
287 0 2 0.589700 9.444155 3.088408 6.602202
288 0 2 0.589700 8.684508 1.822471 6.927364
289 0 1 -1.179400 6.587098 2.963326 1.768655
290 0 2 0.589700 6.922715 2.608506 2.570743
291 0 2 0.589700 7.258726 2.746226 1.138703
292 0 1 -1.179400 22.725008 18.823006 20.023073
293 0 2 0.589700 22.478851 19.402115 19.320379
294 0 2 0.589700 22.177927 19.106028 0.499249
295 0 1 -1.179400 16.438538 12.085110 7.744465
296 0 2 0.589700 17.210155 12.313553 8.249471
297 0 2 0.589700 15.852565 12.835375 7.840253
298 0 1 -1.179400 19.167334 2.155794 19.711435
299 0 2 0.589700 18.711226 2.973286 19.517673
300 0 2 0.589700 18.553211 1.665281 0.005948
301 0 1 -1.179400 4.214864 16.013227 9.121045
302 0 2 0.589700 4.802890 15.258194 9.112773
303 0 2 0.589700 4.309322 16.380960 9.977170
304 0 1 -1.179400 7.614684 14.787110 16.846424
305 0 2 0.589700 7.485898 13.846394 16.730232
306 0 2 0.589700 8.023628 15.078460 16.052404
307 0 1 -1.179400 10.807298 12.574001 12.758489
308 0 2 0.589700 11.510424 13.206914 12.899845
309 0 2 0.589700 11.253349 11.788242 12.451104
310 0 1 -1.179400 18.729771 6.333998 13.656602
311 0 2 0.589700 18.557547 7.094101 13.115405
312 0 2 0.589700 19.372440 6.643587 14.278453
313 0 1 -1.179400 0.170800 6.067910 8.384502
314 0 2 0.589700 0.117742 6.983310 8.651365
315 0 2 0.589700 0.472770 5.601536 9.143905
316 0 1 -1.179400 10.591229 4.044104 8.863419
317 0 2 0.589700 11.443803 4.133244 9.278406
318 0 2 0.589700 10.013979 3.709465 9.532104
319 0 1 -1.179400 9.093135 11.591344 7.873901
320 0 2 0.589700 9.146212 11.479205 6.949099
321 0 2 0.589700 8.156934 11.548562 8.063643
322 0 1 -1.179400 3.177372 16.892927 3.852848
323 0 2 0.589700 3.801680 17.517881 3.493929
324 0 2 0.589700 2.327136 17.324106 3.769563
325 0 1 -1.179400 19.058882 7.035857 4.903666
326 0 2 0.589700 18.780764 6.125727 4.805738
327 0 2 0.589700 19.969374 7.042628 4.615968
328 0 1 -1.179400 1.037658 0.760230 11.340332
329 0 2 0.589700 0.811758 1.245124 10.566974
330 0 2 0.589700 1.878889 0.350123 11.144785
331 0 1 -1.179400 9.306272 13.058040 10.596322
332 0 2 0.589700 9.980449 12.998794 11.255881
333 0 2 0.589700 9.038221 12.151996 10.448477
334 0 1 -1.179400 1.495296 4.667503 19.289717
335 0 2 0.589700 1.539367 4.264623 18.444818
336 0 2 0.589700 0.563285 4.834977 19.425835
337 0 1 -1.179400 17.625914 2.460698 12.294473
338 0 2 0.589700 17.118910 2.185808 13.038816
339 0 2 0.589700 18.158205 1.697064 12.077807
340 0 1 -1.179400 23.063581 4.485873 13.835838
341 0 2 0.589700 23.993790 4.477908 14.055604
342 0 2 0.589700 23.047478 4.622594 12.912867
343 0 1 -1.179400 6.915649 8.278281 2.933328
344 0 2 0.589700 6.427778 8.720790 2.256649
345 0 2 0.589700 6.680915 7.355209 2.842903
346 0 1 -1.179400 8.956444 9.429546 19.961906
347 0 2 0.589700 8.640043 8.569824 -0.006121
348 0 2 0.589700 9.880157 9.437533 -0.031399
349 0 1 -1.179400 13.530979 1.804955 13.301850
350 0 2 0.589700 13.434959 1.009809 12.791429
351 0 2 0.589700 14.348287 1.677852 13.771244
352 0 1 -1.179400 22.950283 9.004353 6.368152
353 0 2 0.589700 23.779625 8.745996 6.759887
354 0 2 0.589700 22.283403 8.737134 6.984444
355 0 1 -1.179400 4.292535 9.846505 14.793163
356 0 2 0.589700 4.453342 9.504730 13.936211
357 0 2 0.589700 3.366261 10.087760 14.791238
358 0 1 -1.179400 18.504829 8.693392 12.034220
359 0 2 0.589700 18.568714 9.514181 11.558774
360 0 2 0.589700 17.584015 8.442293 11.963687
361 0 1 -1.179400 16.770481 9.469173 9.577416
362 0 2 0.589700 17.109325 8.576964 9.508854
363 0 2 0.589700 16.071865 9.512783 8.941261
364 0 1 -1.179400 24.186853 7.735983 3.042567
365 0 2 0.589700 23.394543 7.447402 3.483886
366 0 2 0.589700 24.888670 7.606288 3.664075
367 0 1 -1.179400 26.207844 10.918006 5.193546
368 0 2 0.589700 25.548700 10.745416 4.538497
369 0 2 0.589700 26.123558 11.853295 5.372926
370 0 1 -1.179400 19.172203 7.526191 19.482613
371 0 2 0.589700 19.157780 7.351983 18.565634
372 0 2 0.589700 19.495024 8.424121 19.553585
373 0 1 -1.179400 24.777416 12.229643 1.040935
374 0 2 0.589700 23.896412 11.921999 0.833406
375 0 2 0.589700 24.636084 13.018484 1.550648
376 0 1 -1.179400 24.220011 10.469011 3.191854
377 0 2 0.589700 24.334599 9.531409 3.042381
378 0 2 0.589700 24.586510 10.886137 2.432204
379 0 1 -1.179400 20.758537 15.121828 15.385706
380 0 2 0.589700 20.351635 14.291966 15.143828
381 0 2 0.589700 20.068827 15.598433 15.835663
382 0 1 -1.179400 22.631504 4.836228 6.686644
383 0 2 0.589700 21.800791 5.042475 7.104123
384 0 2 0.589700 22.775307 3.909234 6.870934
385 0 1 -1.179400 17.196323 18.488655 9.883868
386 0 2 0.589700 17.551504 17.605501 9.787897
387 0 2 0.589700 17.876410 18.969419 10.343428
388 0 1 -1.179400 25.840460 7.033100 5.298167
389 0 2 0.589700 25.741934 7.701154 5.959013
390 0 2 0.589700 26.760950 7.086019 5.047619
391 0 1 -1.179400 17.214682 10.283307 17.420649
392 0 2 0.589700 17.502811 9.831895 16.647675
393 0 2 0.589700 16.571230 9.693046 17.802526
394 0 1 -1.179400 25.096676 9.073492 0.330539
395 0 2 0.589700 24.192034 8.761724 0.354249
396 0 2 0.589700 25.491201 8.608207 19.849600
397 0 1 -1.179400 29.080479 9.222774 0.186473
398 0 2 0.589700 28.598835 8.873548 0.917077
399 0 2 0.589700 28.891653 8.612000 19.730158
400 0 1 -1.179400 30.758163 8.058174 3.364509
401 0 2 0.589700 30.887857 7.661276 2.525301
402 0 2 0.589700 30.741182 8.999755 3.198885
403 0 1 -1.179400 32.296974 11.345519 5.246871
404 0 2 0.589700 32.410549 10.722246 5.945884
405 0 2 0.589700 31.701992 10.906417 4.654735
406 0 1 -1.179400 28.309828 10.471747 3.457897
407 0 2 0.589700 27.736771 10.542428 4.201771
408 0 2 0.589700 27.975063 11.126263 2.860786
409 0 1 -1.179400 31.579748 12.792221 1.203602
410 0 2 0.589700 31.145552 13.385793 1.800430
411 0 2 0.589700 32.513885 12.911959 1.370278
412 0 1 -1.179400 30.916983 10.674767 3.080703
413 0 2 0.589700 29.985529 10.683501 3.295359
414 0 2 0.589700 31.016027 11.368821 2.445896
415 0 1 -1.179400 27.541191 12.234577 1.344339
416 0 2 0.589700 26.607405 12.169529 1.149388
417 0 2 0.589700 27.972914 12.193068 0.512904
418 0 1 -1.179400 28.660326 7.345775 4.975922
419 0 2 0.589700 29.438089 7.419147 4.436994
420 0 2 0.589700 28.718592 6.469840 5.347162
421 0 1 -1.179400 29.534954 12.089911 6.426987
422 0 2 0.589700 29.409504 11.146580 6.328877
423 0 2 0.589700 30.216324 12.171538 7.077194
424 0 1 -1.179400 32.559002 7.610645 5.357439
425 0 2 0.589700 31.931530 7.630978 4.653391
426 0 2 0.589700 32.391640 8.417916 5.830973
427 0 1 -1.179400 27.096815 8.384685 1.991647
428 0 2 0.589700 26.436111 8.799800 1.451519
429 0 2 0.589700 27.414207 9.089568 2.541426
430 0 1 -1.179400 31.794449 9.416301 0.300481
431 0 2 0.589700 32.027946 10.082765 19.908756
432 0 2 0.589700 30.854156 9.284092 0.182826
433 0 1 -1.179400 36.263779 9.511743 20.120966
434 0 2 0.589700 35.636375 9.448060 0.584899
435 0 2 0.589700 35.993420 8.829991 19.521824
436 0 1 -1.179400 37.684227 8.041851 3.746163
437 0 2 0.589700 37.770771 8.985556 3.616578
438 0 2 0.589700 36.775391 7.920570 4.013934
439 0 1 -1.179400 39.121780 11.093901 6.020189
440 0 2 0.589700 39.131306 11.997796 6.326268
441 0 2 0.589700 39.142895 10.563127 6.795975
442 0 1 -1.179400 34.556919 10.756886 3.834778
443 0 2 0.589700 33.780655 11.043743 4.303395
444 0 2 0.589700 34.253845 10.016146 3.323452
445 0 1 -1.179400 37.895592 12.542499 1.790763
446 0 2 0.589700 37.728107 11.847125 2.410375
447 0 2 0.589700 37.815826 13.352288 2.281600
448 0 1 -1.179400 37.319309 10.799070 3.884254
449 0 2 0.589700 37.702869 10.856742 4.736923
450 0 2 0.589700 36.374184 10.803871 4.031812
451 0 1 -1.179400 34.221657 12.819979 2.209991
452 0 2 0.589700 34.557236 12.191145 2.832353
453 0 2 0.589700 34.717228 12.638679 1.431857
454 0 1 -1.179400 35.257595 7.851326 5.063359
455 0 2 0.589700 34.317471 7.673074 5.039604
456 0 2 0.589700 35.383175 8.368636 5.838407
457 0 1 -1.179400 35.976364 12.140418 6.915718
458 0 2 0.589700 35.821503 12.851954 6.310587
459 0 2 0.589700 36.835236 12.332772 7.282297
460 0 1 -1.179400 39.302872 7.361711 5.790246
461 0 2 0.589700 39.267326 6.405442 5.785035
462 0 2 0.589700 38.595741 7.631347 5.219214
463 0 1 -1.179400 34.273224 9.093322 1.669749
464 0 2 0.589700 33.502525 9.185507 1.123971
465 0 2 0.589700 34.296021 8.163630 1.889619
466 0 1 -1.179400 38.913292 8.892593 0.340434
467 0 2 0.589700 37.959373 8.967632 0.364909
468 0 2 0.589700 39.201454 9.659670 20.096373
469 0 1 -1.179400 42.836731 9.196993 0.212468
470 0 2 0.589700 42.817284 10.153202 0.243691
471 0 2 0.589700 42.173489 8.922203 0.829322
472 0 1 -1.179400 44.306370 7.943851 3.418123
473 0 2 0.589700 43.633045 7.601070 3.990688
474 0 2 0.589700 44.369137 7.292980 2.737151
475 0 1 -1.179400 46.070469 11.669513 5.413627
476 0 2 0.589700 45.269817 11.436964 4.955484
477 0 2 0.589700 46.778225 11.338065 4.875166
478 0 1 -1.179400 41.165871 10.554688 4.170019
479 0 2 0.589700 40.899250 11.204098 3.536160
480 0 2 0.589700 40.542583 10.664369 4.869745
481 0 1 -1.179400 44.695221 12.492988 2.049402
482 0 2 0.589700 44.522560 11.853531 2.722565
483 0 2 0.589700 45.618973 12.367974 1.837566
484 0 1 -1.179400 44.011791 10.743073 3.931946
485 0 2 0.589700 44.237339 9.840523 3.713365
486 0 2 0.589700 43.113556 10.691930 4.250339
487 0 1 -1.179400 40.749878 12.645587 2.225040
488 0 2 0.589700 39.855728 12.569106 1.900613
489 0 2 0.589700 40.947834 13.580138 2.170024
490 0 1 -1.179400 42.127998 7.203810 5.180164
491 0 2 0.589700 42.305130 6.380127 5.622449
492 0 2 0.589700 41.179249 7.208811 5.056649
493 0 1 -1.179400 42.712669 11.865803 6.742756
494 0 2 0.589700 42.141903 12.024431 7.475340
495 0 2 0.589700 42.657051 10.922089 6.598021
496 0 1 -1.179400 46.093163 7.359437 5.331822
497 0 2 0.589700 45.766758 7.701528 4.520920
498 0 2 0.589700 47.030518 7.230402 5.190847
499 0 1 -1.179400 40.992157 8.704977 2.150522
500 0 2 0.589700 40.092697 8.746700 1.834108
501 0 2 0.589700 41.017124 9.335802 2.851433
502 0 1 -1.179400 45.746742 9.397064 0.409807
503 0 2 0.589700 45.712067 10.244883 -0.021399
504 0 2 0.589700 44.835190 9.107181 0.443770
505 0 1 -1.179400 0.807723 11.224680 17.486170
506 0 2 0.589700 0.405961 10.524287 16.985521
507 0 2 0.589700 0.588866 12.026192 17.023397
508 0 1 -1.179400 6.515060 0.732799 8.656346
509 0 2 0.589700 6.504035 1.107888 9.514319
510 0 2 0.589700 7.415773 0.432660 8.537783
511 0 1 -1.179400 1.855068 13.685012 4.686416
512 0 2 0.589700 1.828953 12.933177 5.262858
513 0 2 0.589700 2.292751 14.371203 5.177053
514 0 1 -1.179400 0.023912 19.362240 2.078145
515 0 2 0.589700 0.120800 0.118039 2.235080
516 0 2 0.589700 0.091829 18.961847 2.922666
517 0 1 -1.179400 17.940838 4.721691 18.958364
518 0 2 0.589700 17.003828 4.758166 18.771177
519 0 2 0.589700 18.351446 5.208488 18.262157
520 0 1 -1.179400 5.258015 17.618826 15.319689
521 0 2 0.589700 5.010088 16.710857 15.151171
522 0 2 0.589700 6.156006 17.688309 15.003951
523 0 1 -1.179400 11.232851 5.233841 17.107559
524 0 2 0.589700 11.279950 4.817954 17.946293
525 0 2 0.589700 12.136758 5.236778 16.800720
526 0 1 -1.179400 17.188938 8.138485 6.415026
527 0 2 0.589700 17.893072 7.831487 5.858588
528 0 2 0.589700 17.328955 7.673677 7.218792
529 0 1 -1.179400 8.260253 19.838087 0.305417
530 0 2 0.589700 7.489949 19.625500 20.029711
531 0 2 0.589700 8.945389 20.025944 19.918074
532 0 1 -1.179400 8.341807 12.118700 19.494223
533 0 2 0.589700 8.563391 11.200363 19.643070
534 0 2 0.589700 7.400584 12.169416 19.656528
535 0 1 -1.179400 0.324792 15.425803 2.316168
536 0 2 0.589700 -0.234508 15.834800 1.672753
537 0 2 0.589700 1.192170 15.398238 1.922639
538 0 1 -1.179400 17.802053 4.618608 4.502349
539 0 2 0.589700 17.885361 4.257883 3.642300
540 0 2 0.589700 18.219614 3.968938 5.053173
541 0 1 -1.179400 15.294976 0.678993 2.206164
542 0 2 0.589700 16.114676 0.654309 1.725144
543 0 2 0.589700 15.567856 0.744127 3.097877
544 0 1 -1.179400 1.213854 0.749900 17.713612
545 0 2 0.589700 1.284381 19.978703 17.679771
546 0 2 0.589700 1.029141 1.009830 16.834234
547 0 1 -1.179400 19.047375 13.099503 12.940324
548 0 2 0.589700 19.402693 12.962993 13.796076
549 0 2 0.589700 18.355844 12.443186 12.858621
550 0 1 -1.179400 3.599136 0.309286 10.563367
551 0 2 0.589700 3.964154 19.840946 9.979426
552 0 2 0.589700 4.140589 0.241783 11.329662
553 0 1 -1.179400 10.022669 16.784323 17.035606
554 0 2 0.589700 10.785406 17.223835 17.401722
555 0 2 0.589700 10.389310 16.165445 16.420446
556 0 1 -1.179400 20.229567 5.260573 0.868488
557 0 2 0.589700 20.544617 5.874678 1.514555
558 0 2 0.589700 19.967243 5.814508 0.152202
559 0 1 -1.179400 20.889921 12.387625 2.598973
560 0 2 0.589700 21.301083 12.488562 3.435452
561 0 2 0.589700 19.978111 12.170993 2.788596
562 0 1 -1.179400 0.477631 17.659285 4.174492
563 0 2 0.589700 0.110260 16.972139 3.632992
564 0 2 0.589700 0.043406 17.542406 4.997833
565 0 1 -1.179400 5.567780 12.149048 20.030241
566 0 2 0.589700 5.348350 12.056729 19.126875
567 0 2 0.589700 5.323472 13.048753 0.002960
568 0 1 -1.179400 15.552984 8.451493 18.653996
569 0 2 0.589700 14.789518 8.905678 19.001169
570 0 2 0.589700 15.986770 8.074601 19.399849
571 0 1 -1.179400 15.252170 9.768457 7.271756
572 0 2 0.589700 15.924110 9.258243 6.831380
573 0 2 0.589700 15.597175 10.660983 7.284510
574 0 1 -1.179400 3.388245 1.734208 4.254329
575 0 2 0.589700 2.649726 1.293234 4.663396
576 0 2 0.589700 2.998342 2.490271 3.827081
577 0 1 -1.179400 5.245819 8.652098 12.581579
578 0 2 0.589700 5.767411 9.450031 12.499298
579 0 2 0.589700 5.815095 8.042020 13.038348
580 0 1 -1.179400 5.340619 2.722876 18.748514
581 0 2 0.589700 5.065596 3.408030 19.341928
582 0 2 0.589700 4.759530 1.986396 18.933050
583 0 1 -1.179400 5.381474 9.773200 0.901431
584 0 2 0.589700 5.630579 9.342596 0.104668
585 0 2 0.589700 5.479352 10.707653 0.724483
586 0 1 -1.179400 10.928779 16.657650 13.019448
587 0 2 0.589700 11.325418 17.185217 13.694822
588 0 2 0.589700 11.256165 17.043386 12.227756
589 0 1 -1.179400 14.811218 5.295923 13.130154
590 0 2 0.589700 15.121721 4.557132 12.620382
591 0 2 0.589700 13.973006 5.534666 12.744572
592 0 1 -1.179400 22.729307 19.847994 4.062098
593 0 2 0.589700 23.540905 0.111745 3.826885
594 0 2 0.589700 22.962013 19.325388 4.809777
595 0 1 -1.179400 15.257701 16.408464 19.964846
596 0 2 0.589700 14.602950 15.856842 0.144053
597 0 2 0.589700 16.022804 15.841696 19.870180
598 0 1 -1.179400 16.077646 0.854326 8.224019
599 0 2 0.589700 16.895189 1.017530 8.682287
600 0 2 0.589700 15.881829 1.683480 7.799277
601 0 1 -1.179400 11.847754 16.849915 10.476385
602 0 2 0.589700 12.372049 17.422068 9.930554
603 0 2 0.589700 11.477691 16.201532 9.892850
604 0 1 -1.179400 18.918966 3.171100 6.607578
605 0 2 0.589700 19.687199 2.722156 6.263932
606 0 2 0.589700 19.272173 3.951455 7.023483
607 0 1 -1.179400 17.380785 14.678728 18.977116
608 0 2 0.589700 18.222265 14.649675 19.420742
609 0 2 0.589700 17.421831 13.956415 18.366648
610 0 1 -1.179400 13.185915 2.551907 4.668417
611 0 2 0.589700 12.578863 3.227775 4.961821
612 0 2 0.589700 12.987598 2.448616 3.761553
613 0 1 -1.179400 23.066792 16.069487 0.178188
614 0 2 0.589700 22.840956 16.995798 0.098325
615 0 2 0.589700 22.480701 15.739022 0.841524
616 0 1 -1.179400 24.209955 14.197673 2.989084
617 0 2 0.589700 23.580471 13.737643 3.530047
618 0 2 0.589700 24.027821 15.125285 3.134031
619 0 1 -1.179400 25.682716 17.868984 5.311826
620 0 2 0.589700 25.544355 17.095598 5.844306
621 0 2 0.589700 26.458296 17.659630 4.804732
622 0 1 -1.179400 21.371948 10.530975 9.243177
623 0 2 0.589700 22.085989 10.461979 9.860666
624 0 2 0.589700 21.735550 11.052672 8.546169
625 0 1 -1.179400 24.783285 18.607264 1.826230
626 0 2 0.589700 24.452730 18.582394 0.951271
627 0 2 0.589700 24.608484 19.500561 2.114071
628 0 1 -1.179400 23.681864 16.734865 3.797935
629 0 2 0.589700 24.397558 16.752169 4.417036
630 0 2 0.589700 23.942575 17.364140 3.142807
631 0 1 -1.179400 18.424023 4.707707 9.648306
632 0 2 0.589700 18.885111 4.657687 10.464183
633 0 2 0.589700 18.336639 3.797001 9.374840
634 0 1 -1.179400 17.695694 11.526614 0.703415
635 0 2 0.589700 17.963257 11.098145 20.148962
636 0 2 0.589700 16.861622 11.945210 0.496187
637 0 1 -1.179400 22.307520 4.748345 11.280017
638 0 2 0.589700 21.414242 4.428520 11.403015
639 0 2 0.589700 22.204096 5.557538 10.792448
640 0 1 -1.179400 25.943535 13.739352 5.231794
641 0 2 0.589700 25.500656 13.940746 4.428596
642 0 2 0.589700 26.873442 13.861889 5.045704
643 0 1 -1.179400 21.443979 6.374557 14.876637
644 0 2 0.589700 21.647141 7.125597 14.333609
645 0 2 0.589700 21.846567 5.629446 14.442337
646 0 1 -1.179400 25.802959 15.577211 0.132296
647 0 2 0.589700 25.674103 15.130791 19.554646
648 0 2 0.589700 24.921209 15.825034 0.403185