LAMMPS data file via write_data, version 23 Jun 2022, timestep = 400000

972 atoms
2 atom types

-0.06240063835129206 20.053453638350447 xlo xhi
-0.012166013807544118 20.003219013806316 ylo yhi
0.25285197922094405 20.547920020779344 zlo zhi

Masses

1 1.008
2 15.999

Atoms # full

31 0 1 0 0.656307532225112 1.807680616042949 2.5404861547452744 0 0 0
32 0 2 0 0.6890349008874894 0.8793951089547848 2.7640519388519533 0 0 0
33 0 2 0 0.8425708599286039 2.3705533084879398 3.2485110919329396 0 0 0
2 0 2 0 1.7138684231635064 1.878890933427222 1.278220118731541 0 0 0
5 0 2 0 3.4378879191964553 0.8875336244524579 3.963002303236492 0 0 0
12 0 2 0 2.383151766079561 3.814729640012698 4.041625665728981 0 0 0
10 0 1 0 1.3732916413752425 3.7851001124148196 3.9921834855375296 0 0 0
1 0 1 0 2.3092210847494177 2.0694549043784622 0.5390080302926772 0 0 0
18 0 2 0 4.209649107245459 3.1267802208093465 3.543391962085072 0 0 0
4 0 1 0 4.173216807027496 1.3979411485982987 3.5544584653703155 0 0 0
36 0 2 0 6.03509786054244 2.522533723268844 1.0360937822254686 0 0 0
67 0 1 0 7.303755531288315 2.209759620596033 2.076341867366404 0 0 0
35 0 2 0 4.420378622186492 2.483068836795402 0.8247098139324076 0 0 0
230 0 2 0 4.441577153447818 0.11760185466187464 2.3337961299842136 0 1 0
6 0 2 0 4.920210908162989 1.2100924172061576 4.143704198518638 0 0 0
68 0 2 0 7.386373516856603 2.9519857586217686 2.720073033047875 0 0 0
34 0 1 0 5.2645048915533135 2.742288840051943 0.4074001101432435 0 0 0
272 0 2 0 7.346694817306433 0.47169306150314466 2.1545965598828793 0 1 0
69 0 2 0 8.03913375680725 2.267701045140808 1.4333971841945208 0 0 0
41 0 2 0 10.266018883814423 0.7292578310628143 4.147421899275461 0 0 0
40 0 1 0 10.962793354863397 0.926468133228082 3.497394156551206 0 0 0
54 0 2 0 10.555992674275842 2.927389265615383 3.6435342021581576 0 0 0
42 0 2 0 11.745658553081515 0.663154787802928 3.9883719106609576 0 0 0
266 0 2 0 10.780318697376883 0.1974767349230224 1.882253933041657 0 1 0
70 0 1 0 11.964515563508167 2.6892821096155592 0.6622749213594615 0 0 0
52 0 1 0 10.46303504038786 3.8090200771025513 3.955609898645585 0 0 0
47 0 2 0 8.716324192981045 3.978096758433886 4.136409349170034 0 0 0
72 0 2 0 12.620224498814343 2.5552269833213423 1.4043836614075347 0 0 0
84 0 2 0 14.012216316906065 3.895665573605681 3.750720868661175 0 0 0
103 0 1 0 14.048439070757876 2.247296938265067 2.5818146189199265 0 0 0
105 0 2 0 13.955003440813936 1.2729494018322942 2.7013952278106954 0 0 0
104 0 2 0 14.899375004827018 2.3739060917434394 2.1617450527815842 0 0 0
71 0 2 0 12.086259830634448 3.5614443695256717 0.32369597147320156 0 0 0
75 0 2 0 15.69396048522954 3.7325176839095016 0.7616047382888015 0 0 0
108 0 2 0 19.112597723106656 2.356339417712661 1.7718787317623728 0 0 0
76 0 1 0 17.50912320544807 1.368835080712533 3.705170009139117 0 0 0
89 0 2 0 16.917105010471985 3.2969991819896896 3.7366029108225574 0 0 0
107 0 2 0 17.726236892610025 2.7161868872085084 1.1322613351616888 0 0 0
77 0 2 0 17.484019301397993 0.8082010830112278 2.9272549415227296 0 0 0
106 0 1 0 18.689657903036284 2.687055610146718 0.9804258064989477 0 0 0
78 0 2 0 18.3762618953745 1.0930931515948232 4.114535030565397 0 0 0
73 0 1 0 16.04205462501929 2.8057111509504598 0.876159264084455 0 0 0
20 0 2 0 1.32972320037155 5.530768782998842 2.884138969248289 0 0 0
675 0 2 0 1.9630188132409039 5.067791398649307 0.6163048041813912 0 0 1
19 0 1 0 1.0094136039056032 5.914755616893258 2.076367143944565 0 0 0
21 0 2 0 1.232026656109551 6.835908447775372 2.1179890926115013 0 0 0
16 0 1 0 4.1007794974572125 4.096322366763929 3.621604968360829 0 0 0
17 0 2 0 4.1354894906899125 4.587724332538046 2.771626360938243 0 0 0
14 0 2 0 4.077846412728371 5.599248934494216 0.832889666516884 0 0 0
114 0 2 0 4.08053606453827 7.521188084014299 2.8475203171591077 0 0 0
13 0 1 0 4.304795875429837 5.887434463137066 1.7129464057534876 0 0 0
15 0 2 0 5.296644783287643 5.982742219978342 1.617480667516337 0 0 0
55 0 1 0 7.128538316092933 6.126268539581594 1.8848250664555868 0 0 0
177 0 2 0 7.152589636959191 7.857313497979205 2.3408027180839825 0 0 0
56 0 2 0 7.286219259687456 5.601656189921117 2.688693999701146 0 0 0
113 0 2 0 4.781367255146592 7.907620098142703 4.241182548367996 0 0 0
57 0 2 0 7.702761713679474 5.7936508306158485 1.1857257445368972 0 0 0
46 0 1 0 7.7882207190346495 4.153027301877934 3.856370256820325 0 0 0
51 0 2 0 10.80721459510051 5.105522577740627 2.744390948421373 0 0 0
50 0 2 0 10.345730816505467 5.64586928416391 1.3752647955195645 0 0 0
150 0 2 0 10.941266739476715 7.177254747050254 3.1619209234186534 0 0 0
49 0 1 0 10.97029957660408 5.785326085622112 2.08981160898584 0 0 0
148 0 1 0 11.021763192157971 7.890259946730907 3.790612072814861 0 0 0
82 0 1 0 14.459333494101898 4.663643505888643 4.1014548994557 0 0 0
83 0 2 0 14.117560008914872 5.335561019192482 3.514444690598512 0 0 0
91 0 1 0 13.459951896558236 6.338313818118394 2.1710369131335026 0 0 0
92 0 2 0 13.707747061876999 7.245935885353325 2.2762018284573995 0 0 0
93 0 2 0 12.51582714661144 6.273089559666382 1.959135743889882 0 0 0
747 0 2 0 14.555879148263324 5.68135343728073 1.1243671519660352 0 0 1
746 0 2 0 15.964788299472485 5.998813690348833 0.8155817246811332 0 0 1
745 0 1 0 15.291730899913166 5.343300064438433 0.6251151462895794 0 0 1
90 0 2 0 16.18853700543671 4.588008327506003 4.0415913033168485 0 0 0
88 0 1 0 17.07699514530105 4.19394113778754 3.784982365008058 0 0 0
86 0 2 0 18.2025931383486 4.838401145512131 2.4077551591190556 0 0 0
85 0 1 0 18.328858137298152 5.5939345044329105 1.806009564507991 0 0 0
87 0 2 0 19.280479350702702 5.713774608437553 1.699370982270281 0 0 0
185 0 2 0 17.75636967555668 6.974446877179337 2.836073366531123 0 0 0
184 0 1 0 17.435900382166253 7.644796101158011 3.4898796048670926 0 0 0
139 0 1 0 0.962537142397242 8.669134928922604 2.4149115466039794 0 0 0
141 0 2 0 1.454552563181564 9.10233714370749 1.7392883697600818 0 0 0
119 0 2 0 1.3273403066631992 10.387061957261137 3.761718638522796 0 0 0
110 0 2 0 3.5895913156653965 9.343176545059166 0.25340076192590283 0 0 0
118 0 1 0 1.3014803320523955 11.191349880541955 4.255849710273838 0 0 0
140 0 2 0 0.0604352694052762 8.870193491817343 2.2819521732162085 0 0 0
112 0 1 0 4.064688869240268 8.135035912566014 3.6267348311784686 0 0 0
126 0 2 0 4.43089855207336 9.86230221370964 3.4950145329898095 0 0 0
124 0 1 0 4.185670904559807 10.757970616107405 3.8299176619564173 0 0 0
175 0 1 0 7.093276706564561 8.830552266715237 2.3226624682789847 0 0 0
176 0 2 0 6.301432247614229 8.94756044880052 1.7992460462352045 0 0 0
155 0 2 0 7.790471659103657 10.162181035140451 3.382350881986061 0 0 0
122 0 2 0 4.0926066180320095 11.968453161419058 2.4759416509998404 0 0 0
156 0 2 0 7.600233076042762 11.734072117953339 3.0795325599959664 0 0 0
154 0 1 0 8.213702951897714 11.080631407594021 3.5326665375705186 0 0 0
147 0 2 0 8.203167528448912 9.13289224192672 0.9483057021292116 0 0 0
162 0 2 0 10.825271461943473 9.903775857498596 3.374084844080362 0 0 0
160 0 1 0 10.787062316538673 10.839943427586125 3.6661225626944187 0 0 0
161 0 2 0 9.81018201004386 10.975827165955893 3.6392808922046105 0 0 0
178 0 1 0 11.671421172724196 9.436725966282598 0.33632447856861986 0 0 0
179 0 2 0 10.712843106982568 9.33082319304365 0.4865777548808803 0 0 0
145 0 1 0 8.91207991901404 9.47752221001435 0.3831643367258305 0 0 0
211 0 1 0 13.912373895037216 9.020986973803824 2.49168432460547 0 0 0
212 0 2 0 14.26657536137398 9.754111948884296 3.0841174379263703 0 0 0
213 0 2 0 13.12633800039584 9.412694578807812 2.037607898948866 0 0 0
183 0 2 0 15.196472510293416 9.248037275069636 1.1398899504827071 0 0 0
190 0 1 0 14.984475257599431 11.062075955108268 3.957447909569145 0 0 0
191 0 2 0 14.744234990688797 11.79857854848532 3.3449934473950638 0 0 0
192 0 2 0 15.937045683112249 10.95184296476255 3.934946167302922 0 0 0
181 0 1 0 15.860633343740812 9.071857337154368 0.4568918720544999 0 0 0
854 0 2 0 15.70349300309766 10.864749069545208 0.2568058546041965 0 0 1
186 0 2 0 17.767360265610986 8.479338155750828 3.0922571491198427 0 0 0
214 0 1 0 18.537510924261216 9.104715369062125 1.1904155295860521 0 0 0
216 0 2 0 17.533395587548362 9.098698452426163 1.1928883098824112 0 0 0
197 0 2 0 17.826482080132998 11.339242909085568 2.9611235536788607 0 0 0
196 0 1 0 17.719148162373102 10.656149908104693 3.6144018702741514 0 0 0
215 0 2 0 18.857428151188806 8.379721877515413 0.5907308827948361 0 0 0
129 0 2 0 0.748161550525481 12.003120674691187 2.8497494177679417 0 0 0
782 0 2 0 1.6846936568406035 12.214908748699141 0.6103256745073036 0 0 1
127 0 1 0 0.5225213113887585 12.473523739083246 2.055796550206056 0 0 0
249 0 2 0 0.5672689796732356 14.148635620336208 2.278480755911186 0 0 0
221 0 2 0 2.802526413088207 14.775479057284572 3.770260614600107 0 0 0
123 0 2 0 3.752680877171791 12.64679578122714 1.147752097545434 0 0 0
222 0 2 0 3.830904922317378 14.582475453169177 2.518747658341781 0 0 0
247 0 1 0 0.5584848158769712 15.08362166318476 2.2128365391737628 0 0 0
218 0 2 0 1.7586049650611189 15.383556176431743 1.1205449804291936 0 0 0
217 0 1 0 2.3508816081305346 15.579266170029916 0.4123444308469332 0 0 0
220 0 1 0 3.582045403671697 15.134736642513012 3.3212782142588204 0 0 0
121 0 1 0 4.211839574104521 12.838546880001923 1.9585676524661353 0 0 0
165 0 2 0 5.868127634466846 12.888637745056435 1.91898234855115 0 0 0
163 0 1 0 6.85981856694134 12.915591833953053 1.9070824336624022 0 0 0
164 0 2 0 6.9986886408931275 13.861353302602483 2.133827931926924 0 0 0
283 0 1 0 7.205721448290272 15.641353020974755 2.1247613207784823 0 0 0
284 0 2 0 6.493325853198241 15.973299179500678 1.6233246069729401 0 0 0
819 0 2 0 7.97169968653226 12.52877033018632 0.5997310968988854 0 0 1
285 0 2 0 7.970410004360936 15.743593812267529 1.5094092342307603 0 0 0
158 0 2 0 11.014013106421585 12.192268775339512 2.231022594051536 0 0 0
258 0 2 0 9.574840553765087 14.68428838202605 3.519153772783881 0 0 0
157 0 1 0 11.259965867125885 12.847611480092056 1.5793224218266322 0 0 0
159 0 2 0 10.954557458346546 13.707283256617268 1.9014216083962168 0 0 0
256 0 1 0 10.189130612555841 14.96434855856782 2.8218508942409444 0 0 0
818 0 2 0 9.553159112356733 12.528212378703236 0.5757072409703079 0 0 1
257 0 2 0 10.496270197753383 15.8898705770681 3.0077638922779264 0 0 0
255 0 2 0 9.782068730970396 15.374294539992878 0.8984195349836054 0 0 0
286 0 1 0 11.80869780152877 15.736286490448512 0.7484148610740589 0 0 0
281 0 2 0 11.95502687767739 14.319570892535202 4.271581409799685 0 0 0
253 0 1 0 9.164809462512922 15.876615367614473 0.3197939488878053 0 0 0
199 0 1 0 14.051732737891237 12.824062214043385 2.0032280164666325 0 0 0
200 0 2 0 13.207408420044198 12.73890406770957 1.5024477417048767 0 0 0
201 0 2 0 14.125984783949756 13.792395634927633 2.0504069723336102 0 0 0
855 0 2 0 15.156781537317242 12.249010713109394 0.8924617697029537 0 0 1
319 0 1 0 14.103369509928234 15.58535042547589 1.9976040700719324 0 0 0
291 0 2 0 15.53855668891194 15.817894705088625 0.8739401745953603 0 0 0
320 0 2 0 13.274454042716636 15.8083599556904 1.5723807962628835 0 0 0
128 0 2 0 19.667898179442076 12.410191003685561 1.9365469319888176 -1 0 0
195 0 2 0 17.530100638987566 12.63677123890374 0.9510596725048667 0 0 0
193 0 1 0 18.099998863164288 12.767742073137953 1.7139191096369613 0 0 0
194 0 2 0 17.84033366474054 13.58532001993995 2.1016738722192194 0 0 0
294 0 2 0 16.59437802192996 14.62999382062409 3.7317949807794784 0 0 0
292 0 1 0 17.391046845413886 14.75249969550115 3.1790092774328995 0 0 0
248 0 2 0 19.94547732035516 15.36410844406136 1.6705083069590752 -1 0 0
293 0 2 0 17.49580367730669 15.705768614717478 3.1463497448494513 0 0 0
322 0 1 0 18.59116983073102 15.67157587106976 0.5368938387092872 0 0 0
233 0 2 0 3.8045893675726257 16.9904786287048 3.6558719322674693 0 0 0
227 0 2 0 0.7982653091990726 16.536929188701663 3.212404418867011 0 0 0
235 0 1 0 0.5224523020706971 19.307562556803898 1.7686043734984682 0 0 0
236 0 2 0 0.7506812257340758 18.5250042576035 2.2617048858349778 0 0 0
237 0 2 0 0.9340521249398448 19.115541693634196 0.9003982531637487 0 0 0
228 0 2 0 1.8260048724810425 17.587178902645288 3.7676407326850274 0 0 0
226 0 1 0 0.9078478836242351 17.469113791030374 3.5677610458643807 0 0 0
232 0 1 0 3.8081200395834958 17.95854111090636 3.795317964584685 0 0 0
891 0 2 0 3.2931573653596553 18.51929337418423 0.42043141940966866 0 0 1
251 0 2 0 4.108895965192928 16.01349524791317 0.6342878289048095 0 0 0
234 0 2 0 4.147144114387111 18.294629182717323 2.9290183046197598 0 0 0
229 0 1 0 4.517645792251263 19.380231379111866 1.6451240292717915 0 0 0
231 0 2 0 5.482037264692118 19.270736779494715 1.5935103009320186 0 0 0
271 0 1 0 7.39928618112265 19.555000460015908 1.8614454410433476 0 0 0
273 0 2 0 7.362425307863324 18.901734215259538 2.588081423008673 0 0 0
250 0 1 0 5.044106592231739 16.35275069562968 0.6958501328782317 0 0 0
263 0 2 0 7.660254174475243 16.706254097545138 3.310537171976457 0 0 0
262 0 1 0 7.960231034460207 17.508159626260014 3.7537564871312754 0 0 0
927 0 2 0 8.284515811996739 19.052760636763143 0.31324284226030175 0 0 1
267 0 2 0 10.444505153271978 19.265165761709312 0.7336124912106103 0 0 0
265 0 1 0 11.106489807582873 19.523428528239293 1.3260379481675253 0 0 0
268 0 1 0 10.79253459789703 17.432544611799763 3.5593342372543644 0 0 0
269 0 2 0 11.031800696405664 17.991079128966113 2.7988153351946674 0 0 0
264 0 2 0 8.92709605124936 17.54712895484825 3.7796682198014024 0 0 0
287 0 2 0 11.71949351344209 16.666635531930513 0.40539042609862275 0 0 0
321 0 2 0 14.277059878226813 16.23942101262701 2.7040449567049483 0 0 0
307 0 1 0 13.736848293949972 19.45665574851432 2.3327448965812883 0 0 0
308 0 2 0 12.820789539644535 19.29593250259562 2.094098327230976 0 0 0
309 0 2 0 13.975207069404942 18.629258268017033 2.904106379051911 0 0 0
298 0 1 0 14.28789708114452 17.316974182566206 3.885893849901364 0 0 0
963 0 2 0 15.243910832340312 19.065018908196553 1.0320018790723948 0 0 1
300 0 2 0 15.201457810627993 17.30138050299298 4.204782645195722 0 0 0
301 0 1 0 17.810205776313584 19.253087275600986 2.009579938339064 0 0 0
302 0 2 0 17.204063263584622 18.97682403727125 1.2888943136721884 0 0 0
303 0 2 0 18.7587213941514 19.214125949987075 1.614311293789677 0 0 0
306 0 2 0 17.277821481963734 17.908490031875218 3.192774004116617 0 0 0
304 0 1 0 17.080625993997117 17.32868541845523 3.95251432329659 0 0 0
22 0 1 0 2.095909693807193 0.6996123947603817 5.2886143424983185 0 0 0
23 0 2 0 2.420176517072926 1.5034335682025939 5.771447282172153 0 0 0
325 0 1 0 2.7474612473410467 2.749956463261773 6.949676984215586 0 0 0
327 0 2 0 2.492636032582838 3.702666847883506 6.739233450275843 0 0 0
101 0 2 0 0.39974507828408296 0.6943890842138376 5.275820259623883 1 0 0
326 0 2 0 3.734526134679864 2.780519590634085 7.052389472222526 0 0 0
356 0 2 0 1.6089112185712466 2.1258101931061257 8.166098063351189 0 0 0
11 0 2 0 1.060768216957812 3.8372801552444007 4.916656077599983 0 0 0
357 0 2 0 0.04607903559490366 2.2719757747277822 8.34969780969558 0 0 0
29 0 2 0 7.047867023367801 1.238130287325675 5.293144825778846 0 0 0
28 0 1 0 6.173775275297175 0.9152637612575147 5.414818076531597 0 0 0
358 0 1 0 5.396508317627987 2.670651086635035 7.303291333442494 0 0 0
359 0 2 0 5.8197312534198495 2.0144439356290214 6.752179384489391 0 0 0
360 0 2 0 5.729259821597127 2.671585901998136 8.219229792686942 0 0 0
58 0 1 0 8.780005448982918 0.7261738278257025 5.0073211012031225 0 0 0
59 0 2 0 9.157222852283873 1.1958566948107119 5.748029750477701 0 0 0
361 0 1 0 9.768954995161467 2.317878562116475 7.051633096075081 0 0 0
363 0 2 0 9.559574082285774 3.2200126484677227 6.668024762965369 0 0 0
362 0 2 0 10.719517511027123 2.4094774885638457 7.270374709143838 0 0 0
53 0 2 0 10.942897624203182 3.901894023488407 4.834047981819068 0 0 0
392 0 2 0 8.508383320388274 2.154805271218223 8.361577716479117 0 0 0
394 0 1 0 12.420029324119943 2.8642114350148953 7.739060464865043 0 0 0
396 0 2 0 12.527807731556727 3.6073384523286216 7.081223818927582 0 0 0
66 0 2 0 12.774821026523686 1.365492756986249 6.5852489352275585 0 0 0
94 0 1 0 15.5523320955018 0.6581397806563102 5.613179218571683 0 0 0
399 0 2 0 16.003507222845343 3.6229490753875764 7.07091732926881 0 0 0
395 0 2 0 13.258320050829747 2.6420597225961715 8.187333641592957 0 0 0
65 0 2 0 13.782873313437918 0.8582983148617688 5.612889316051017 0 0 0
64 0 1 0 12.921312206279758 0.64910560044223 5.932907958074219 0 0 0
95 0 2 0 15.869268237110093 1.339897732621563 6.211136003075506 0 0 0
96 0 2 0 16.10227117396863 0.7540116783378469 4.832710775957841 0 0 0
397 0 1 0 16.284418205479113 2.7230123447374663 7.272561507470336 0 0 0
100 0 1 0 19.57056666955493 0.4904090433422673 5.361047910806983 0 0 0
398 0 2 0 17.29902736367682 2.6522827446731316 7.323080074375522 0 0 0
430 0 1 0 19.091160389724934 2.5057079931433717 7.10402171586773 0 0 0
431 0 2 0 18.999303061723463 1.7781106372431936 6.5216763732889715 0 0 0
432 0 2 0 19.197701184699792 3.3268874752591153 6.665067288557401 0 0 0
131 0 2 0 2.679395117233464 7.761920343130642 4.514140402991508 0 0 0
132 0 2 0 1.059679405816833 7.563420942734084 4.9706260405262865 0 0 0
130 0 1 0 2.011528952236888 7.437369661198291 5.167021308463654 0 0 0
25 0 1 0 2.515034584316445 5.358762689347855 6.621801028043108 0 0 0
26 0 2 0 2.475833980670732 6.055607233165864 5.938403575038577 0 0 0
27 0 2 0 3.375947534981063 5.591430566712095 7.1338460150354175 0 0 0
344 0 2 0 1.2759880583558527 5.4484928086795 7.807762972082612 0 0 0
8 0 2 0 5.894366060809673 4.147899796057443 6.340978639765105 0 0 0
48 0 2 0 7.333505750849007 4.536271380381414 4.624210429586465 0 0 0
9 0 2 0 5.188561856759278 4.779389438430824 4.99622818685192 0 0 0
7 0 1 0 5.932092155977277 4.873821859487852 5.602169940554244 0 0 0
136 0 1 0 5.9054289831119195 7.675718722527332 5.507250179694601 0 0 0
137 0 2 0 5.911603206467427 6.6874578811804115 5.658261389490382 0 0 0
138 0 2 0 6.837077210424913 7.808818229902032 5.155930943668756 0 0 0
337 0 1 0 4.7123954974075 5.677770777288382 8.31445690214233 0 0 0
149 0 2 0 10.256039309601999 7.842518004147561 4.3898307440298625 0 0 0
61 0 1 0 9.170035080816323 4.977948911073698 6.805626557398105 0 0 0
63 0 2 0 8.44985055928794 5.024863982478432 7.483934705052852 0 0 0
167 0 2 0 8.900581340870856 6.646549579576397 5.84330833796349 0 0 0
62 0 2 0 9.893649840138147 5.497643530576776 7.281191234331874 0 0 0
166 0 1 0 8.819326142503408 7.504151560940548 5.429820134891012 0 0 0
373 0 1 0 11.643039779785841 5.908681173000622 8.25431618123802 0 0 0
44 0 2 0 12.975141730404337 4.791494134863667 5.280148747224899 0 0 0
43 0 1 0 12.200611767389498 4.70311124080668 5.881661954516677 0 0 0
173 0 2 0 12.194166155334688 7.6830072485704815 5.149368732729424 0 0 0
45 0 2 0 12.196786915397977 5.587208041057886 6.159606483957205 0 0 0
416 0 2 0 14.946091342549602 5.972246388820195 7.8864582444414335 0 0 0
202 0 1 0 15.467870262628503 7.914335772464532 5.1737864491936545 0 0 0
172 0 1 0 12.819346055560992 7.473942119752683 5.85275138312352 0 0 0
174 0 2 0 13.701476934715426 7.5497311727283805 5.4680964045534015 0 0 0
99 0 2 0 15.935591171517276 6.3138795187940095 5.996250317983108 0 0 0
97 0 1 0 16.013633782172164 5.58714947285776 6.653086092323762 0 0 0
204 0 2 0 16.04488524183829 7.911861291014156 4.439096846001533 0 0 0
81 0 2 0 18.500500545104146 4.605718426521403 5.124574354995827 0 0 0
79 0 1 0 19.145956757409717 4.734514783187379 5.806743532429965 0 0 0
209 0 2 0 18.864810498276878 7.388078503231837 4.6952041597905865 0 0 0
80 0 2 0 19.434428830633877 5.646577115131444 5.676479457311371 0 0 0
98 0 2 0 16.89281165521444 5.433359248709346 6.929063150544405 0 0 0
208 0 1 0 19.4531663059759 7.173030337061962 5.416864464285827 0 0 0
210 0 2 0 19.18982996336225 7.8079885175041115 6.127618412074653 0 0 0
410 0 2 0 18.960507474589644 5.716368710844774 8.257491936292576 0 0 0
120 0 2 0 2.234955073493546 11.352960016332098 4.50597612407023 0 0 0
433 0 1 0 2.8430848154337145 9.205002950660052 7.0309726599928455 0 0 0
435 0 2 0 2.722122277435082 8.54695207255734 6.350179892735247 0 0 0
434 0 2 0 3.787321305256023 9.069943162000197 7.207801731329224 0 0 0
135 0 2 0 3.1303135281803005 10.954344747746072 6.756098342774408 0 0 0
133 0 1 0 3.1055156053056234 11.883839893799992 6.55080882005194 0 0 0
189 0 2 0 -0.01650008680227085 11.224924553262593 5.615968018197953 1 0 0
125 0 2 0 4.88190856986869 10.987201630061307 4.4701530030216885 0 0 0
466 0 1 0 5.755998321976208 9.29206872879178 7.580344200319017 0 0 0
468 0 2 0 5.787996645594897 8.690128205097933 6.823814975498908 0 0 0
467 0 2 0 6.178159719963039 10.110239617007862 7.265571852521899 0 0 0
116 0 2 0 7.016008336247215 11.537461325286985 5.274542728072504 0 0 0
115 0 1 0 6.177923879671809 11.457869549803583 5.722799904033774 0 0 0
168 0 2 0 8.912801353352549 8.174956313637418 6.127621359835668 0 0 0
469 0 1 0 9.371750996057907 9.31430566931659 7.212157273157351 0 0 0
471 0 2 0 10.299733912736617 9.359989174644786 7.343235015654294 0 0 0
470 0 2 0 9.274230698960546 10.269546347863836 7.073123221989375 0 0 0
152 0 2 0 11.902946587798919 11.049232365928654 5.09417480259081 0 0 0
502 0 1 0 12.126056216292122 9.287031380626157 7.703102874151386 0 0 0
504 0 2 0 12.23587066294855 10.076843639116818 7.110914506817634 0 0 0
503 0 2 0 12.501405991997183 8.623790632560683 7.094903340486869 0 0 0
203 0 2 0 15.763793294178246 8.542077639985692 5.844827120799165 0 0 0
507 0 2 0 15.701487468797563 9.26256049799334 8.069162837105313 0 0 0
151 0 1 0 12.705099112106566 11.114119640392007 5.599799424732205 0 0 0
153 0 2 0 13.379909519539469 10.648863260298745 5.136441040082591 0 0 0
207 0 2 0 16.195031703028913 11.092471169086323 6.772578445168074 0 0 0
198 0 2 0 18.241535275674696 11.01464966507056 4.332736405079661 0 0 0
505 0 1 0 16.184330258374278 9.402102728898267 7.236784176865431 0 0 0
506 0 2 0 17.119518535209554 9.262492561195309 7.405918887439035 0 0 0
538 0 1 0 18.903919364347207 8.836957328767108 7.3027553749781315 0 0 0
539 0 2 0 19.74285066067449 8.763310244351871 7.805572714051754 0 0 0
540 0 2 0 18.91492376237192 9.729264905118509 6.953804698809414 0 0 0
187 0 1 0 19.198422021264395 11.37419579838616 6.0007495547715415 0 0 0
134 0 2 0 3.8386690392732623 12.277522001597974 7.058742773766415 0 0 0
453 0 2 0 1.5888889159536077 12.469473406787024 7.744083521401682 0 0 0
238 0 1 0 2.027794756264752 14.157536795514726 5.240238465681681 0 0 0
239 0 2 0 1.0481433589235327 13.968096648656605 5.183911531370049 0 0 0
240 0 2 0 2.518596089942413 13.293621179079656 5.376700905180821 0 0 0
542 0 2 0 2.4058047391244313 15.410404045409527 6.557033669314336 0 0 0
541 0 1 0 2.6139282192010223 15.982754326814824 7.28792441166074 0 0 0
451 0 1 0 0.8278495078508296 12.597061972446665 8.287659410671457 0 0 0
543 0 2 0 3.5111683473940887 15.775865898189988 7.43260644830962 0 0 0
246 0 2 0 5.263120599098493 14.797233985228608 4.545048677873212 0 0 0
117 0 2 0 5.817742020766315 12.32340751011582 5.632496752199958 0 0 0
244 0 1 0 5.881604032776635 14.401737756785229 5.1482101163446226 0 0 0
276 0 2 0 7.774226495742125 14.425829077573844 4.922905417377219 0 0 0
245 0 2 0 5.793562027055133 14.870667053071191 5.995423665641263 0 0 0
575 0 2 0 5.907067269532875 15.688934462632373 7.835865967499645 0 0 0
489 0 2 0 8.665787034428343 12.42435083217066 8.246592113458195 0 0 0
169 0 1 0 9.518978884636667 12.046189250695374 6.501474428054354 0 0 0
274 0 1 0 8.732672703485386 14.484758402642885 5.11006245804314 0 0 0
170 0 2 0 9.48350880298715 12.931691507451879 6.114546606526513 0 0 0
171 0 2 0 10.419408977625348 12.077866829397086 6.928474828724114 0 0 0
275 0 2 0 8.869210593737728 15.105053396553446 5.895751737390813 0 0 0
611 0 2 0 10.954790015596634 15.678009958648115 7.263395967627392 0 0 0
578 0 2 0 8.496993694248044 15.823005991236966 7.786073617911323 0 0 0
610 0 1 0 11.85857016863624 15.808401963489958 6.960320443458612 0 0 0
282 0 2 0 12.533522597690807 13.084983949908084 5.017370130851155 0 0 0
280 0 1 0 12.51182765200125 14.028816199922213 5.0277365423180305 0 0 0
311 0 2 0 14.669854652462574 14.245736392690393 4.904212068608757 0 0 0
206 0 2 0 15.321424870944208 12.188036675675487 7.468379758050633 0 0 0
310 0 1 0 15.568508448854788 14.172123124235387 5.13423059151268 0 0 0
312 0 2 0 15.697676091464954 13.367264575618794 5.6860408382547325 0 0 0
612 0 2 0 12.096872102796276 15.093365377235251 6.4170694494593645 0 0 0
614 0 2 0 16.02356770928381 15.456980999546651 6.342887042391777 0 0 0
645 0 2 0 14.739756488174292 15.661865397128025 8.084507146522743 0 0 0
644 0 2 0 13.240691991118489 15.633739704255937 8.054023378522476 0 0 0
205 0 1 0 16.0582908002394 12.065176831923141 6.834234257644116 0 0 0
188 0 2 0 19.189092042218125 12.326804342910512 5.819696676439 0 0 0
518 0 2 0 17.641735734489675 12.332925087552871 7.781568331377743 0 0 0
318 0 2 0 19.116060189625657 14.39602796642705 4.422407544768329 0 0 0
316 0 1 0 19.488763345200326 14.026153402580592 5.188080950071593 0 0 0
317 0 2 0 19.481897286172174 14.709436911479148 5.928600738226425 0 0 0
648 0 2 0 19.50437535420704 15.419368478073723 8.056807598819276 0 0 0
613 0 1 0 16.44264415675922 15.938922384697786 7.082593181063469 0 0 0
646 0 1 0 19.12984724942034 15.711466506169337 7.19070094518456 0 0 0
647 0 2 0 18.161270141767233 15.533753108930513 7.2665211646795616 0 0 0
24 0 2 0 2.3471244389988506 19.964897450941677 5.859737572824383 0 -1 0
241 0 1 0 2.6634124149612717 18.685594524309945 6.786615054364255 0 0 0
242 0 2 0 2.5822094685577928 17.635379106773883 6.883153260137811 0 0 0
560 0 2 0 1.3601529194201165 19.12980814288675 8.149216491402974 0 0 0
243 0 2 0 3.4127392769120775 18.853373169888183 7.387790436457945 0 0 0
574 0 1 0 5.276843904257537 16.156816163013154 7.266045684449707 0 0 0
30 0 2 0 6.229586513679236 20.00102527780097 5.755175925783366 0 -1 0
224 0 2 0 5.262297717422057 18.269695642796336 4.866606610967129 0 0 0
223 0 1 0 6.042072349986166 18.07156286029826 5.467677992448684 0 0 0
225 0 2 0 6.753595363121466 17.876203083991978 4.905944980776452 0 0 0
576 0 2 0 5.7569793692817095 16.678467121526175 6.562718563011211 0 0 0
60 0 2 0 8.639854744525016 19.922458757335065 5.535425934965102 0 -1 0
577 0 1 0 9.12371349519527 16.024867733766033 7.051565413761309 0 0 0
270 0 2 0 11.40386269552697 17.505083231939988 4.32938542782926 0 0 0
278 0 2 0 7.997773109951881 18.838477859676996 7.268343431216889 0 0 0
277 0 1 0 8.802674333818848 18.66208202082793 6.70781402303596 0 0 0
579 0 2 0 9.208309585601647 17.021102758298476 6.904757875964489 0 0 0
279 0 2 0 9.582688151125488 18.957908555698893 7.161218035888421 0 0 0
260 0 2 0 12.780332684105105 18.88388075649183 5.842250382075378 0 0 0
261 0 2 0 12.191398778662872 17.44977763714324 6.335673455352079 0 0 0
299 0 2 0 13.702343186435092 17.459570714980824 4.600096384002248 0 0 0
259 0 1 0 12.567513098897551 17.980888088753233 5.569015135538436 0 0 0
315 0 2 0 15.159596777924923 18.68917602328357 7.584761827768049 0 0 0
313 0 1 0 15.958870229722965 18.512404967270992 7.038940182632394 0 0 0
314 0 2 0 15.906067973540754 19.21968805870745 6.298433499593096 0 0 0
633 0 2 0 13.035960438309028 19.585810483221266 8.359110907339163 0 0 0
102 0 2 0 19.509747799988663 19.521953533069738 5.502240826717707 0 -1 0
615 0 2 0 16.36400506191224 16.86651262448907 6.768390878623918 0 0 0
297 0 2 0 20.008838197018548 17.653602170175176 5.037047725095201 0 0 0
305 0 2 0 17.801679935069213 17.496296582327886 4.577519530097264 0 0 0
295 0 1 0 19.248644534976247 17.930446701403536 5.53550178641109 0 0 0
296 0 2 0 19.274223564112066 17.381758916328028 6.3006534237597025 0 0 0
627 0 2 0 17.369520495139284 19.0686381378962 7.840393410063849 0 0 0
355 0 1 0 0.8872532857178429 2.0045004208116253 8.822292291779501 0 0 0
335 0 2 0 1.3277180817571568 3.214855628640852 10.200127933733611 0 0 0
347 0 2 0 2.96614336005901 0.7067134336263089 10.737111544508753 0 0 0
348 0 2 0 1.4685852073028363 0.6350828363789413 11.059316012869925 0 0 0
346 0 1 0 2.371099109873275 0.7030807490111959 11.439214272517667 0 0 0
561 0 2 0 0.7229353605260512 0.3926793742999122 8.767982747399953 0 1 0
328 0 1 0 4.725018897759396 1.3508225440430983 9.979086213009685 0 0 0
329 0 2 0 4.433898198176149 2.259785093963333 10.071688563190667 0 0 0
330 0 2 0 5.380052234307591 1.1161891585824433 10.733104468686662 0 0 0
393 0 2 0 7.592749043235834 1.0876468028950466 8.795498048722214 0 0 0
391 0 1 0 7.807046304397983 1.9700969110130635 8.984138735519409 0 0 0
353 0 2 0 7.1842924891951165 0.698422572292486 11.875969347927288 0 0 0
352 0 1 0 6.299734594755656 0.4151527084226535 12.210751520507843 0 0 0
372 0 2 0 8.39034451660486 3.042241094711541 10.564523327893868 0 0 0
382 0 1 0 9.05204439281416 1.070554624277835 11.906132860734514 0 0 0
366 0 2 0 10.354279110723109 1.2348398125574034 10.846147929790337 0 0 0
364 0 1 0 11.11208340619348 1.263104640399234 10.217056155006256 0 0 0
378 0 2 0 11.609598679150539 3.3438756319657483 10.043515280157143 0 0 0
371 0 2 0 9.549766757690518 3.880512676019982 10.966807316512668 0 0 0
365 0 2 0 11.882254956429048 1.0051791243401047 10.727969113346338 0 0 0
370 0 1 0 8.635138411495296 3.7969723579946835 11.062103383307196 0 0 0
383 0 2 0 9.131665447459607 0.22217265656547486 12.40618011308771 0 0 0
429 0 2 0 15.277213637170279 2.324051276281406 8.899428016275545 0 0 0
427 0 1 0 14.475076529176325 2.085049478260778 9.37392829464906 0 0 0
428 0 2 0 14.597759511991978 2.606412013132119 10.172855012781861 0 0 0
418 0 1 0 15.837366143753798 0.7326692178853752 12.058716032470697 0 0 0
632 0 2 0 14.223941579757609 0.37944989100687876 9.162744010994071 0 1 0
389 0 2 0 13.824806550237268 0.9542419019813334 12.396619898590213 0 0 0
388 0 1 0 12.937085550642507 0.7252074228076212 12.326481766036533 0 0 0
400 0 1 0 17.655421905866685 1.4610716823446714 9.912739795871177 0 0 0
414 0 2 0 17.750459640752762 3.319812503778776 10.491905926315805 0 0 0