LAMMPS (23 Jun 2022)
echo both

include		in.partitions
variable        pid world 0
include		in.temp
variable        temperature equal 270
variable        tempDamp equal 0.100 # this is 0.1 ps
include		in.pressure
variable        pressure equal 5066.25
variable        pressureDamp equal 1.0 #this is 1ps
include		in.seed
variable        seed world 745823

units           metal
atom_style	full
include		in.box
read_data       iceIII.data
Reading data file ...
  orthogonal box = (0 0 0) to (19.991053 19.991053 20.800772)
  1 by 1 by 1 MPI processor grid
  reading atoms ...
  972 atoms
Finding 1-2 1-3 1-4 neighbors ...
  special bond factors lj:    0        0        0       
  special bond factors coul:  0        0        0       
     0 = max # of 1-2 neighbors
     0 = max # of 1-3 neighbors
     0 = max # of 1-4 neighbors
     1 = max # of special neighbors
  special bonds CPU = 0.000 seconds
  read_data CPU = 0.005 seconds
include 	in.setup
variable	out_freq equal 500
variable	out_freq2 equal 500

timestep        0.0005

neigh_modify    delay 7 every 1

include         in.deepmd
# This is deepMD model

# create groups ###
#group ox type 2
#group hy type 1

mass 2 15.999
mass 1 1.008

pair_style      deepmd ../graph.pb
Summary of lammps deepmd module ...
  >>> Info of deepmd-kit:
  installed to:       /u/sigbjobo/software/DEEPMD_FROM_SOURCE/deepmd-kit/install
  source:             v2.1.3
  source branch:       master
  source commit:      5a32c49
  source commit at:   2022-07-01 09:52:58 +0800
  surpport model ver.:1.1 
  build float prec:   double
  build with tf inc:  /u/sigbjobo/software/DEEPMD_FROM_SOURCE/tensorflow/install/include;/u/sigbjobo/software/DEEPMD_FROM_SOURCE/tensorflow/install/include
  build with tf lib:  /u/sigbjobo/software/DEEPMD_FROM_SOURCE/tensorflow/install/lib/libtensorflow_cc.so;/u/sigbjobo/software/DEEPMD_FROM_SOURCE/tensorflow/install/lib/libtensorflow_framework.so
  set tf intra_op_parallelism_threads: 0
  set tf inter_op_parallelism_threads: 0
  >>> Info of lammps module:
  use deepmd-kit at:  /u/sigbjobo/software/DEEPMD_FROM_SOURCE/deepmd-kit/install
  source:             v2.1.3
  source branch:      master
  source commit:      5a32c49
  source commit at:   2022-07-01 09:52:58 +0800
  build float prec:   double
  build with tf inc:  /u/sigbjobo/software/DEEPMD_FROM_SOURCE/tensorflow/install/include;/u/sigbjobo/software/DEEPMD_FROM_SOURCE/tensorflow/install/include
  build with tf lib:  /u/sigbjobo/software/DEEPMD_FROM_SOURCE/tensorflow/install/lib/libtensorflow_cc.so;/u/sigbjobo/software/DEEPMD_FROM_SOURCE/tensorflow/install/lib/libtensorflow_framework.so
pair_coeff      * *

bond_style      none
angle_style     none
dihedral_style  none
improper_style  none
neigh_modify exclude none


neighbor        2.0 bin
neigh_modify    every 10 delay 0 check no

thermo          ${out_freq}
thermo          500
thermo_style 	custom step temp pe etotal epair emol press lx ly lz xy xz yz vol pxx pyy pzz pxy pxz pyz cella cellb cellc cellalpha cellbeta cellgamma

restart 	${out_freq} restart.lmp.${pid} restart2.lmp.${pid}
restart 	500 restart.lmp.${pid} restart2.lmp.${pid}
restart 	500 restart.lmp.0 restart2.lmp.${pid}
restart 	500 restart.lmp.0 restart2.lmp.0


include         in.dump
dump            myDump all atom ${out_freq2} dump.water.${pid}
dump            myDump all atom 500 dump.water.${pid}
dump            myDump all atom 500 dump.water.0
dump            myDump2 all dcd ${out_freq2} dump.dcd
dump            myDump2 all dcd 500 dump.dcd
dump_modify     myDump append yes
dump_modify     myDump2 append yes


timer           timeout 04:55:00 every 1000
New timer settings: style=normal  mode=nosync  timeout=04:55:00

fix             2 all nph aniso ${pressure} ${pressure} ${pressureDamp}
fix             2 all nph aniso 5066.25 ${pressure} ${pressureDamp}
fix             2 all nph aniso 5066.25 5066.25 ${pressureDamp}
fix             2 all nph aniso 5066.25 5066.25 1
fix             3 all temp/csvr ${temperature} ${temperature} ${tempDamp} ${seed}
fix             3 all temp/csvr 270 ${temperature} ${tempDamp} ${seed}
fix             3 all temp/csvr 270 270 ${tempDamp} ${seed}
fix             3 all temp/csvr 270 270 0.1 ${seed}
fix             3 all temp/csvr 270 270 0.1 745823
velocity 	all create ${temperature} ${seed} dist gaussian
velocity 	all create 270 ${seed} dist gaussian
velocity 	all create 270 745823 dist gaussian

run             400000

CITE-CITE-CITE-CITE-CITE-CITE-CITE-CITE-CITE-CITE-CITE-CITE-CITE

Your simulation uses code contributions which should be cited:

- USER-DEEPMD package:

@article{Wang_ComputPhysCommun_2018_v228_p178,
  author = {Wang, Han and Zhang, Linfeng and Han, Jiequn and E, Weinan},
  doi = {10.1016/j.cpc.2018.03.016},
  url = {https://doi.org/10.1016/j.cpc.2018.03.016},
  year = 2018,
  month = {jul},
  publisher = {Elsevier {BV}},
  volume = 228,
  journal = {Comput. Phys. Commun.},
  title = {{DeePMD-kit: A deep learning package for many-body potential energy representation and molecular dynamics}},
  pages = {178--184}
}

CITE-CITE-CITE-CITE-CITE-CITE-CITE-CITE-CITE-CITE-CITE-CITE-CITE

Generated 0 of 1 mixed pair_coeff terms from geometric mixing rule
Neighbor list info ...
  update every 10 steps, delay 0 steps, check no
  max neighbors/atom: 2000, page size: 100000
  master list distance cutoff = 8
  ghost atom cutoff = 8
  binsize = 4, bins = 5 5 6
  1 neighbor lists, perpetual/occasional/extra = 1 0 0
  (1) pair deepmd, perpetual
      attributes: full, newton on
      pair build: full/bin
      stencil: full/bin/3d
      bin: standard
Per MPI rank memory allocation (min/avg/max) = 7.648 | 7.648 | 7.648 Mbytes
   Step          Temp          PotEng         TotEng         E_pair         E_mol          Press            Lx             Ly             Lz             Xy             Xz             Yz           Volume          Pxx            Pyy            Pzz            Pxy            Pxz            Pyz           Cella          Cellb          Cellc        CellAlpha       CellBeta      CellGamma   
         0   270           -175.65013     -141.762       -175.65013      0              37872.759      19.991053      19.991053      20.800772      0              0              0              8312.8663      41637.12       42137.296      29843.861     -62.932054     -1050.3132     -453.62656      19.991053      19.991053      20.800772      90             90             90           
       500   265.22875     -160.76664     -127.47736     -160.76664      0              2272.2212      19.930187      19.838496      20.417469      0              0              0              8072.7601      2970.9262      3287.6668      558.07065     -410.67115     -761.37897     -1184.8523      19.930187      19.838496      20.417469      90             90             90           
      1000   278.28807     -159.67392     -124.74554     -159.67392      0              2084.7356      20.056427      19.947088      20.213915      0              0              0              8086.9267      3284.4104      1873.355       1096.4414     -1774.2718      599.07449      293.83845      20.056427      19.947088      20.213915      90             90             90           
      1500   264.56107     -159.78908     -126.58359     -159.78908      0              14375.278      20.179077      20.071955      20.215034      0              0              0              8187.766       12007.654      16617.885      14500.294      54.969824     -113.38133     -381.83957      20.179077      20.071955      20.215034      90             90             90           
      2000   261.16733     -156.86089     -124.08137     -156.86089      0              1794.0173      20.109565      20.057462      20.238017      0              0              0              8162.9399      2104.3172      3553.1254     -275.3906       476.1808       70.58524       178.24967      20.109565      20.057462      20.238017      90             90             90           
      2500   275.04335     -157.24002     -122.71888     -157.24002      0              7441.3626      19.886069      20.08277       20.339989      0              0              0              8123.1273      10721.56       3533.4117      8069.1164      943.80147      3388.2122     -594.47963      19.886069      20.08277       20.339989      90             90             90           
      3000   268.46        -157.01892     -123.32408     -157.01892      0              5436.0519      19.907647      20.1155        20.518096      0              0              0              8216.5183      6361.602       4698.4345      5248.1193      286.89119     -1725.9629      3953.9031      19.907647      20.1155        20.518096      90             90             90           
      3500   257.33247     -156.34202     -124.04381     -156.34202      0              4073.1403      20.122204      19.912124      20.417615      0              0              0              8180.8448      3883.9793      1950.9791      6384.4624      529.88895     -1245.7688      1173.9978      20.122204      19.912124      20.417615      90             90             90           
      4000   273.89629     -158.94832     -124.57116     -158.94832      0              4737.2579      20.246472      19.884689      20.304806      0              0              0              8174.6097      5739.3578      5396.7018      3075.714       1643.9962     -2712.0094     -929.61934      20.246472      19.884689      20.304806      90             90             90           
      4500   275.03498     -159.34987     -124.82979     -159.34987      0              8388.0403      20.045775      20.078426      20.216888      0              0              0              8137.047       10341.918      5824.2357      8997.9676      1296.2996      542.2033      -2739.1943      20.045775      20.078426      20.216888      90             90             90           
      5000   266.35678     -157.70075     -124.26988     -157.70075      0              3603.3836      19.896993      20.160851      20.270234      0              0              0              8131.2079      2275.1415      5308.4425      3226.5668     -192.97149      1988.4666      326.01185      19.896993      20.160851      20.270234      90             90             90           
      5500   269.3252      -159.44763     -125.6442      -159.44763      0              3950.1197      19.913216      20.101303      20.421396      0              0              0              8174.309       7005.7732      2421.2546      2423.3313      325.1549       2887.9763      92.872928      19.913216      20.101303      20.421396      90             90             90           
      6000   268.76248     -158.21214     -124.47933     -158.21214      0              4361.5726      20.05508       19.938387      20.532498      0              0              0              8210.2464      1214.6864      8357.2855      3512.746      -1212.3947     -2313.1798      27.093252      20.05508       19.938387      20.532498      90             90             90           
      6500   265.20841     -158.56329     -125.27656     -158.56329      0              3799.4815      20.069237      19.876566      20.425578      0              0              0              8147.9164      2447.689       6507.2467      2443.5089      2152.7669     -1478.5737     -2096.3283      20.069237      19.876566      20.425578      90             90             90           
      7000   270.33338     -156.96763     -123.03766     -156.96763      0              2999.7226      20.045341      20.233358      20.283782      0              0              0              8226.7884      584.52804      4319.9842      4094.6555     -621.07672     -531.27796      2274.2605      20.045341      20.233358      20.283782      90             90             90           
      7500   274.93565     -156.83461     -122.327       -156.83461      0              8305.203       19.911499      20.370615      20.060926      0              0              0              8136.9017      14205.861      1924.0714      8785.676       352.53656      126.12804     -739.43823      19.911499      20.370615      20.060926      90             90             90           
      8000   268.09867     -158.27485     -124.62536     -158.27485      0              2706.8913      20.077183      20.117132      20.145361      0              0              0              8136.6173      2546.4438      2593.8059      2980.4241     -189.80519     -2639.8409     -31.448749      20.077183      20.117132      20.145361      90             90             90           
      8500   263.83664     -158.49879     -125.38423     -158.49879      0              5329.9379      20.197659      19.812461      20.384755      0              0              0              8157.2723      519.07717      6813.8953      8656.8413     -1232.9603      1403.8224     -27.163319      20.197659      19.812461      20.384755      90             90             90           
      9000   280.58555     -157.97945     -122.76271     -157.97945      0              6145.8803      20.142994      19.805129      20.524284      0              0              0              8187.8468      3000.2265      9528.6761      5908.7382     -923.80608      399.8437       4020.5111      20.142994      19.805129      20.524284      90             90             90           
      9500   270.68418     -156.5043      -122.53029     -156.5043       0              8305.8218      19.976044      19.913202      20.421347      0              0              0              8123.3463      6945.6627      10206.326      7765.4772      3710.4103     -1336.3171     -262.61508      19.976044      19.913202      20.421347      90             90             90           
     10000   277.72564     -157.14639     -122.2886      -157.14639      0              4731.5997      20.02926       20.120312      20.304841      0              0              0              8182.7483      6073.8214      1908.4527      6212.5249      446.48311      1798.8988      214.48064      20.02926       20.120312      20.304841      90             90             90           
     10500   289.04367     -157.41002     -121.13169     -157.41002      0              5510.5836      20.152852      20.215435      20.294749      0              0              0              8268.0534      5703.5702      3910.9247      6917.2558      1855.7618     -2369.4752      2205.8716      20.152852      20.215435      20.294749      90             90             90           
     11000   274.83727     -157.32669     -122.83142     -157.32669      0              4886.3207      20.084072      20.030891      20.350913      0              0              0              8187.2099      6897.2143      2924.6671      4837.0807     -1293.7885     -1646.1634     -465.39209      20.084072      20.030891      20.350913      90             90             90           
     11500   269.07304     -158.38163     -124.60984     -158.38163      0              5836.702       20.013364      19.928435      20.368996      0              0              0              8123.869       5366.6911      5193.8214      6949.5934     -278.73617      3040.6357      2871.78        20.013364      19.928435      20.368996      90             90             90           
     12000   268.63271     -156.93763     -123.2211      -156.93763      0              2651.7133      20.062265      20.049449      20.466115      0              0              0              8232.2359      240.78756      7811.8655     -97.513232      581.71997     -926.03135      2704.9127      20.062265      20.049449      20.466115      90             90             90           
     12500   267.01388     -156.30747     -122.79413     -156.30747      0              7472.6609      20.069288      20.059546      20.384823      0              0              0              8206.5384      9073.7632      5944.3734      7399.846       437.1533      -933.53277     -411.56545      20.069288      20.059546      20.384823      90             90             90           
     13000   283.13736     -157.57005     -122.03302     -157.57005      0              5536.2477      20.107948      20.004051      20.223702      0              0              0              8134.7902      6152.5372      6225.3942      4230.8118     -260.45655     -678.78075     -1346.8088      20.107948      20.004051      20.223702      90             90             90           
     13500   274.87861     -158.93534     -124.43489     -158.93534      0              4223.8746      20.219482      20.047858      20.233292      0              0              0              8201.7128      1306.1         9158.2572      2207.2665      573.8751      -1931.1909     -174.46493      20.219482      20.047858      20.233292      90             90             90           
     14000   265.37944     -158.79709     -125.48889     -158.79709      0              3127.0025      20.223902      20.016973      20.308837      0              0              0              8221.4494      5579.9363     -296.47808      4097.5492      369.08742     -2409.1899     -404.1417       20.223902      20.016973      20.308837      90             90             90           
     14500   259.33545     -158.5625      -126.01289     -158.5625       0              3954.8556      19.972805      19.94611       20.442669      0              0              0              8143.9459      4682.6081      5253.4894      1928.4694      1768.0426      1136.8303      904.34382      19.972805      19.94611       20.442669      90             90             90           
     15000   271.13987     -157.41091     -123.37971     -157.41091      0              4063.9497      19.781021      19.957681      20.548479      0              0              0              8112.1959      7440.9387      4106.0443      644.86626     -1147.8628      744.42589      1621.2443      19.781021      19.957681      20.548479      90             90             90           
     15500   270.46765     -158.19779     -124.25096     -158.19779      0              3311.7815      20.054091      20.170862      20.508363      0              0              0              8295.8035      1824.2082      5421.1117      2690.0247     -480.6538      -1365.0745      126.98683      20.054091      20.170862      20.508363      90             90             90           
     16000   277.15126     -157.58459     -122.79889     -157.58459      0              8442.2864      20.146774      20.058285      20.141764      0              0              0              8139.483       9748.1754      5463.4923      10115.191      535.26144      3053.5931      489.34304      20.146774      20.058285      20.141764      90             90             90           
     16500   286.33692     -159.50676     -123.56815     -159.50676      0              4628.7438      20.134057      20.067366      20.156384      0              0              0              8143.9347      2737.1322      5764.4065      5384.6928      31.800924      1118.9218     -3333.1997      20.134057      20.067366      20.156384      90             90             90           
     17000   276.81397     -158.29212     -123.54875     -158.29212      0              311.43321      20.076941      20.068136      20.410129      0              0              0              8223.3795      1576.6645      1035.9092     -1678.2741     -741.66383     -653.86508      782.48189      20.076941      20.068136      20.410129      90             90             90           
     17500   264.42567     -156.95442     -123.76593     -156.95442      0              3085.454       19.980499      20.019512      20.481126      0              0              0              8192.4473      333.83911      6569.8095      2352.7135      1085.7932     -499.03076      2578.6059      19.980499      20.019512      20.481126      90             90             90           
     18000   260.71776     -158.34587     -125.62277     -158.34587      0              3347.2043      19.973596      20.028277      20.396187      0              0              0              8159.2236      3984.2544      2994.1466      3063.2119      2199.672      -792.57444     -1191.2743      19.973596      20.028277      20.396187      90             90             90           
     18500   275.072       -159.57871     -125.05398     -159.57871      0              5117.3547      20.15534       20.026876      20.171623      0              0              0              8142.2454      5563.0358      4847.1202      4941.9081      1586.4648      1853.9025     -522.13311      20.15534       20.026876      20.171623      90             90             90           
     19000   261.26985     -157.39879     -124.60639     -157.39879      0              1867.0788      20.35876       20.106937      20.101131      0              0              0              8228.4438      326.6283       1546.8896      3727.7184     -1275.7018     -478.52604     -1073.2205      20.35876       20.106937      20.101131      90             90             90           
     19500   271.55514     -158.09674     -124.01342     -158.09674      0              5804.6755      20.208934      20.057286      20.261907      0              0              0              8212.8879      6514.0121      5255.3158      5644.6985      252.26605     -1889.6494      2164.4937      20.208934      20.057286      20.261907      90             90             90           
     20000   263.06855     -158.25723     -125.23908     -158.25723      0              4407.7958      19.784759      19.938902      20.483852      0              0              0              8080.6006      8771.1575      1952.9764      2499.2534     -729.59944      1892.3059     -142.63599      19.784759      19.938902      20.483852      90             90             90           
     20500   264.20167     -158.45258     -125.29221     -158.45258      0              4250.4668      19.821387      20.088795      20.647106      0              0              0              8221.4253      7691.0391      5044.8824      15.478873     -733.17884     -3206.9265      861.74208      19.821387      20.088795      20.647106      90             90             90           
     21000   268.25991     -158.64132     -124.97159     -158.64132      0              4944.5073      20.032067      20.119608      20.420055      0              0              0              8230.0444      5373.4031      6680.2767      2779.8422      431.88975     -444.30938     -232.40564      20.032067      20.119608      20.420055      90             90             90           
     21500   265.82675     -159.67161     -126.30727     -159.67161      0              6107.5574      20.178633      20.076617      20.178669      0              0              0              8174.7562      6763.6654      5764.2873      5794.7196     -397.46874     -1887.974      -753.67416      20.178633      20.076617      20.178669      90             90             90           
     22000   276.47902     -158.89384     -124.19251     -158.89384      0              5375.5548      20.122061      20.042063      20.165483      0              0              0              8132.4897      6599.9862      3707.1919      5819.4863      122.59763      2598.5333      378.77534      20.122061      20.042063      20.165483      90             90             90           
     22500   274.99837     -158.56289     -124.04741     -158.56289      0              7678.9435      20.101983      20.070905      20.360225      0              0              0              8214.6378      8353.6379      6895.4557      7787.737       625.33148      59.959546      1636.6312      20.101983      20.070905      20.360225      90             90             90           
     23000   255.14374     -157.78086     -125.75736     -157.78086      0              4122.8069      20.074581      19.98155       20.484349      0              0              0              8216.7077      2062.3591      7490.7233      2815.3384     -160.07107      1412.0206      509.56565      20.074581      19.98155       20.484349      90             90             90           
     23500   262.41407     -156.76287     -123.82686     -156.76287      0              3797.6788      20.05755       19.87467       20.399808      0              0              0              8132.1221      8163.7495     -1175.3752      4404.6622      91.453856     -434.44954     -1051.2083      20.05755       19.87467       20.399808      90             90             90           
     24000   278.04992     -157.36687     -122.46838     -157.36687      0              1518.4483      20.072669      20.072393      20.327432      0              0              0              8190.0543     -1029.7231      4443.6999      1141.3681     -2062.623      -847.06658      3334.6746      20.072669      20.072393      20.327432      90             90             90           
     24500   285.37371     -158.46078     -122.64307     -158.46078      0              2802.2615      20.015692      20.238855      20.261417      0              0              0              8207.7927      4403.0851      1558.359       2445.3405      1271.5324     -857.78258      2062.5109      20.015692      20.238855      20.261417      90             90             90           
     25000   276.48764     -158.16947     -123.46706     -158.16947      0              5916.7005      20.021739      20.168642      20.279347      0              0              0              8189.0294      3344.9775      7556.0789      6849.0451      295.18028     -960.20506      2306.6377      20.021739      20.168642      20.279347      90             90             90           
     25500   271.36086     -156.33422     -122.27529     -156.33422      0              3849.1561      20.129731      19.975073      20.335569      0              0              0              8176.7868      1891.8236      7454.4218      2201.223      -1048.3719     -553.40241     -4665.2211      20.129731      19.975073      20.335569      90             90             90           
     26000   276.66204     -157.09332     -122.36903     -157.09332      0              3616.891       20.181459      19.947501      20.356664      0              0              0              8194.9753      3689.5771      3784.9667      3376.1294      878.36239     -561.33279      1158.1693      20.181459      19.947501      20.356664      90             90             90           
     26500   268.70175     -158.54663     -124.82144     -158.54663      0              8785.7076      20.103589      20.020881      20.341298      0              0              0              8187.2003      8239.2124      8134.7595      9983.1509     -743.77314      597.89146      744.26622      20.103589      20.020881      20.341298      90             90             90           
     27000   277.23364     -156.94503     -122.149       -156.94503      0              5209.8345      19.981941      20.060532      20.319931      0              0              0              8145.211       7267.18        3068.5717      5293.7517      447.70165      795.54978     -1107.0814      19.981941      20.060532      20.319931      90             90             90           
     27500   275.43452     -158.15042     -123.58019     -158.15042      0              5599.045       19.96705       20.084737      20.443553      0              0              0              8198.5384      3818.3891      7056.5386      5922.2074     -878.42415     -782.04883     -321.15101      19.96705       20.084737      20.443553      90             90             90           
     28000   269.43263     -158.54616     -124.72924     -158.54616      0              5984.3662      20.0737        20.059627      20.593805      0              0              0              8292.5267      8701.1042      4266.6082      4985.3863     -607.09662     -344.99599     -488.30041      20.0737        20.059627      20.593805      90             90             90           
     28500   267.10911     -156.30104     -122.77575     -156.30104      0              4314.3449      19.999673      19.838315      20.300919      0              0              0              8054.5885      3590.9527      3057.2022      6294.8797      702.02312      85.824135      945.27889      19.999673      19.838315      20.300919      90             90             90           
     29000   276.61173     -159.09996     -124.38198     -159.09996      0              6917.9579      20.188931      20.16092       20.220626      0              0              0              8230.3492      8440.7474      5371.4673      6941.6591      2327.7421      2285.1567      1136.6613      20.188931      20.16092       20.220626      90             90             90           
     29500   279.29636     -157.03896     -121.98403     -157.03896      0              2051.5979      20.205145      20.233945      20.264136      0              0              0              8284.5824      915.09906      2333.449       2906.2457      358.37211      1231.9405      533.83589      20.205145      20.233945      20.264136      90             90             90           
     30000   291.28835     -157.11269     -120.55263     -157.11269      0              4380.0198      20.060808      19.960203      20.301436      0              0              0              8129.0567      4643.9748      3145.6691      5350.4156      61.542141      427.8086       842.76957      20.060808      19.960203      20.301436      90             90             90           
     30500   272.10326     -156.2079      -122.05578     -156.2079       0              7762.292       20.050585      19.927136      20.498862      0              0              0              8190.3352      8862.6341      7156.643       7267.5989     -644.2271       1145.5253      507.89431      20.050585      19.927136      20.498862      90             90             90           
     31000   280.8972      -157.53124     -122.27539     -157.53124      0              4309.8667      20.039935      20.010079      20.540263      0              0              0              8236.6595      3993.1627      2675.2686      6261.1687      975.25047      2306.55        2661.8927      20.039935      20.010079      20.540263      90             90             90           
     31500   269.22793     -156.83642     -123.04519     -156.83642      0              1435.8463      20.037688      20.144867      20.410194      0              0              0              8238.7085      3761.8505     -115.01323      660.70167     -234.27692     -2278.4562      917.66782      20.037688      20.144867      20.410194      90             90             90           
     32000   272.9826      -157.86326     -123.60077     -157.86326      0              8059.1109      19.943769      20.008994      20.157191      0              0              0              8043.8233      5546.6495      11723.692      6906.9908      1778.0629      1214.3225     -639.1557       19.943769      20.008994      20.157191      90             90             90           
     32500   271.1137      -157.72672     -123.6988      -157.72672      0              4477.6472      20.242349      20.052708      20.30877       0              0              0              8243.6125      4241.1042      3166.2011      6025.6364     -947.20138     -1046.8494     -1817.0387      20.242349      20.052708      20.30877       90             90             90           
     33000   274.15166     -157.02262     -122.6134      -157.02262      0              1990.2982      20.188591      19.954239      20.3695        0              0              0              8205.8117      5292.6953     -1597.7039      2275.9032      8.2412372     -870.38903     -1837.6111      20.188591      19.954239      20.3695        90             90             90           
     33500   265.59352     -157.31771     -123.98264     -157.31771      0              8251.5536      19.950548      19.955033      20.364243      0              0              0              8107.2873      7835.0202      7581.8783      9337.7621     -1114.2977     -75.019324     -1984.1544      19.950548      19.955033      20.364243      90             90             90           
     34000   264.27953     -159.60402     -126.43387     -159.60402      0              5642.5854      19.919712      20.177123      20.46089       0              0              0              8223.6917      10195.559      4258.9595      2473.2383      863.02921      499.71994      772.01404      19.919712      20.177123      20.46089       90             90             90           
     34500   262.88695     -159.73426     -126.7389      -159.73426      0              5994.5694      20.005164      20.020298      20.392352      0              0              0              8167.3277      6238.0221      6882.0701      4863.6159      1585.4916      248.79156      2075.2153      20.005164      20.020298      20.392352      90             90             90           
     35000   265.53489     -160.7284      -127.40069     -160.7284       0              4653.4273      20.17928       19.894725      20.330935      0              0              0              8162.0825      4440.1867      5076.4267      4443.6686      1200.2681     -2641.6703     -294.43212      20.17928       19.894725      20.330935      90             90             90           
     35500   262.31606     -159.02062     -126.09691     -159.02062      0              5037.3214      20.190912      20.031418      20.321229      0              0              0              8218.9739      4040.2202      5901.9381      5169.806      -212.44314      347.27976      127.42297      20.190912      20.031418      20.321229      90             90             90           
     36000   262.32409     -157.47859     -124.55388     -157.47859      0              2298.4963      19.998405      20.137703      20.284349      0              0              0              8168.9525     -645.75294      3188.489       4352.7527      327.61165      532.77687     -1747.4919      19.998405      20.137703      20.284349      90             90             90           
     36500   277.70502     -158.74691     -123.89171     -158.74691      0             -88.75844       19.976671      20.071315      20.317606      0              0              0              8146.5081     -2979.7955      3845.9078     -1132.3877     -524.15047      2134.366      -592.11845      19.976671      20.071315      20.317606      90             90             90           
     37000   267.31922     -157.81773     -124.26607     -157.81773      0              2709.4835      20.072261      20.036828      20.333472      0              0              0              8177.8063      4200.8364      1460.979       2466.6351     -320.63504     -1033.7816     -346.00055      20.072261      20.036828      20.333472      90             90             90           
     37500   267.75011     -158.32394     -124.71819     -158.32394      0              2456.2272      20.171464      20.065957      20.319391      0              0              0              8224.4708      7081.8599     -2449.1908      2736.0125      826.15229     -1427.954      -1319.6859      20.171464      20.065957      20.319391      90             90             90           
     38000   272.3251      -156.63137     -122.45141     -156.63137      0              2672.5234      20.135712      19.999894      20.279651      0              0              0              8166.8611     -858.21097      6371.3021      2504.479       248.43748     -966.22383     -1463.3885      20.135712      19.999894      20.279651      90             90             90           
     38500   279.53941     -158.41813     -123.3327      -158.41813      0              8415.3517      20.037521      20.011805      20.232166      0              0              0              8112.8347      7376.9225      10709.886      7159.247      -1179.7445     -1078.6982     -2908.9808      20.037521      20.011805      20.232166      90             90             90           
     39000   255.38375     -157.18719     -125.13356     -157.18719      0              2956.0255      20.127011      20.167927      20.427241      0              0              0              8291.8275      767.48169      1615.9949      6484.6        -53.026795     -2060.7038     -852.89188      20.127011      20.167927      20.427241      90             90             90           
     39500   270.59533     -157.6367      -123.67385     -157.6367       0              5058.6142      20.010495      19.968029      20.427907      0              0              0              8162.3819      3082.5654      8990.1178      3103.1595     -955.16204     -650.48533      1484.0882      20.010495      19.968029      20.427907      90             90             90           
     40000   270.98753     -158.13093     -124.11885     -158.13093      0              9009.3866      19.882618      19.927126      20.368963      0              0              0              8070.2533      12687.131      6152.1781      8188.8504      982.79746      573.67021     -698.66114      19.882618      19.927126      20.368963      90             90             90           
     40500   261.27631     -158.09419     -125.30098     -158.09419      0              1127.7396      20.085693      20.230596      20.472045      0              0              0              8318.7246      704.18976      1035.3676      1643.6615     -507.31507      3117.7955     -1126.4209      20.085693      20.230596      20.472045      90             90             90           
     41000   268.77565     -158.42412     -124.68966     -158.42412      0              3396.24        20.083777      20.033471      20.259555      0              0              0              8151.3866      5762.7727     -42.340299      4468.2875     -1084.4132      1274.0591      1626.8661      20.083777      20.033471      20.259555      90             90             90           
     41500   276.07382     -158.0496      -123.39913     -158.0496       0              6342.0262      20.094465      19.910678      20.155395      0              0              0              8064.0609      3506.111       8189.9964      7329.9713      1782.155       45.150965      1869.6471      20.094465      19.910678      20.155395      90             90             90           
     42000   262.52244     -157.25022     -124.30061     -157.25022      0              4299.3146      20.254674      20.09271       20.362521      0              0              0              8286.9615      5163.9427      3099.3093      4634.6919     -731.19886      1426.9749     -924.95321      20.254674      20.09271       20.362521      90             90             90           
     42500   269.8844      -156.80105     -122.92743     -156.80105      0              4399.2283      20.101212      20.03313       20.409543      0              0              0              8218.7229      4665.4523      4078.7551      4453.4775      1408.1038     -818.42655     -655.01542      20.101212      20.03313       20.409543      90             90             90           
     43000   280.69311     -158.13123     -122.90098     -158.13123      0              7610.2717      19.955339      19.90111       20.425765      0              0              0              8111.7536      5230.1915      7727.1497      9873.474      -1311.5061      370.12085      666.85644      19.955339      19.90111       20.425765      90             90             90           
     43500   271.11087     -157.76973     -123.74217     -157.76973      0              2484.4574      20.01817       20.080597      20.447074      0              0              0              8219.2496      6177.4184      584.16089      691.79278     -440.83043      1542.4676     -69.202452      20.01817       20.080597      20.447074      90             90             90           
     44000   275.53198     -159.03732     -124.45486     -159.03732      0              3276.6503      20.058171      20.180756      20.324789      0              0              0              8227.2519      2292.9914      2978.3377      4558.6219     -2012.8279      394.75645      519.69996      20.058171      20.180756      20.324789      90             90             90           
     44500   271.34318     -157.58193     -123.52522     -157.58193      0              7727.8628      20.016891      20.044247      20.105637      0              0              0              8066.8542      9135.1545      6295.1504      7753.2834      786.37205     -75.677108      3402.4784      20.016891      20.044247      20.105637      90             90             90           
     45000   253.95392     -158.34073     -126.46657     -158.34073      0              4049.4694      20.269169      20.089562      20.252139      0              0              0              8246.6449      3046.6495      4652.9875      4448.7712     -2158.2961      549.63207      152.71703      20.269169      20.089562      20.252139      90             90             90           
     45500   264.00303     -158.56046     -125.42502     -158.56046      0              5731.1373      20.158643      19.949776      20.35684       0              0              0              8186.7151      8684.5187      2748.3904      5760.503       1271.7912     -2040.6726     -372.90715      20.158643      19.949776      20.35684       90             90             90           
     46000   260.85368     -157.38072     -124.64056     -157.38072      0              8133.6992      19.850677      19.861753      20.452877      0              0              0              8063.9401      8181.6956      8588.1921      7631.2099     -780.79723      499.33919     -93.808851      19.850677      19.861753      20.452877      90             90             90           
     46500   272.29305     -158.76955     -124.59362     -158.76955      0              2616.8925      20.023453      20.153878      20.580892      0              0              0              8305.4237      2515.5536      1877.6912      3457.4327      760.13906      1906.251       1624.7867      20.023453      20.153878      20.580892      90             90             90           
     47000   273.66554     -158.02031     -123.67211     -158.02031      0              4387.2657      20.085106      20.128433      20.355463      0              0              0              8229.3415      4366.8998      5218.274       3576.6233     -132.23073     -181.19977     -1305.235       20.085106      20.128433      20.355463      90             90             90           
     47500   271.11253     -156.30109     -122.27332     -156.30109      0              9050.2543      20.126609      19.939312      20.211589      0              0              0              8111.1276      5189.7824      10778.728      11182.253      2279.7552     -2618.6516     -2253.3778      20.126609      19.939312      20.211589      90             90             90           
     48000   272.33411     -157.61682     -123.43573     -157.61682      0              1852.0032      20.267664      19.98982       20.394665      0              0              0              8262.8363      967.63554      2093.2442      2495.1299     -279.13854     -267.94204      976.17807      20.267664      19.98982       20.394665      90             90             90           
     48500   265.07499     -156.93171     -123.66173     -156.93171      0              5260.4629      20.000069      20.040952      20.37935       0              0              0              8168.4595      2996.7247      4602.7569      8181.9071      1281.6874     -1210.7251     -705.124        20.000069      20.040952      20.37935       90             90             90           
     49000   274.8949      -156.52873     -122.02623     -156.52873      0              6016.273       19.921847      20.139218      20.376032      0              0              0              8175.0766      6800.2177      6025.4346      5223.1667     -844.23897      1231.4996      1381.1523      19.921847      20.139218      20.376032      90             90             90           
     49500   290.19452     -155.4958      -119.07303     -155.4958       0              4564.1599      20.138564      20.126585      20.408851      0              0              0              8272.126       6291.0947      4691.5029      2709.882       997.40115     -3237.0379      2302.2233      20.138564      20.126585      20.408851      90             90             90           
     50000   275.95394     -156.55198     -121.91656     -156.55198      0              6553.9587      20.256206      19.953699      20.358877      0              0              0              8228.7781      5655.2632      6024.5502      7982.0627     -1362.4691      2662.6088     -763.3642       20.256206      19.953699      20.358877      90             90             90           
     50500   275.7637      -157.78134     -123.16979     -157.78134      0              7762.0269      20.089372      19.797113      20.314017      0              0              0              8079.1196      6893.1211      7444.6742      8948.2855      1994.1518      2803.1997      1529.6453      20.089372      19.797113      20.314017      90             90             90           
     51000   273.1745      -157.57454     -123.28797     -157.57454      0              6558.4306      20.038722      20.076628      20.465372      0              0              0              8233.4232      4089.9272      10592.836      4992.5287     -747.83001      2300.9234      4119.6444      20.038722      20.076628      20.465372      90             90             90           
     51500   268.11738     -157.45501     -123.80317     -157.45501      0              7466.6839      19.976182      20.179115      20.386982      0              0              0              8218.0266      5308.055       10462.104      6629.8929      1761.8311     -2350.6996     -1337.055       19.976182      20.179115      20.386982      90             90             90           
     52000   267.0896      -158.99847     -125.47563     -158.99847      0              8066.0896      20.096827      19.934034      20.199041      0              0              0              8091.9545      7449.0896      10494.995      6254.184       76.803343     -1620.1548      434.67031      20.096827      19.934034      20.199041      90             90             90           
     52500   270.22991     -157.38494     -123.46795     -157.38494      0              6285.8799      20.361053      19.91503       20.170013      0              0              0              8178.7586      2173.6883      7621.6398      9062.3116     -1376.2759     -949.0587       990.09811      20.361053      19.91503       20.170013      90             90             90           
     53000   277.43848     -159.52831     -124.70656     -159.52831      0              7902.8469      20.281375      20.145701      20.295931      0              0              0              8292.5628      11645.195      5228.5465      6834.7989      1535.886      -1958.2553     -1708.4985      20.281375      20.145701      20.295931      90             90             90           
     53500   270.17433     -158.01307     -124.10306     -158.01307      0              5187.4077      19.837573      20.111961      20.296264      0              0              0              8097.6511      3562.9062      4498.8099      7500.5071     -730.45274      456.41122     -426.09265      19.837573      20.111961      20.296264      90             90             90           
     54000   281.44581     -158.58989     -123.26518     -158.58989      0              6563.7724      19.893769      20.097012      20.411769      0              0              0              8160.7338      4774.2013      8563.3455      6353.7705      1210.2101     -3627.6376      1438.0315      19.893769      20.097012      20.411769      90             90             90           
     54500   267.23093     -159.81921     -126.27862     -159.81921      0              746.7751       20.152011      19.980568      20.41904       0              0              0              8221.6987      4876.9124     -1244.7696     -1391.8174      423.89546     -667.31265     -3008.1354      20.152011      19.980568      20.41904       90             90             90           
     55000   270.77799     -158.18413     -124.19835     -158.18413      0              3098.3616      20.146777      19.969626      20.26358       0              0              0              8152.5163      165.17128      4617.5505      4512.3631      337.50985      317.60094      3794.8823      20.146777      19.969626      20.26358       90             90             90           
     55500   265.79146     -159.05195     -125.69204     -159.05195      0              4051.1378      20.08369       20.117267      20.263247      0              0              0              8186.9386      4645.0194      5521.6408      1986.7532      383.86387     -1247.5917     -841.4402       20.08369       20.117267      20.263247      90             90             90           
     56000   272.19847     -156.94921     -122.78515     -156.94921      0              6568.356       20.004167      20.107701      20.305625      0              0              0              8167.6901      7897.6843      6501.4033      5305.9805     -1863.2106      354.91986      696.80234      20.004167      20.107701      20.305625      90             90             90           
     56500   263.69672     -156.15932     -123.06232     -156.15932      0              5570.7998      20.050279      19.987394      20.387325      0              0              0              8170.278       3532.9481      5395.1314      7784.3199      1181.1377      189.4578       2184.7977      20.050279      19.987394      20.387325      90             90             90           
     57000   278.45821     -158.754       -123.80426     -158.754        0              6073.3329      20.165805      19.813195      20.417908      0              0              0              8157.9553      5082.7441      8838.65        4298.6045     -1214.6922      2451.1438     -591.58935      20.165805      19.813195      20.417908      90             90             90           
     57500   262.3888      -157.33258     -124.39975     -157.33258      0              3551.7093      20.22906       19.802648      20.397767      0              0              0              8171.1198      332.8176       5361.4125      4960.8979     -212.13998     -3472.8154     -1081.4711      20.22906       19.802648      20.397767      90             90             90           
     58000   267.66116     -158.20882     -124.61424     -158.20882      0              5000.7876      20.087104      20.058283      20.24657       0              0              0              8157.6028      3699.7354      5018.2224      6284.4051      1780.5392     -76.611634      3198.5622      20.087104      20.058283      20.24657       90             90             90           
     58500   279.44449     -158.97825     -123.90473     -158.97825      0              5313.1063      19.888535      20.375892      20.133012      0              0              0              8158.8356      5827.8538      5722.4723      4388.9929      1779.4045     -198.38772      565.67267      19.888535      20.375892      20.133012      90             90             90           
     59000   270.65049     -156.37902     -122.40925     -156.37902      0              6517.8179      19.93184       20.319531      20.186471      0              0              0              8175.6345      8148.7078      4222.7746      7181.9712     -169.73509     -79.177647      1531.3578      19.93184       20.319531      20.186471      90             90             90           
     59500   270.57856     -156.66767     -122.70692     -156.66767      0              7722.9535      20.11516       19.956954      20.330127      0              0              0              8161.2717      5917.3183      11147.331      6104.2108     -1580.1675     -698.41478     -1279.2626      20.11516       19.956954      20.330127      90             90             90           
     60000   265.35172     -158.3919      -125.08719     -158.3919       0              7232.0156      20.21289       19.874019      20.412453      0              0              0              8199.9139      4865.9942      8078.7967      8751.2561      1023.7635      538.90708      931.97223      20.21289       19.874019      20.412453      90             90             90           
     60500   267.80347     -158.73062     -125.11818     -158.73062      0              6353.79        20.115596      20.026571      20.326694      0              0              0              8188.5359      5924.6645      4338.1351      8798.5703     -541.25066     -1777.5022      1260.1081      20.115596      20.026571      20.326694      90             90             90           
     61000   267.11485     -157.03481     -123.50879     -157.03481      0              6689.1916      20.02884       20.166213      20.261653      0              0              0              8183.8002      6511.6186      5623.9267      7932.0294      808.25273     -467.22825      1074.6917      20.02884       20.166213      20.261653      90             90             90           
     61500   270.81488     -157.66231     -123.6719      -157.66231      0              5002.5866      20.040384      20.075243      20.305139      0              0              0              8169.0737      2189.9733      6208.9135      6608.873       182.45788     -1587.5688      403.26173      20.040384      20.075243      20.305139      90             90             90           
     62000   274.10098     -156.86163     -122.45878     -156.86163      0              7664.995       20.095245      19.931751      20.400747      0              0              0              8171.181       8613.8775      8230.6654      6150.4422     -361.37577      436.81353     -291.77593      20.095245      19.931751      20.400747      90             90             90           
     62500   269.86688     -158.04057     -124.16914     -158.04057      0              6196.1543      20.048192      19.956783      20.492849      0              0              0              8199.1356      4514.9624      9137.9743      4935.5263      934.9941       1583.9583      745.48012      20.048192      19.956783      20.492849      90             90             90           
     63000   270.81089     -155.24132     -121.25141     -155.24132      0              2227.2927      19.990135      20.159736      20.535377      0              0              0              8275.6714      6101.9232      783.85498     -203.89998      1011.6731     -3117.3208     -1152.7763      19.990135      20.159736      20.535377      90             90             90           
     63500   275.88658     -158.35948     -123.73252     -158.35948      0              7239.9511      19.87331       20.061314      20.189881      0              0              0              8049.3971      8478.1147      6870.4975      6371.241      -683.29655      2449.4801     -4627.4492      19.87331       20.061314      20.189881      90             90             90           
     64000   266.40987     -156.49833     -123.0608      -156.49833      0              4274.6806      20.172599      20.209362      20.217901      0              0              0              8242.34        5960.5246      2826.776       4036.7412     -253.33219      717.80979     -1343.6833      20.172599      20.209362      20.217901      90             90             90           
     64500   274.71522     -157.95716     -123.47721     -157.95716      0              7667.1696      20.137953      20.113458      20.213786      0              0              0              8187.4705      7680.0527      7114.4677      8206.9885      297.17883      666.11728     -2282.7929      20.137953      20.113458      20.213786      90             90             90           
     65000   261.76641     -159.305       -126.45028     -159.305        0              8054.8792      19.993982      19.991663      20.331431      0              0              0              8126.7362      7282.407       7929.338       8952.8926      266.77195      984.35072      1061.5413      19.993982      19.991663      20.331431      90             90             90           
     65500   265.28453     -158.40175     -125.10547     -158.40175      0              4585.6385      20.073685      19.982683      20.551615      0              0              0              8243.7888      4096.9029      4514.6368      5145.3757      932.5537      -152.51976     -1223.0821      20.073685      19.982683      20.551615      90             90             90           
     66000   276.79359     -156.60913     -121.86833     -156.60913      0              8122.7822      20.008326      19.902967      20.419219      0              0              0              8131.4446      10497.641      6778.8645      7091.8411      608.37063      553.32488      440.94805      20.008326      19.902967      20.419219      90             90             90           
     66500   271.57604     -156.65411     -122.56816     -156.65411      0              4906.3876      20.099317      20.130911      20.292765      0              0              0              8210.809       3787.3771      5057.329       5874.4568      640.3354      -1499.2878      4316.7647      20.099317      20.130911      20.292765      90             90             90           
     67000   268.67601     -158.55453     -124.83257     -158.55453      0              4251.0136      20.159483      20.259424      20.156406      0              0              0              8232.2697      3939.2025      4684.3451      4129.4933     -762.17025     -1058.4188      1202.5533      20.159483      20.259424      20.156406      90             90             90           
     67500   266.69922     -157.73528     -124.26143     -157.73528      0              3939.3602      20.082276      20.067941      20.069801      0              0              0              8088.3292     -440.22791      7900.942       4357.3666      1769.527      -399.82378      387.77585      20.082276      20.067941      20.069801      90             90             90           
     68000   271.85833     -159.02955     -124.90818     -159.02955      0              4353.5433      20.093002      20.020471      20.372407      0              0              0              8195.2362      4551.7427      3980.2394      4528.6479      1273.2216     -1842.3906     -606.55091      20.093002      20.020471      20.372407      90             90             90           
     68500   276.98027     -157.766       -123.00176     -157.766        0              5060.3943      20.065189      19.930002      20.521382      0              0              0              8206.4858      7571.6694      3550.9428      4058.5709      680.80097      259.3596       3358.9561      20.065189      19.930002      20.521382      90             90             90           
     69000   261.63099     -158.05384     -125.21612     -158.05384      0              2539.6454      20.025994      19.953761      20.442352      0              0              0              8168.639       1067.5402      5298.8773      1252.5186     -333.32181     -613.14468     -137.50864      20.025994      19.953761      20.442352      90             90             90           
     69500   261.61924     -158.47867     -125.64242     -158.47867      0              3498.9073      20.147947      20.141779      20.319465      0              0              0              8245.9538      6505.105       2070.0702      1921.5467      621.4721       1758.6643      1728.2553      20.147947      20.141779      20.319465      90             90             90           
     70000   276.76721     -159.12573     -124.38823     -159.12573      0              6823.9086      20.11107       20.01566       20.021938      0              0              0              8059.5576      6076.9933      7069.4253      7325.3072     -1699.5459     -266.53745      1602.808       20.11107       20.01566       20.021938      90             90             90           
     70500   253.70949     -157.28112     -125.43764     -157.28112      0              2735.4642      20.237392      20.101893      20.256858      0              0              0              8240.69        650.8382       4881.441       2674.1135      183.99126      1124.2123      1410.9394      20.237392      20.101893      20.256858      90             90             90           
     71000   271.915       -159.05122     -124.92273     -159.05122      0              8368.5394      19.972146      20.047796      20.484484      0              0              0              8201.9363      8776.7527      5471.5672      10857.298     -148.24295     -5005.3362      1115.5118      19.972146      20.047796      20.484484      90             90             90           
     71500   266.77412     -157.88324     -124.39999     -157.88324      0              5574.6855      19.769906      19.953624      20.510603      0              0              0              8091.0487      9915.6611      4009.7522      2798.6433      1304.2495      188.82944      564.60997      19.769906      19.953624      20.510603      90             90             90           
     72000   280.75163     -156.79659     -121.559       -156.79659      0              2747.7184      20.052104      20.033776      20.514979      0              0              0              8241.2644      1958.6846      3106.1336      3178.3369      1307.8741      579.0951      -942.20852      20.052104      20.033776      20.514979      90             90             90           
     72500   272.21343     -157.79431     -123.62837     -157.79431      0              5624.4914      20.268665      19.973857      20.237522      0              0              0              8193.0281      4004.7219      3377.8037      9490.9485     -189.33783     -2485.7852     -719.98912      20.268665      19.973857      20.237522      90             90             90           
     73000   259.15975     -157.2141      -124.68654     -157.2141       0              4839.8128      20.307309      20.021591      20.115025      0              0              0              8178.4602      1922.2656      4709.7029      7887.4699      1646.7068     -1384.5293     -1818.936       20.307309      20.021591      20.115025      90             90             90           
     73500   274.78291     -158.12442     -123.63598     -158.12442      0              5198.7518      19.921857      20.021711      20.221588      0              0              0              8065.778       8858.8157      643.38926      6094.0505      67.809008     -4995.106       677.02546      19.921857      20.021711      20.221588      90             90             90           
     74000   263.44059     -158.2325      -125.16765     -158.2325       0              1822.7193      19.815095      20.231535      20.6801        0              0              0              8290.4411      3852.5961     -3808.863       5424.4249      939.55315      843.30233     -1218.6758      19.815095      20.231535      20.6801        90             90             90           
     74500   275.51074     -159.19236     -124.61257     -159.19236      0              6004.4505      19.856329      19.999276      20.66395       0              0              0              8205.9069      6048.7067      6172.595       5792.0498     -698.95193      1872.5959     -2618.4604      19.856329      19.999276      20.66395       90             90             90           
     75000   287.07742     -159.30913     -123.27758     -159.30913      0              9494.9351      20.072806      19.8967        20.473295      0              0              0              8176.6778      6370.3932      12527.447      9586.9648      1080.413       2082.8619      1371.6236      20.072806      19.8967        20.473295      90             90             90           
     75500   274.18542     -159.36378     -124.95033     -159.36378      0              5218.7412      20.166796      20.033397      20.309627      0              0              0              8205.2809      3792.4512      4702.0723      7161.7002      121.27198     -1391.6124      1153.2863      20.166796      20.033397      20.309627      90             90             90           
     76000   277.91629     -158.8718      -123.99008     -158.8718       0              6045.2782      20.029368      20.079861      20.201939      0              0              0              8124.9558      6829.1892      4474.5445      6832.1009     -785.21255      648.62246     -2254.333       20.029368      20.079861      20.201939      90             90             90           
     76500   254.83365     -159.73077     -127.74619     -159.73077      0              2710.1419      20.061302      20.079351      20.37752       0              0              0              8208.43        1300.5374      1153.8666      5676.0215      682.66035     -1182.1752     -956.62337      20.061302      20.079351      20.37752       90             90             90           
     77000   259.87366     -160.19765     -127.58049     -160.19765      0              4489.3202      19.946531      19.955874      20.469675      0              0              0              8147.9638      6364.5375      5189.8033      1913.6199      436.92478      511.07745     -3313.7582      19.946531      19.955874      20.469675      90             90             90           
     77500   272.3256      -158.39318     -124.21316     -158.39318      0              1971.2463      19.939407      19.855436      20.403248      0              0              0              8077.7608     -1579.2243      6476.7786      1016.1844     -814.81078     -1686.1977     -756.02344      19.939407      19.855436      20.403248      90             90             90           
     78000   278.12192     -156.70251     -121.79498     -156.70251      0              6934.9835      20.114079      20.158231      20.39659       0              0              0              8270.0878      5958.4427      5223.0521      9623.4556     -65.892912     -24.193358      69.194137      20.114079      20.158231      20.39659       90             90             90           
     78500   257.66294     -158.06695     -125.72726     -158.06695      0              7291.5516      20.024998      20.307005      20.227566      0              0              0              8225.4937      8037.9643      6271.3535      7565.337      -203.84249      1067.4023      1289.3981      20.024998      20.307005      20.227566      90             90             90           
     79000   260.04096     -157.8358      -125.19764     -157.8358       0              5736.1355      19.955475      20.140027      20.131044      0              0              0              8090.7432      6883.4605      2955.1984      7369.7476     -1696.6767     -1098.3287     -256.1244       19.955475      20.140027      20.131044      90             90             90           
     79500   270.94457     -157.61879     -123.6121      -157.61879      0              5996.1959      20.12452       20.008886      20.330733      0              0              0              8186.5603      3419.0748      5070.0683      9499.4445      187.29096     -845.33406      3774.7437      20.12452       20.008886      20.330733      90             90             90           
     80000   270.6436      -156.6651      -122.69618     -156.6651       0              6042.7796      20.098505      19.942306      20.433552      0              0              0              8189.9829      6150.795       6444.2164      5533.3273      1586.5509     -364.0799      -1156.9154      20.098505      19.942306      20.433552      90             90             90           
     80500   267.30153     -157.52648     -123.97703     -157.52648      0              1796.7473      20.034473      19.969962      20.488551      0              0              0              8197.2164     -2492.3763      4554.3057      3328.3125      1094.6803     -270.98468      1610.0888      20.034473      19.969962      20.488551      90             90             90           
     81000   264.94476     -156.97947     -123.72582     -156.97947      0              3891.6142      19.932373      20.024013      20.418035      0              0              0              8149.3707      7255.0851     -30.61417       4450.3717      1252.7874      2028.3051      574.15748      19.932373      20.024013      20.418035      90             90             90           
     81500   268.21406     -157.98624     -124.32226     -157.98624      0              5091.4059      20.030543      20.094309      20.388168      0              0              0              8206.2358      8121.0625      1400.0437      5753.1115     -1880.6658      906.85093      1267.5102      20.030543      20.094309      20.388168      90             90             90           
     82000   272.56302     -159.07324     -124.86342     -159.07324      0              5714.3247      20.183718      19.981168      20.258749      0              0              0              8170.2374      5779.2941      6033.0939      5330.586      -1997.6165      1195.0332      3192.971       20.183718      19.981168      20.258749      90             90             90           
     82500   273.76484     -156.25524     -121.89458     -156.25524      0              6342.0653      20.234585      19.894119      20.228463      0              0              0              8142.9526      7924.5001      3574.8354      7526.8603     -2082.9282      896.45297      2537.8718      20.234585      19.894119      20.228463      90             90             90           
     83000   274.91766     -157.73077     -123.22542     -157.73077      0              3177.0037      20.117423      20.102206      20.509082      0              0              0              8293.9671      8469.011      -720.22395      1782.224       667.10145      85.986933      1236.7564      20.117423      20.102206      20.509082      90             90             90           
     83500   276.95119     -158.24845     -123.48786     -158.24845      0              5391.2297      19.679583      20.083947      20.623802      0              0              0              8151.4274      8861.0924      4901.7821      2410.8146     -1082.9617      444.64087      1845.3335      19.679583      20.083947      20.623802      90             90             90           
     84000   273.08994     -155.93166     -121.6557      -155.93166      0              4623.4802      19.827566      20.124453      20.616896      0              0              0              8226.5318      3350.9014      5737.4585      4782.0808      153.56192      1872.3473     -105.00306      19.827566      20.124453      20.616896      90             90             90           
     84500   268.28024     -157.08579     -123.4135      -157.08579      0              6880.0321      20.180205      20.008953      20.298095      0              0              0              8196.0618      6160.2678      8160.5019      6319.3268     -64.957157     -217.81389     -148.6559       20.180205      20.008953      20.298095      90             90             90           
     85000   265.11999     -157.85823     -124.58259     -157.85823      0             -368.71087      20.327356      20.030668      20.135541      0              0              0              8198.5984     -1475.4829      67.065851      302.2844      -291.62672     -3243.5482      700.39195      20.327356      20.030668      20.135541      90             90             90           
     85500   276.85416     -156.86751     -122.11911     -156.86751      0              5280.124       20.072062      20.071203      20.165339      0              0              0              8124.0192      5844.0026      6057.5781      3938.7913     -780.81146      1192.3714     -1229.088       20.072062      20.071203      20.165339      90             90             90           
     86000   266.59519     -157.04124     -123.58045     -157.04124      0              4318.3332      19.94356       20.097481      20.38174       0              0              0              8169.3139      6607.7825      2456.622       3890.5951     -1274.3884     -1236.9585      2993.1377      19.94356       20.097481      20.38174       90             90             90           
     86500   268.95211     -159.11213     -125.35552     -159.11213      0              672.51646      20.087955      19.977184      20.56454       0              0              0              8252.5661     -2583.9668      981.22791      3620.2883     -224.54197      945.41874      848.79736      20.087955      19.977184      20.56454       90             90             90           
     87000   264.93429     -159.08688     -125.83455     -159.08688      0              5154.8372      20.1817        19.800383      20.452731      0              0              0              8173.0217      4847.8105      6498.6773      4118.0237     -85.862232     -1305.0046      5390.9632      20.1817        19.800383      20.452731      90             90             90           
     87500   270.88243     -158.57632     -124.57743     -158.57632      0              4709.4523      20.125375      19.920344      20.307054      0              0              0              8141.1873      4577.8392      4420.5071      5130.0106     -191.64533     -972.9828      -1294.273       20.125375      19.920344      20.307054      90             90             90           
     88000   268.41976     -157.42439     -123.7346      -157.42439      0              3959.7062      20.118066      20.260909      20.38167       0              0              0              8307.7789      5612.7973      3972.5595      2293.7617      474.4865      -1906.4394      1876.7443      20.118066      20.260909      20.38167       90             90             90           
     88500   273.53361     -158.79972     -124.46808     -158.79972      0              5692.1062      19.909553      20.120782      20.246144      0              0              0              8110.5196      6026.3918      4831.3234      6218.6035     -607.88118     -4175.5548     -757.21688      19.909553      20.120782      20.246144      90             90             90           
     89000   258.00726     -159.1087      -126.7258      -159.1087       0              5321.1937      20.11753       20.028247      20.365212      0              0              0              8205.5283      5199.1657      6213.0003      4551.4151      1745.1598     -59.423159     -2289.8987      20.11753       20.028247      20.365212      90             90             90           
     89500   260.83626     -159.80784     -127.06986     -159.80784      0              4909.794       20.215813      19.894217      20.310161      0              0              0              8168.2952      4465.9801      7151.5927      3111.8092     -112.64245      1463.0184      1292.8598      20.215813      19.894217      20.310161      90             90             90           
     90000   263.50574     -159.47509     -126.40206     -159.47509      0              4350.6323      20.103473      19.926452      20.302813      0              0              0              8133.1218      2201.8201      6107.2408      4742.836      -133.48549      1900.9035      2465.7588      20.103473      19.926452      20.302813      90             90             90           
     90500   269.88775     -158.13249     -124.25845     -158.13249      0              4391.1442      19.951294      20.119985      20.353091      0              0              0              8170.1322      2204.7753      5999.5448      4969.1125      200.61963      1531.8504     -1023.099       19.951294      20.119985      20.353091      90             90             90           
     91000   268.51065     -158.38018     -124.67898     -158.38018      0              4351.5209      19.923126      20.238463      20.380743      0              0              0              8217.7895      237.75797      5079.041       7737.7636     -30.670222      300.25327     -1973.2608      19.923126      20.238463      20.380743      90             90             90           
     91500   255.91591     -159.51114     -127.39073     -159.51114      0              4275.7301      20.03359       20.036492      20.317621      0              0              0              8155.5513      6589.4614      3919.1941      2318.5348     -75.342444     -2186.7281     -228.8832       20.03359       20.036492      20.317621      90             90             90           
     92000   270.3374      -159.33893     -125.40845     -159.33893      0              4971.0068      20.130484      19.938782      20.245267      0              0              0              8125.9915      5205.6629      5067.8563      4639.5012     -926.76437     -1535.048      -1177.4267      20.130484      19.938782      20.245267      90             90             90           
     92500   266.16319     -158.94537     -125.5388      -158.94537      0              5282.0147      20.105339      20.121361      20.287785      0              0              0              8207.358       6810.086       3768.0704      5267.8877     -1544.5548     -3170.8534      1387.3112      20.105339      20.121361      20.287785      90             90             90           
     93000   260.51643     -156.61204     -123.9142      -156.61204      0              5116.5466      20.025134      20.051984      20.232385      0              0              0              8124.1862      6216.4014      4790.1928      4343.0455      640.44974      1496.2147     -1854.7485      20.025134      20.051984      20.232385      90             90             90           
     93500   267.40956     -158.82356     -125.26056     -158.82356      0              3839.6326      20.201379      19.867209      20.364816      0              0              0              8173.3171     -307.13474      6066.8933      5759.1392      1453.0161     -3122.2708     -1514.4589      20.201379      19.867209      20.364816      90             90             90           
     94000   255.67971     -157.61498     -125.52421     -157.61498      0              1962.4385      20.252221      19.852191      20.498693      0              0              0              8241.5187      1005.3865      6996.899      -2114.9699      489.66895      1233.7324     -574.305        20.252221      19.852191      20.498693      90             90             90           
     94500   270.21046     -158.54461     -124.63006     -158.54461      0              8278.5652      19.937367      19.920291      20.370207      0              0              0              8090.1939      7180.1441      9067.2812      8588.2705     -852.20797      378.08449     -997.48119      19.937367      19.920291      20.370207      90             90             90           
     95000   266.26568     -160.41553     -126.9961      -160.41553      0              5209.5856      19.856254      20.299762      20.298312      0              0              0              8181.7874      7065.8463      2690.5735      5872.337      -1093.6621     -156.07307     -1158.8325      19.856254      20.299762      20.298312      90             90             90           
[...]
    377000   263.36115     -158.18995     -125.13507     -158.18995      0              3890.3318      20.174807      20.02221       20.326207      0              0              0              8210.6541      2803.4296      6302.0121      2565.5538     -589.61509     -504.65276     -1452.9723      20.174807      20.02221       20.326207      90             90             90           
    377500   262.11849     -158.15362     -125.25471     -158.15362      0              7327.539       20.08382       20.009873      20.15519       0              0              0              8099.8607      6017.2186      7497.9173      8467.481      -383.4489      -611.32488     -970.72656      20.08382       20.009873      20.15519       90             90             90           
    378000   276.58044     -158.66832     -123.95427     -158.66832      0              3164.2936      20.169587      20.109992      20.338343      0              0              0              8249.4401      5500.137       1868.9598      2123.7841      166.87773      16.423375      5.8828566      20.169587      20.109992      20.338343      90             90             90           
    378500   267.44445     -158.87529     -125.30791     -158.87529      0              7065.675       20.043689      19.970866      20.382725      0              0              0              8158.9974      7663.3775      6277.4407      7256.2069     -1332.1341      233.41921     -2276.3706      20.043689      19.970866      20.382725      90             90             90           
    379000   273.42078     -158.13873     -123.82125     -158.13873      0              6422.2066      20.000113      19.944181      20.435714      0              0              0              8151.5173      4600.6591      6904.4552      7761.5056     -478.39405     -3229.9551     -1335.1707      20.000113      19.944181      20.435714      90             90             90           
    379500   258.16327     -157.40189     -124.99941     -157.40189      0              1992.5347      20.071116      20.154159      20.533917      0              0              0              8306.3074     -430.49344      6351.2307      56.866912      153.77899      767.31918     -2128.4056      20.071116      20.154159      20.533917      90             90             90           
    380000   264.98752     -158.40481     -125.1458      -158.40481      0              4885.0377      19.899376      20.055433      20.261037      0              0              0              8085.9898      4725.5438      4658.1871      5271.3822      735.19812     -2836.4413      3932.5727      19.899376      20.055433      20.261037      90             90             90           
    380500   256.34561     -158.12972     -125.95537     -158.12972      0              5704.3375      20.042337      20.069149      20.175037      0              0              0              8115.0586      5702.0362      5895.8777      5515.0985      1803.4756     -581.25864      2621.3798      20.042337      20.069149      20.175037      90             90             90           
    381000   260.32874     -157.99871     -125.32444     -157.99871      0              5008.4334      20.297684      20.096421      20.30525       0              0              0              8282.7311      3766.1406      5017.7436      6241.4161     -511.91435      357.69         313.81333      20.297684      20.096421      20.30525       90             90             90           
    381500   277.13768     -155.5062      -120.7222      -155.5062       0              135.22961      20.197598      19.939668      20.3144        0              0              0              8181.2873     -723.54215     -1514.6001      2643.8311      742.42096      3865.28        1364.4962      20.197598      19.939668      20.3144        90             90             90           
    382000   266.27801     -157.02413     -123.60315     -157.02413      0              6694.9971      20.025273      19.952631      20.444563      0              0              0              8168.7657      12338.367      5445.8238      2300.8007     -266.10066     -2632.6353     -600.06756      20.025273      19.952631      20.444563      90             90             90           
    382500   279.64626     -156.43508     -121.33623     -156.43508      0              4989.9572      20.012447      19.956832      20.55975       0              0              0              8211.257       1927.4957      5025.3136      8017.0625     -241.03735      1829.6491      500.48405      20.012447      19.956832      20.55975       90             90             90           
    383000   273.68411     -156.93313     -122.5826      -156.93313      0              5112.2652      20.08466       20.032269      20.503723      0              0              0              8249.495       8535.6557      3075.7883      3725.3514      98.401492     -1263.4295      2297.3796      20.08466       20.032269      20.503723      90             90             90           
    383500   285.37346     -156.43554     -120.61786     -156.43554      0              5003.9033      20.090703      20.137628      20.200532      0              0              0              8172.7132      5256.5746      3404.6811      6350.4542     -77.453873      1988.2102      87.885637      20.090703      20.137628      20.200532      90             90             90           
    384000   275.32053     -158.63561     -124.07969     -158.63561      0              5061.1687      20.139604      20.41278       20.021732      0              0              0              8231.0404      6955.2258      2898.6718      5329.6085     -704.69259     -1677.8736      1907.8609      20.139604      20.41278       20.021732      90             90             90           
    384500   264.54532     -157.55648     -124.35297     -157.55648      0              8989.4817      20.025929      20.142833      19.96923       0              0              0              8055.1668      6755.046       10097.788      10115.611     -1136.909      -2332.6222     -1683.0871      20.025929      20.142833      19.96923       90             90             90           
    385000   266.00963     -159.49189     -126.10459     -159.49189      0              3935.738       20.188557      19.95281       20.491171      0              0              0              8254.2218      6630.6141      2671.7343      2504.8657     -403.49071      675.13683     -47.06471       20.188557      19.95281       20.491171      90             90             90           
    385500   265.63369     -158.6072      -125.26709     -158.6072       0              4580.5107      20.077565      19.830339      20.634253      0              0              0              8215.423       3898.563       5238.863       4604.1061      546.90002     -1233.0575     -437.65589      20.077565      19.830339      20.634253      90             90             90           
    386000   274.23957     -158.62344     -124.2032      -158.62344      0              4171.0915      19.95515       19.936007      20.48592       0              0              0              8149.8318      6186.3512      3538.7276      2788.1957      577.71718      2307.1688     -505.64223      19.95515       19.936007      20.48592       90             90             90           
    386500   275.79614     -157.28248     -122.66687     -157.28248      0              2174.4579      20.048848      20.185549      20.313246      0              0              0              8220.7098      4284.2539     -83.45179       2322.5715      505.83113      220.86131     -2191.9261      20.048848      20.185549      20.313246      90             90             90           
    387000   275.17204     -158.63316     -124.09588     -158.63316      0              3897.1159      20.118288      20.0816        20.158688      0              0              0              8144.2595      5202.0678      2889.3849      3599.895       1597.8374     -448.17276     -2099.5304      20.118288      20.0816        20.158688      90             90             90           
    387500   276.99281     -158.29527     -123.52945     -158.29527      0              7047.4789      20.220037      19.985631      20.257124      0              0              0              8186.1105      6438.6858      5355.0979      9348.653      -589.96153     -1752.38        726.00939      20.220037      19.985631      20.257124      90             90             90           
    388000   264.67057     -159.86749     -126.64826     -159.86749      0              3016.2636      20.152554      19.929043      20.440486      0              0              0              8209.3306      3492.9479      4054.3675      1501.4754     -1000.7323      2032.7761      780.69799      20.152554      19.929043      20.440486      90             90             90           
    388500   259.07756     -158.74633     -126.22909     -158.74633      0              7978.2776      19.922825      20.026381      20.422769      0              0              0              8148.3185      8709.0851      7309.743       7916.0045      1198.1212      1358.2379      428.74904      19.922825      20.026381      20.422769      90             90             90           
    389000   254.31297     -158.0733      -126.15407     -158.0733       0              6608.1491      19.924685      20.226554      20.429581      0              0              0              8233.279       7421.5382      4611.4917      7791.4173     -2462.2932     -1744.1167      436.67734      19.924685      20.226554      20.429581      90             90             90           
    389500   265.93666     -159.39108     -126.01294     -159.39108      0              5860.6467      20.052794      20.095672      20.270058      0              0              0              8168.3142      4686.4719      7855.7561      5039.712       1569.7625     -2449.5111     -1278.7468      20.052794      20.095672      20.270058      90             90             90           
    390000   257.49474     -158.83626     -126.51768     -158.83626      0              3739.3141      20.275723      19.955441      20.248951      0              0              0              8192.9485      3177.7439      1123.611       6916.5875     -463.85393      1154.705      -684.53727      20.275723      19.955441      20.248951      90             90             90           
    390500   274.63895     -157.96719     -123.49682     -157.96719      0              6144.8419      20.180605      19.823635      20.198717      0              0              0              8080.5559      3929.7627      8400.7052      6104.0576     -288.10973      511.74255      2243.8366      20.180605      19.823635      20.198717      90             90             90           
    391000   266.87679     -155.8367      -122.34057     -155.8367       0              3564.251       20.146777      20.063146      20.493951      0              0              0              8283.8133      436.81677      6949.896       3306.0403     -80.693134      2867.0571     -778.96545      20.146777      20.063146      20.493951      90             90             90           
    391500   274.96381     -154.84996     -120.33881     -154.84996      0              5858.1336      19.956143      20.109376      20.532032      0              0              0              8239.6192      6626.7269      5283.5337      5664.1403     -2239.824      -366.97442     -2187.2148      19.956143      20.109376      20.532032      90             90             90           
    392000   258.8987      -158.85014     -126.35535     -158.85014      0              4563.9873      19.980176      20.05244       20.343842      0              0              0              8150.7861      4466.2407      5877.7866      3347.9346      554.15252     -603.06403     -1014.262       19.980176      20.05244       20.343842      90             90             90           
    392500   259.29357     -158.90126     -126.35691     -158.90126      0              3279.8047      20.175539      20.111732      20.213143      0              0              0              8201.7864      3445.8025      3367.5802      3026.0315     -1611.9388      2781.2087     -1585.9301      20.175539      20.111732      20.213143      90             90             90           
    393000   265.79535     -156.20403     -122.84363     -156.20403      0              2659.7865      20.238844      20.14681       20.15826       0              0              0              8219.4932      3113.9827      552.43908      4312.9377      109.37163     -1619.5137     -593.37885      20.238844      20.14681       20.15826       90             90             90           
    393500   280.8676      -156.05094     -120.7988      -156.05094      0              4579.0056      20.055871      20.109095      20.350954      0              0              0              8207.6497      4282.1004      4175.046       5279.8704      753.90508      2411.6121     -2638.3622      20.055871      20.109095      20.350954      90             90             90           
    394000   265.82557     -157.94907     -124.58487     -157.94907      0              5509.816       19.849761      19.815868      20.7161        0              0              0              8148.4758      5319.3267      6691.9032      4518.218      -542.70394      2672.3971      816.63141      19.849761      19.815868      20.7161        90             90             90           
    394500   260.36603     -157.85785     -125.1789      -157.85785      0              8091.7284      19.971635      19.837428      20.864829      0              0              0              8266.3503      5646.2992      12255.28       6373.6057     -129.13388      1170.3961      1004.3458      19.971635      19.837428      20.864829      90             90             90           
    395000   260.79425     -156.46919     -123.73648     -156.46919      0              4725.2006      20.135906      20.026965      20.53189       0              0              0              8279.7122      3673.0466      5365.9122      5136.6429      1824.7816      69.258363      1224.0754      20.135906      20.026965      20.53189       90             90             90           
    395500   268.61743     -159.15998     -125.44538     -159.15998      0              5853.0164      20.083177      20.111726      20.080709      0              0              0              8110.7461      2587.9802      7116.0937      7854.9753      358.81899     -135.56859     -1289.7077      20.083177      20.111726      20.080709      90             90             90           
    396000   262.30654     -158.51752     -125.595       -158.51752      0              2219.3999      20.12384       20.158822      20.062602      0              0              0              8138.8539      3526.8018     -1488.5033      4619.9011      1206.4976     -1777.3831      721.0904       20.12384       20.158822      20.062602      90             90             90           
    396500   270.67831     -160.57357     -126.6003      -160.57357      0              7202.7817      20.080646      20.061337      20.217932      0              0              0              8144.6848      11305.884      4175.1547      6127.3062     -179.23455      1374.9164     -2740.1065      20.080646      20.061337      20.217932      90             90             90           
    397000   273.02617     -158.03516     -123.7672      -158.03516      0              5906.8525      20.11759       19.984865      20.412033      0              0              0              8206.603       6231.3871      6378.5734      5110.5971     -344.12409     -1192.2605      1236.2982      20.11759       19.984865      20.412033      90             90             90           
    397500   274.41016     -158.44777     -124.00611     -158.44777      0              3714.8637      20.096976      19.918695      20.443148      0              0              0              8183.5056      5513.5695      2150.7111      3480.3106     -504.77815      1497.9691      2908.0942      20.096976      19.918695      20.443148      90             90             90           
    398000   272.19933     -158.34321     -124.17904     -158.34321      0              6923.794       20.058418      19.93684       20.456242      0              0              0              8180.4814      9546.7256      5311.7925      5912.8638     -943.31858      1086.257      -351.53064      20.058418      19.93684       20.456242      90             90             90           
    398500   268.34385     -156.47885     -122.79858     -156.47885      0              3053.6828      20.107408      20.036166      20.431545      0              0              0              8231.3664      73.215896      6871.2745      2216.5582     -775.1639       1413.0448     -366.15333      20.107408      20.036166      20.431545      90             90             90           
    399000   262.57641     -160.26989     -127.31351     -160.26989      0              7720.2713      20.10765       20.107926      20.228577      0              0              0              8178.8819      6633.4656      8827.6741      7699.6741     -580.698       -504.34925      1143.6943      20.10765       20.107926      20.228577      90             90             90           
    399500   262.29626     -158.08753     -125.16631     -158.08753      0              6366.658       20.0372        20.109677      20.106345      0              0              0              8101.6833      5532.696       5248.0419      8319.2361      2185.4386     -35.590279     -1688.4319      20.0372        20.109677      20.106345      90             90             90           
    400000   259.917       -158.91773     -126.29513     -158.91773      0              7635.5074      20.115854      20.015385      20.295068      0              0              0              8171.3336      5395.9853      8822.1604      8688.3765     -134.62594      1579.5046      1656.3767      20.115854      20.015385      20.295068      90             90             90           
Loop time of 1357.61 on 1 procs for 400000 steps with 972 atoms

Performance: 12.728 ns/day, 1.886 hours/ns, 294.634 timesteps/s
106.9% CPU use with 1 MPI tasks x no OpenMP threads

MPI task timing breakdown:
Section |  min time  |  avg time  |  max time  |%varavg| %total
---------------------------------------------------------------
Pair    | 1044.6     | 1044.6     | 1044.6     |   0.0 | 76.94
Bond    | 0.038292   | 0.038292   | 0.038292   |   0.0 |  0.00
Neigh   | 231.03     | 231.03     | 231.03     |   0.0 | 17.02
Comm    | 10.453     | 10.453     | 10.453     |   0.0 |  0.77
Output  | 49.496     | 49.496     | 49.496     |   0.0 |  3.65
Modify  | 20.619     | 20.619     | 20.619     |   0.0 |  1.52
Other   |            | 1.37       |            |       |  0.10

Nlocal:            972 ave         972 max         972 min
Histogram: 1 0 0 0 0 0 0 0 0 0
Nghost:           4634 ave        4634 max        4634 min
Histogram: 1 0 0 0 0 0 0 0 0 0
Neighs:              0 ave           0 max           0 min
Histogram: 1 0 0 0 0 0 0 0 0 0
FullNghs:       248098 ave      248098 max      248098 min
Histogram: 1 0 0 0 0 0 0 0 0 0

Total # of neighbors = 248098
Ave neighs/atom = 255.24486
Ave special neighs/atom = 0
Neighbor list builds = 40000
Dangerous builds not checked

unfix		3
unfix		2

write_data	data.final.${pid}
write_data	data.final.0
System init for write_data ...
Generated 0 of 1 mixed pair_coeff terms from geometric mixing rule

write_restart   restart.lmp.${pid}
write_restart   restart.lmp.0
System init for write_restart ...
Generated 0 of 1 mixed pair_coeff terms from geometric mixing rule
Total wall time: 0:22:56
