LAMMPS data file via write_data, version 29 Sep 2021, timestep = 400000

972 atoms
2 atom types

-0.1133922222730952 20.104445222273817 xlo xhi
-0.16491112313348744 20.155964123133586 ylo yhi
0.19694286750792855 20.603829132493313 zlo zhi

Masses

1 1.008
2 15.999

Atoms # full

2 0 2 0 1.8925455053078184 1.9803743940221632 0.8288083949945608 0 0 0
31 0 1 0 0.6259173761489664 1.2893817090144826 2.2003386784632375 0 0 0
32 0 2 0 0.6553726168992513 0.3181608968320029 2.398737312227581 0 0 0
33 0 2 0 0.6293980121165819 1.8351498784919182 3.016100436686542 0 0 0
5 0 2 0 3.73547130731076 1.1728928238189145 3.6858811646778222 0 0 0
10 0 1 0 1.085447885474935 3.5209434584749464 3.807887111041857 0 0 0
12 0 2 0 1.9751561845711394 3.7951024030722964 3.98636135209403 0 0 0
4 0 1 0 4.447060637039259 1.527106039956578 3.1423051025362736 0 0 0
18 0 2 0 4.1262004329640805 3.2162145968122005 3.3238030303799944 0 0 0
35 0 2 0 4.177713784831722 2.3945214847681933 0.500563719610913 0 0 0
34 0 1 0 5.093081508141467 2.606877581083774 0.45269921803708807 0 0 0
36 0 2 0 5.4387933093866785 2.446682759548941 1.3328880454269436 0 0 0
67 0 1 0 7.165108288175144 2.1530789847876854 2.308353144356775 0 0 0
68 0 2 0 7.5131177048960005 2.896866789089875 2.858250490841536 0 0 0
272 0 2 0 7.596000614361007 0.4080307297100947 2.238351512118074 0 1 0
69 0 2 0 7.76983581491804 2.23858820833322 1.5478594823501237 0 0 0
230 0 2 0 4.450689139044741 -0.010897215619657674 1.66826724894632 0 1 0
6 0 2 0 5.159155275703652 1.472953499224866 3.7959297621814114 0 0 0
41 0 2 0 10.349174394657457 1.0343891113392156 3.887547584939322 0 0 0
40 0 1 0 11.16914021046061 1.2353049967958143 3.3819108075085893 0 0 0
54 0 2 0 10.797501073807224 3.0384706443264244 3.668038566621362 0 0 0
42 0 2 0 11.905426449288148 1.0307734016118932 4.015191335341395 0 0 0
266 0 2 0 11.048313646279064 0.02428465173529329 1.7919088806908274 0 1 0
39 0 2 0 10.11264545629179 2.378086421604245 0.44602643134423214 0 0 0
70 0 1 0 12.057692134292662 2.6366304029357392 0.9768995304396337 0 0 0
72 0 2 0 12.875371044928784 2.4407803764700278 1.495750139400699 0 0 0
84 0 2 0 14.578747584197822 2.999384062624854 3.491915245749959 0 0 0
103 0 1 0 14.261975431264679 1.7716089577883234 2.2798880974398044 0 0 0
105 0 2 0 14.092639253612335 0.7506850691392796 2.407123973955944 0 0 0
104 0 2 0 15.047969894039037 1.900370328881631 1.7075746800005163 0 0 0
71 0 2 0 12.344856237033188 3.3472192927270754 0.40586262686348995 0 0 0
76 0 1 0 17.774192461327438 1.3596391596810256 3.40674932213894 0 0 0
77 0 2 0 17.871146682682042 0.7133908579068818 2.7064861046728934 0 0 0
89 0 2 0 17.53106646900745 3.055758624517624 3.285524535460628 0 0 0
108 0 2 0 19.531370232240775 1.7733703252024517 1.1786333715677468 0 0 0
107 0 2 0 18.18815124822992 2.065611097368343 0.7412643132272431 0 0 0
106 0 1 0 19.114347447436263 2.2751662871327145 0.4572362582091598 0 0 0
73 0 1 0 16.363922335174916 2.5180524415359735 0.2369729634625559 0 0 0
78 0 2 0 18.55907770326483 1.1297727608679617 4.013339481226254 0 0 0
16 0 1 0 3.833216436821954 4.140724642883562 3.4881455082085404 0 0 0
20 0 2 0 0.791317340992495 4.906963608517682 2.4676862064289917 0 0 0
19 0 1 0 0.7337518286615832 5.480878391816853 1.7089219515752412 0 0 0
21 0 2 0 1.0776963262707562 6.359007681194568 2.0311004116143057 0 0 0
675 0 2 0 1.8386418861841656 5.119862530585624 0.436460097435365 0 0 1
46 0 1 0 7.9022500973510095 4.342057381405013 3.7888974581424786 0 0 0
17 0 2 0 4.0065065248093665 4.729699642890236 2.778365116635429 0 0 0
14 0 2 0 4.14900452595372 5.740568592639214 0.9053256792548009 0 0 0
114 0 2 0 4.156479515658727 7.5951610163389915 2.7040059423835183 0 0 0
13 0 1 0 4.614762221138336 6.055722809253979 1.6944732784789984 0 0 0
15 0 2 0 5.550925835034262 5.848339131197374 1.509737204174088 0 0 0
55 0 1 0 7.711266462604549 6.242070680349033 1.9069964707846032 0 0 0
56 0 2 0 7.8962567674028765 5.530032459836813 2.537857851099823 0 0 0
177 0 2 0 7.277007137888876 7.857106699467053 2.5069135324318634 0 0 0
52 0 1 0 10.53749085420556 3.9348125285858613 3.922933853758527 0 0 0
57 0 2 0 8.187416615186635 5.886026281884564 1.1015602924162964 0 0 0
51 0 2 0 10.92321135347379 5.096137981932492 2.4872228297358663 0 0 0
49 0 1 0 11.197424942899303 5.811231202381213 1.908542080930759 0 0 0
50 0 2 0 10.626617357840848 5.606876072266414 1.1234592694618022 0 0 0
150 0 2 0 10.78800937638244 7.397639142555376 2.811786638448847 0 0 0
149 0 2 0 9.86123844438157 7.707478237506857 3.9877290166383363 0 0 0
47 0 2 0 8.81587118273796 4.263102062352945 4.044059761925075 0 0 0
82 0 1 0 14.629795927178625 3.911819410293541 3.869246139699903 0 0 0
83 0 2 0 14.520335407559518 4.510521448562034 3.1132634859884463 0 0 0
91 0 1 0 14.012099151784103 5.88503143692947 1.6135115803919318 0 0 0
92 0 2 0 14.051930480644367 6.790445118205603 1.9345324953287502 0 0 0
93 0 2 0 13.137957914143309 5.715923821198112 1.260755248353269 0 0 0
747 0 2 0 15.394892083584134 5.550965913559961 0.5791332537981981 0 0 1
88 0 1 0 17.242110985875737 3.9913196652206535 3.414596361431111 0 0 0
90 0 2 0 16.334773290461673 4.030250782430493 3.723470490065806 0 0 0
86 0 2 0 17.825564830588444 5.300643033894998 2.2990047936275513 0 0 0
85 0 1 0 18.240523188195596 6.085738531713421 1.8156013218805103 0 0 0
87 0 2 0 19.14752724049449 5.805012438758895 1.5794075619827213 0 0 0
185 0 2 0 17.784862364676588 7.810626716733299 2.711237197477314 0 0 0
746 0 2 0 16.95035580304762 5.601636246424765 0.5036331463061804 0 0 1
139 0 1 0 1.0721736750080209 8.38197418961826 2.258244963959625 0 0 0
141 0 2 0 1.6833358698788345 8.521760758126161 1.4950912333530693 0 0 0
140 0 2 0 0.2238800953858287 8.541433018910544 1.8930777254815416 0 0 0
131 0 2 0 2.35224674600083 8.15758483908928 4.250776787200738 0 0 0
119 0 2 0 0.9802467737633607 9.965050342203753 3.3274493654008843 0 0 0
120 0 2 0 2.0732590478681576 10.683079417215637 4.155659584511082 0 0 0
118 0 1 0 1.0987653361943495 10.653841537743594 4.007749420307349 0 0 0
782 0 2 0 1.7503683560382826 11.803762781491212 0.7180003355587252 0 0 1
129 0 2 0 0.9310813765728081 11.93963537609009 2.6670611649058937 0 0 0
124 0 1 0 3.865542661759723 10.988685759379084 4.1119500264841875 0 0 0
109 0 1 0 3.1499409529430764 8.775111481306439 0.4632387425743823 0 0 0
112 0 1 0 4.069547689158719 8.267270453237007 3.3961116712485584 0 0 0
113 0 2 0 4.593530193796493 8.087282841203047 4.177605515823681 0 0 0
126 0 2 0 4.064983374335307 10.03278083237217 3.9775024807842074 0 0 0
176 0 2 0 6.574181400076954 8.922838665584845 1.9516740008861764 0 0 0
175 0 1 0 7.270764279293145 8.810537385249251 2.5772578405534063 0 0 0
142 0 1 0 5.7413596885959945 9.44684443375982 0.4001339982193568 0 0 0
122 0 2 0 4.192996957755785 11.739265367838737 2.236666125640368 0 0 0
110 0 2 0 4.143252056287555 8.803767433964746 0.536897029967967 0 0 0
148 0 1 0 10.699620794638873 7.998118352982292 3.5422608137501777 0 0 0
147 0 2 0 8.62725159523273 8.916216223380266 1.0385982635577125 0 0 0
179 0 2 0 11.135964395099071 9.162091533018309 0.739879976000983 0 0 0
162 0 2 0 11.144278081486982 9.73423162705216 3.670518737690835 0 0 0
145 0 1 0 9.245943426716781 9.16172608294605 0.3331616508892206 0 0 0
155 0 2 0 8.091659581506494 10.010151332673441 3.999218893388469 0 0 0
156 0 2 0 8.164336036504316 11.39598495100107 3.4969280683519037 0 0 0
154 0 1 0 8.405236395913725 10.86956882569505 4.24028417543895 0 0 0
161 0 2 0 10.271716277953187 10.813848937102117 4.192260407299377 0 0 0
160 0 1 0 11.155285486065964 10.71799379680614 3.7976240125018492 0 0 0
146 0 2 0 9.171410064924272 10.107153975813645 0.3024984592277204 0 0 0
158 0 2 0 10.880307287397233 11.73042141869005 2.31239959098636 0 0 0
178 0 1 0 12.042136546816982 9.295750426824581 0.5539463471975679 0 0 0
211 0 1 0 14.254292683726794 8.486919164368786 2.2627573503329304 0 0 0
212 0 2 0 14.63926764626438 9.21616891216926 2.8540079995641814 0 0 0
213 0 2 0 13.42620003458718 8.894582322503409 1.9990648899015757 0 0 0
183 0 2 0 15.333080979359389 8.713934939212427 0.6373858443240931 0 0 0
191 0 2 0 14.593793826324479 11.560612846661765 2.988543150814904 0 0 0
190 0 1 0 14.957341996841869 10.846095139673139 3.5623989838104118 0 0 0
192 0 2 0 15.932528123859836 10.961485480449678 3.484359672463421 0 0 0
854 0 2 0 15.734146337130005 11.273160616463803 0.335283036080425 0 0 1
184 0 1 0 17.4213793259203 8.19954810439771 3.5348452250885396 0 0 0
186 0 2 0 17.536527477920487 9.118294536004884 3.469108338750165 0 0 0
216 0 2 0 18.01317306379095 8.957889060634956 0.5633981012149112 0 0 0
214 0 1 0 19.00464444106643 8.903698244836805 0.6334111718671366 0 0 0
196 0 1 0 17.62852254167881 10.916999249987718 3.9257099552223815 0 0 0
197 0 2 0 17.975569500392567 11.64178605601963 3.431710826966468 0 0 0
127 0 1 0 0.6137243475677119 12.558542894784331 2.015265735103469 0 0 0
249 0 2 0 0.8877188191246606 14.19953649948993 2.050701280406117 0 0 0
221 0 2 0 3.4183992158431455 14.70517574860455 3.6582104613117616 0 0 0
247 0 1 0 0.8654380930928736 15.225363724137548 1.9908911083008376 0 0 0
218 0 2 0 2.3061062248051516 15.415316730121752 0.9097654116298979 0 0 0
217 0 1 0 2.9332784101241005 15.66317024959129 0.23972714567603148 0 0 0
248 0 2 0 0.043993592552657224 15.386561476524832 1.51522515579107 0 0 0
220 0 1 0 4.168442034787259 14.859753315817994 3.0496975720026516 0 0 0
222 0 2 0 4.267680637031425 14.020421994206542 2.547059815050128 0 0 0
123 0 2 0 4.322036029351388 12.184876711167407 0.7526186307720615 0 0 0
121 0 1 0 4.652251713764655 12.330287086496142 1.6487416971764475 0 0 0
163 0 1 0 7.490852887746282 12.707796846622763 2.117273193413431 0 0 0
165 0 2 0 6.580962287160857 12.477308712948098 1.7505044156420555 0 0 0
164 0 2 0 7.436668158991971 13.67689142383176 2.3233362858366204 0 0 0
283 0 1 0 7.323765963666152 15.459198500954933 2.266932299920696 0 0 0
284 0 2 0 6.525136034443327 15.745140007318732 1.792140085400945 0 0 0
251 0 2 0 4.478287461826047 16.024876964077997 0.43803533073007295 0 0 0
819 0 2 0 8.314507865682016 12.279142179833824 0.6230358863113932 0 0 1
258 0 2 0 10.087673066804818 14.933552954847345 4.237388869523425 0 0 0
157 0 1 0 10.954683937365024 12.332453467624624 1.5592579238078166 0 0 0
159 0 2 0 10.845177050255023 13.173340198775175 1.978917151927473 0 0 0
256 0 1 0 10.771686479798795 14.79184559354719 3.581138981690696 0 0 0
285 0 2 0 8.043270152336868 15.622087525208368 1.63552400907757 0 0 0
257 0 2 0 10.9360857029761 15.7080914064517 3.3459230712569834 0 0 0
255 0 2 0 10.108910427901547 15.766913808015309 0.6722072388946589 0 0 0
253 0 1 0 9.219086346459024 15.888316102887524 0.2932574763977427 0 0 0
855 0 2 0 14.887073379070038 12.335136140052597 0.7409807246913545 0 0 1
199 0 1 0 13.713907394066961 12.603566495251007 2.030663707241377 0 0 0
200 0 2 0 12.790502327653696 12.35882292932107 1.772748522476534 0 0 0
201 0 2 0 13.807079988396001 13.533772027848695 2.2902314906323644 0 0 0
286 0 1 0 12.35837465403546 15.942908770178013 0.5006734813271172 0 0 0
319 0 1 0 14.29989178508558 15.316343576659735 2.154504376184117 0 0 0
320 0 2 0 13.607728615317258 15.625895088302462 1.4619313187065375 0 0 0
291 0 2 0 16.03605177158139 15.581079337436488 1.1401901648805564 0 0 0
128 0 2 0 19.883777389391767 12.485632217957036 1.999846330559192 -1 0 0
195 0 2 0 17.544878319964848 12.850631209400593 1.1102304182125788 0 0 0
193 0 1 0 18.08982656436748 12.984347817941599 1.9327048227738415 0 0 0
194 0 2 0 17.845444399824157 13.874981172664004 2.318400118142559 0 0 0
294 0 2 0 16.825102344594065 15.003667843744605 3.9923116383311443 0 0 0
292 0 1 0 17.59554029822416 15.336144134618479 3.4633872719591148 0 0 0
289 0 1 0 16.475407528758637 15.925456837748959 0.3084136612528473 0 0 0
290 0 2 0 17.42085091553422 15.765492800502145 0.514711698093236 0 0 0
227 0 2 0 1.2916003144088373 16.453023024139668 3.2153911825241273 0 0 0
235 0 1 0 0.4247798174979802 18.888325030003173 1.6847099700049222 0 0 0
236 0 2 0 0.5542359204331275 18.23152303262279 2.3998550240609875 0 0 0
237 0 2 0 1.2200371884291832 18.714782729440685 1.1297236291700967 0 0 0
228 0 2 0 2.494950693240762 17.488223304562858 3.6506741361334694 0 0 0
226 0 1 0 1.5161104179787204 17.25790033081841 3.7484161410176684 0 0 0
891 0 2 0 3.2793739421232426 18.55738313025266 0.4140339883073677 0 0 1
233 0 2 0 4.377755256191127 16.676175497665717 3.210157097009241 0 0 0
232 0 1 0 4.209003234654011 17.590810023581156 3.512447890646578 0 0 0
234 0 2 0 4.450100871254786 18.189242895993864 2.769155039125321 0 0 0
250 0 1 0 5.4503331452755255 16.16623101453927 0.5081142797375522 0 0 0
229 0 1 0 4.835867996709398 19.51573235509656 1.3965149937070056 0 0 0
231 0 2 0 5.827542887481294 19.552674448398506 1.5887402448017944 0 0 0
271 0 1 0 7.573726546063205 19.75195370709657 2.1089627061469445 0 0 0
273 0 2 0 7.6473372856065795 19.241732575376908 2.9414539076626838 0 0 0
263 0 2 0 7.7541170150838585 16.83532243956317 3.1663768453412406 0 0 0
927 0 2 0 8.556358722116746 18.888270459340106 0.809265408166208 0 0 1
262 0 1 0 8.043049761983147 17.499103672703967 3.8156310201287646 0 0 0
265 0 1 0 11.30661531303221 19.45339280074156 1.553239141423604 0 0 0
267 0 2 0 10.739138399696772 19.129980499372834 0.8311875653198859 0 0 0
268 0 1 0 10.821496068662334 17.586656844348497 3.5437024831915696 0 0 0
269 0 2 0 10.908011960265545 18.285529566585154 2.890212214508366 0 0 0
264 0 2 0 9.020590892000547 17.584104236249374 3.7771633768282933 0 0 0
270 0 2 0 11.485180818319806 17.712095646952065 4.2650623517621025 0 0 0
321 0 2 0 14.36115212926133 16.117558379733147 2.74346052985827 0 0 0
307 0 1 0 14.092608481498194 19.52050007024743 2.2244488445471378 0 0 0
308 0 2 0 13.167303994701202 19.26728180971216 2.027076730597558 0 0 0
309 0 2 0 14.405847854831741 18.816402906773718 2.8346126722564216 0 0 0
298 0 1 0 14.860222938370349 17.47914593904892 3.9465896939938245 0 0 0
963 0 2 0 15.0817372176847 19.05217490556312 0.601348981529894 0 0 1
300 0 2 0 15.676906148369483 17.88175651617533 4.186404430112431 0 0 0
293 0 2 0 17.537288900811557 16.284525850370734 3.3746045545457104 0 0 0
301 0 1 0 18.103080964613795 19.56125974920834 1.5664734659233612 0 0 0
302 0 2 0 17.510133627714488 19.148044667473677 0.9495357104425759 0 0 0
303 0 2 0 19.03343073205303 19.25066910255631 1.4226223781628395 0 0 0
306 0 2 0 17.6676702715483 18.806262020185372 3.2965334674533553 0 0 0
304 0 1 0 17.468833237173875 18.20237736520594 4.00920153935394 0 0 0
22 0 1 0 2.482315224203295 0.8148816578882405 4.94309395014376 0 0 0
23 0 2 0 2.7113266221582064 1.4946138984312234 5.624396011186195 0 0 0
325 0 1 0 2.8808783953254946 2.869932339307061 7.0429130127138855 0 0 0
327 0 2 0 2.522057172332699 3.692398938830225 6.655808881281715 0 0 0
326 0 2 0 3.8515634472113263 3.0447099196810954 7.236496698627051 0 0 0
11 0 2 0 0.5122658373539718 3.8803393059967766 4.491185217187789 0 0 0
24 0 2 0 2.786685639632004 -0.06069625566787214 5.27032949494139 0 0 0
101 0 2 0 0.5403535761633831 0.8150815143192827 4.9218467551683505 1 0 0
356 0 2 0 2.1325033342418425 1.9142237924381211 8.19013728178317 0 0 0
357 0 2 0 0.6119364849693558 1.934479061421425 8.173079847764724 0 0 0
358 0 1 0 5.793966733182023 2.634135484152111 7.307527449207905 0 0 0
28 0 1 0 6.041136283743522 0.7219969480961134 5.352140449985063 0 0 0
29 0 2 0 7.0218409987639 0.9344292312297744 5.191051144806327 0 0 0
359 0 2 0 5.8598146850268105 1.9251904201828864 6.6736250054284545 0 0 0
360 0 2 0 6.240079354274872 2.4043753170642757 8.108645047299532 0 0 0
58 0 1 0 8.787026409103197 0.9196011705691933 5.184122517308377 0 0 0
59 0 2 0 8.979760828690493 1.60402961967694 5.7882616502482005 0 0 0
361 0 1 0 9.632191167887617 2.591105296414032 7.268990354684329 0 0 0
363 0 2 0 9.374448300498045 3.5420320787394886 7.1338432300399175 0 0 0
362 0 2 0 10.579582418749812 2.5766596488968774 7.219706510309432 0 0 0
60 0 2 0 8.974362470268334 0.05516750837206447 5.568032421578755 0 0 0
394 0 1 0 12.416119475855654 2.3997315334524694 7.120304021199755 0 0 0
66 0 2 0 12.78526564113992 0.861866262407825 6.041365914540294 0 0 0
396 0 2 0 12.43899367291284 3.322306723662594 6.74883780402533 0 0 0
64 0 1 0 13.014226532839649 0.38026105103054864 5.261849113472274 0 0 0
65 0 2 0 13.986155571839575 0.4310428161244989 5.156032618438566 0 0 0
94 0 1 0 15.734981212435889 0.6148442276378662 5.3142713121761025 0 0 0
95 0 2 0 15.824646055967714 1.4171093657449432 5.859286670347835 0 0 0
395 0 2 0 12.910464410946998 2.39180234188081 7.971469930296405 0 0 0
96 0 2 0 16.227217954420944 0.8564143504207966 4.505376221005703 0 0 0
399 0 2 0 16.186759837307296 3.525899562431018 6.77483990788678 0 0 0
397 0 1 0 16.32417155696413 2.605002987246452 7.1077561880017 0 0 0
100 0 1 0 19.79915864261886 0.7416738515159431 5.040021813241704 0 0 0
398 0 2 0 17.287023214631198 2.550499456638007 7.279007800788669 0 0 0
430 0 1 0 19.151102407870212 2.3706147724338593 7.099370449078911 0 0 0
431 0 2 0 19.17741751709903 1.8972499738897102 6.2603256493775135 0 0 0
432 0 2 0 19.368137926024737 3.2497168727776424 6.8284656944995 0 0 0
102 0 2 0 19.703803636217017 -0.1628408016527862 5.36143107384069 0 0 0
25 0 1 0 2.425332340835746 5.371940214923401 6.419736364951692 0 0 0
26 0 2 0 2.202518483437002 6.087457551321021 5.794037556519998 0 0 0
27 0 2 0 3.0836590878987526 5.817220314236859 6.961548581622152 0 0 0
130 0 1 0 1.9329744255190127 7.876702030350771 5.059179528332743 0 0 0
344 0 2 0 1.079395877072653 5.589416158231353 7.6840509877398775 0 0 0
8 0 2 0 5.861355886376581 4.158856149897207 6.365329479429955 0 0 0
9 0 2 0 5.021643260142839 4.538513725428667 5.092848936122751 0 0 0
48 0 2 0 7.406531590672127 4.456852111291859 4.6448394081614115 0 0 0
7 0 1 0 5.77172600268625 4.8017490690287365 5.648105779392412 0 0 0
136 0 1 0 5.723194748936746 7.425287060611395 5.4810485768634045 0 0 0
137 0 2 0 5.7666936728881995 6.463308118041161 5.563543578115008 0 0 0
138 0 2 0 6.6299836348490775 7.582880436992393 5.206459449653799 0 0 0
339 0 2 0 5.002654254958286 6.350914755141103 8.154941773175182 0 0 0
53 0 2 0 11.1721625479945 4.2034610200866425 4.615587694564033 0 0 0
61 0 1 0 9.145728180351806 5.286343557011484 6.939182302510172 0 0 0
63 0 2 0 8.410205380695206 5.399557021279839 7.59248669870096 0 0 0
167 0 2 0 8.52902559630772 6.858352483913424 5.679228272717941 0 0 0
166 0 1 0 8.459728732213888 7.733663275955995 5.267029611561816 0 0 0
62 0 2 0 9.983556159749469 5.535321725625965 7.406739998530206 0 0 0
173 0 2 0 11.925144324774475 7.487900570762138 4.803121576677883 0 0 0
44 0 2 0 13.146227874291867 4.3427690007104625 5.036089471432859 0 0 0
43 0 1 0 12.467222404794432 4.612526994912934 5.6968769065327605 0 0 0
45 0 2 0 12.540310217381867 5.585415567364803 5.716986678605229 0 0 0
174 0 2 0 13.47386306738378 7.392669428189536 4.981645880913154 0 0 0
172 0 1 0 12.632877622679231 7.231044286559743 5.389614295669003 0 0 0
202 0 1 0 15.460305369037403 7.238637041737254 5.113436577859708 0 0 0
416 0 2 0 14.592509350523885 5.330989682482591 8.331950325823838 0 0 0
204 0 2 0 15.978056503235592 7.238678522361492 4.310639848867404 0 0 0
99 0 2 0 15.461179745242276 5.908827353550233 6.395188679730135 0 0 0
97 0 1 0 15.76150470027161 5.249349255401185 7.060171768753705 0 0 0
81 0 2 0 18.42544105181114 4.517781408587242 4.809191269228657 0 0 0
79 0 1 0 19.046032810292495 4.670241469631837 5.5143362570391234 0 0 0
98 0 2 0 16.524634707522303 5.4950647481588275 7.569018748116496 0 0 0
80 0 2 0 19.144559760192877 5.654847293100857 5.57687695716976 0 0 0
208 0 1 0 19.34121309068235 7.527441745970559 5.5663069789151765 0 0 0
209 0 2 0 18.682064404923572 7.902821708720966 4.98348177798412 0 0 0
132 0 2 0 1.0082116101215455 8.115723002318761 4.951596306171647 0 0 0
433 0 1 0 2.641942098296534 9.326692073419773 7.279933880087238 0 0 0
435 0 2 0 2.594557602685771 8.882107754296195 6.444599563386699 0 0 0
434 0 2 0 3.6382938762897323 9.418998464091906 7.3493207913753364 0 0 0
135 0 2 0 2.641464955393225 11.132906436207799 7.109095009778971 0 0 0
189 0 2 0 -0.013400273471000507 11.375020709177234 5.430257568375939 1 0 0
466 0 1 0 5.354788805323924 9.393037175805647 7.356972244931507 0 0 0
468 0 2 0 5.463136234293414 8.716760999314516 6.670456535713655 0 0 0
501 0 2 0 6.7480421589369906 8.794321624120645 8.284030312348769 0 0 0
125 0 2 0 4.505258590469857 11.310909159005478 4.752900447350952 0 0 0
467 0 2 0 5.543870921372424 10.233128363009568 6.875913065686511 0 0 0
116 0 2 0 6.725295796050013 11.477877150430631 5.377411714992746 0 0 0
115 0 1 0 5.920595089362558 11.587063410975063 5.901181777108365 0 0 0
168 0 2 0 8.76491021416848 8.4042655333331 5.917491514413977 0 0 0
469 0 1 0 9.509405999292719 9.605852349154931 7.2416866523023815 0 0 0
471 0 2 0 10.435464013510474 9.52479259400191 7.444083828594955 0 0 0
500 0 2 0 8.343964035412046 8.581326520844778 8.29028004601685 0 0 0
470 0 2 0 9.369760437915934 10.529391914923114 7.073776551699036 0 0 0
502 0 1 0 12.471777132178703 9.159673243287314 7.20609687760053 0 0 0
203 0 2 0 15.698720005385438 7.974268394834665 5.744220038984842 0 0 0
503 0 2 0 12.52867055874463 8.342796399891082 6.671034379236938 0 0 0
507 0 2 0 15.8447401701449 8.927097807009222 7.961062761402408 0 0 0
152 0 2 0 12.511021657007726 11.133385899030992 4.992323521541184 0 0 0
504 0 2 0 12.766273132737853 9.799520385310425 6.504600818186768 0 0 0
151 0 1 0 13.284927537348619 11.117476189072994 5.548087936081739 0 0 0
153 0 2 0 14.048071983756449 10.935584701256275 5.00970410316419 0 0 0
198 0 2 0 18.054500732154285 10.888148889094264 4.796995347319966 0 0 0
505 0 1 0 16.527681195301323 9.118418462713384 7.217076063207744 0 0 0
210 0 2 0 19.477821014576193 8.16811086158781 6.296053150710387 0 0 0
506 0 2 0 17.40663114743193 8.772743011056495 7.463543245793531 0 0 0
538 0 1 0 19.36372824389098 9.4596985098244 7.710168334491927 0 0 0
207 0 2 0 16.23902162589829 11.100728513942931 6.449842660737179 0 0 0
540 0 2 0 19.462692231009992 10.383675450983736 7.431931836852847 0 0 0
187 0 1 0 19.364543801233843 11.648918017322702 5.837693814974747 0 0 0
133 0 1 0 2.5767987258256846 12.12987616262037 7.1510219802436525 0 0 0
134 0 2 0 3.3955036322603998 12.445555480649451 7.577100080751796 0 0 0
238 0 1 0 2.0645546809478668 13.955613472140584 4.92508745837386 0 0 0
239 0 2 0 1.0850379136443575 14.04669079013023 4.936651967937975 0 0 0
240 0 2 0 2.3056185936177465 13.14034019634053 5.405836321589687 0 0 0
453 0 2 0 1.29466064384168 12.531611707000836 8.331529819161764 0 0 0
542 0 2 0 2.316972769266089 15.369002030416123 6.03710195796263 0 0 0
543 0 2 0 3.421471140022738 15.926425486663524 6.9383077582752 0 0 0
541 0 1 0 2.449752988946162 15.958270999746366 6.791340271613928 0 0 0
573 0 2 0 1.6494066401230105 15.852348319397974 8.338691610746412 0 0 0
246 0 2 0 5.400263218235273 14.479857544161884 4.417402154393943 0 0 0
117 0 2 0 5.661562987620943 12.537058872887584 5.732062161314011 0 0 0
244 0 1 0 5.772160732164192 14.234283359573467 5.268057876328075 0 0 0
245 0 2 0 5.5848560127408415 14.966931843064067 5.8912055821535105 0 0 0
276 0 2 0 7.815575056244347 14.715212919839091 5.049773088846649 0 0 0
575 0 2 0 5.900606530728524 15.98079509068537 7.879423384752817 0 0 0
169 0 1 0 9.286786319013197 12.400566805341397 7.002769469345278 0 0 0
489 0 2 0 8.078338599716673 12.816908039956376 8.16995510705058 0 0 0
274 0 1 0 8.72178881332331 14.469084237711726 5.368220881153582 0 0 0
170 0 2 0 9.22134410014179 13.051601158308797 6.252648032656614 0 0 0
275 0 2 0 8.98527258365779 15.134541851463851 6.038639623511432 0 0 0
171 0 2 0 10.037554010693361 12.612154260970645 7.5553374968409495 0 0 0
611 0 2 0 11.05448374975961 15.954130450624573 7.416721190733739 0 0 0
610 0 1 0 11.997442029684297 15.73652041938694 7.341823440786329 0 0 0
206 0 2 0 15.263543699883597 12.083475148463009 7.14618419111612 0 0 0
281 0 2 0 12.156642372474524 14.149837914775878 4.455173847620288 0 0 0
280 0 1 0 12.798425097035146 14.03539914721645 5.159777882719927 0 0 0
282 0 2 0 12.598809678014923 13.157538079627189 5.5070012117911995 0 0 0
311 0 2 0 14.778537467431187 14.056071993395399 4.801464920722438 0 0 0
310 0 1 0 15.718379844272745 14.037280724836648 4.912509156251512 0 0 0
312 0 2 0 15.92516909293202 13.156870451754747 5.309540677968537 0 0 0
612 0 2 0 12.056326846066533 15.094807283130454 6.677307573934312 0 0 0
645 0 2 0 14.836797443711113 15.829354414240754 8.181082095678981 0 0 0
644 0 2 0 13.318879216947352 15.674150424965697 8.304694590965314 0 0 0
205 0 1 0 16.119626867578777 12.031521520234287 6.615677104097244 0 0 0
318 0 2 0 18.732351114620833 14.519988135353527 4.558083124769057 0 0 0
188 0 2 0 19.464464932053314 12.629968668665354 5.683554817557939 0 0 0
518 0 2 0 17.52195324366792 12.526429300858842 7.718510966199817 0 0 0
316 0 1 0 19.50018581765171 14.231775081854533 5.162049819958666 0 0 0
317 0 2 0 19.438567459417865 14.834484419858999 5.948305745121792 0 0 0
614 0 2 0 16.2258611809382 15.18266340788514 6.184307756507842 0 0 0
613 0 1 0 16.52238307472918 15.867890974012125 6.8301826666421865 0 0 0
648 0 2 0 19.818007433184587 16.020321526235463 7.952778032365773 0 0 0
647 0 2 0 18.234702503678754 16.073106636592676 7.508361576385767 0 0 0
241 0 1 0 2.566745805104913 18.753073355830566 6.345298846100356 0 0 0
242 0 2 0 2.494219420656717 17.761747858825224 6.359566952118189 0 0 0
243 0 2 0 3.1792938506309003 18.85925731272846 7.074759003772337 0 0 0
560 0 2 0 1.0551257490717232 19.15613809472896 7.63367876397566 0 0 0
297 0 2 0 0.34630738135651423 17.907256587801946 4.930440132766192 1 0 0
574 0 1 0 5.325805182055503 16.137469940449186 7.103032204092891 0 0 0
30 0 2 0 6.097074514778228 20.079984759637973 5.536850813688216 0 -1 0
224 0 2 0 5.48154941752717 18.045477378780646 4.889285999479352 0 0 0
223 0 1 0 6.0797902590539845 18.414374380991177 5.570441141066619 0 0 0
225 0 2 0 6.937489229079218 18.288571971622552 5.167309648294917 0 0 0
576 0 2 0 5.457479455137301 16.994768857707072 6.696834104015209 0 0 0
578 0 2 0 8.695632012382708 16.10091927463705 8.032718518515697 0 0 0
577 0 1 0 9.290522873536007 16.330740112420564 7.314468598835279 0 0 0
278 0 2 0 8.439884816581221 19.166169556502318 7.247922868568726 0 0 0
277 0 1 0 9.123021512525538 18.92084169651632 6.569468063769726 0 0 0
579 0 2 0 9.061502242863885 17.250618070553188 7.033585329856953 0 0 0
279 0 2 0 10.014319253867237 19.165769422678196 6.86124353423145 0 0 0
589 0 1 0 11.283153978656394 19.451162895136726 8.308205075963166 0 0 0
261 0 2 0 12.3796893016527 17.257526658905526 6.4712327907142955 0 0 0
260 0 2 0 12.396847084389178 18.774934146668016 5.917768483328293 0 0 0
259 0 1 0 12.53617420138411 17.84703611104021 5.680649975624567 0 0 0
299 0 2 0 14.300429888678687 17.501634409180184 4.790338600187391 0 0 0
315 0 2 0 15.324179978643945 19.029518950733866 7.43111713569078 0 0 0
314 0 2 0 16.014183348987462 19.454760678998575 6.153376483538476 0 0 0
313 0 1 0 15.920028939181126 18.697492467742222 6.761887594059393 0 0 0
615 0 2 0 16.278710522981015 16.764769205361283 6.563883677694676 0 0 0
305 0 2 0 18.166621049125368 18.281774781395455 4.661611857144045 0 0 0
646 0 1 0 19.14941449261656 16.17271227916185 7.205116646323504 0 0 0
295 0 1 0 19.852116806499716 18.209385820021772 5.521135934492347 0 0 0
296 0 2 0 19.668251673910994 17.50685639334359 6.168427172991581 0 0 0
627 0 2 0 17.73540111372766 18.936601742552874 7.869423724590003 0 0 0
355 0 1 0 1.3458047535914064 1.5827018802439279 8.711905269010153 0 0 0
335 0 2 0 1.317071993108163 3.0221573806206634 9.75991564407606 0 0 0
347 0 2 0 2.371245911717725 1.0373732584050215 11.078260915790555 0 0 0
348 0 2 0 0.9376352019733769 0.8915061766508607 11.816928562085758 0 0 0
346 0 1 0 1.9057165194596841 0.8667587679017599 11.873941958076083 0 0 0
561 0 2 0 0.7965395611187379 0.004289759918467334 8.555795954761505 0 1 0
334 0 1 0 1.369020624531225 3.8366642884510513 10.292125144487958 0 0 0
336 0 2 0 2.3112225665458612 3.8068747247737886 10.58866284376775 0 0 0
329 0 2 0 4.183514483094013 2.4066272088834753 10.072901243294965 0 0 0
328 0 1 0 4.092175998606251 1.46485501417305 10.240282231961084 0 0 0
330 0 2 0 4.753388848813712 1.296226591799631 10.941335936668082 0 0 0
353 0 2 0 7.029283901738475 0.9731456574058512 11.928577662024143 0 0 0
393 0 2 0 7.594837425439861 0.5917494546976158 9.126712485467712 0 0 0
391 0 1 0 7.758357536554184 1.5071619963506029 9.130064747182756 0 0 0
372 0 2 0 7.579584359768622 2.863546761223686 10.076755871544178 0 0 0
370 0 1 0 7.597689230382882 3.7348941167846283 10.586954092844913 0 0 0
554 0 2 0 4.23001715532307 -0.10194604852080225 8.73390607347801 0 1 0
352 0 1 0 6.081911602462687 0.9405164827174473 12.131656746597502 0 0 0
392 0 2 0 8.548585340815668 1.687520274610465 8.562890119186653 0 0 0
382 0 1 0 8.783383800434777 0.9424631631433824 11.821708153568537 0 0 0
366 0 2 0 10.043157979222064 1.0684238832004833 10.72327075316027 0 0 0
364 0 1 0 10.919434622107616 1.0784917515316157 10.308472289956221 0 0 0
378 0 2 0 10.616737007670526 3.050575012115008 10.446572782830673 0 0 0
365 0 2 0 11.543459196838947 1.0633392772103814 11.026082516787383 0 0 0
591 0 2 0 11.153079615835015 -0.06138204627160798 8.783470702563093 0 1 0
383 0 2 0 8.885597368039198 0.05623270856655066 12.206435203920757 0 0 0
429 0 2 0 15.120071450406888 2.224679223072443 8.531214491298337 0 0 0
632 0 2 0 14.228864208060724 0.2849053081624711 8.8777087297883 0 1 0
427 0 1 0 14.23301174368619 2.129706981519616 8.980298120912202 0 0 0
428 0 2 0 14.15971375473368 2.737714973348312 9.743833508816609 0 0 0
389 0 2 0 13.583595332021055 1.1292843332423788 12.143803738345262 0 0 0
418 0 1 0 15.372546425778866 0.5991386111659909 12.005223685232506 0 0 0
388 0 1 0 12.639869506654358 1.0030161028921665 12.201743279053831 0 0 0
400 0 1 0 17.357668224831166 1.0431635334006477 10.076274407829853 0 0 0
402 0 2 0 16.586989326523824 0.8403767718540887 10.610496506534572 0 0 0