LAMMPS (29 Sep 2021 - Update 2)
  using 1 OpenMP thread(s) per MPI task
echo both

include		in.partitions
variable        pid world 0
include		in.temp
variable        temperature equal 245
variable	tempDamp equal 0.1
include		in.pressure
variable        pressure equal 3039.75
variable        pressureDamp equal 1.0 # This is 1 ps
include		in.seed
variable        seed world 745823

units           metal
atom_style	full
include		in.box
read_data       iceIII.data
Reading data file ...
  orthogonal box = (0.0000000 0.0000000 0.0000000) to (19.991053 19.991053 20.800772)
  1 by 1 by 1 MPI processor grid
  reading atoms ...
  972 atoms
Finding 1-2 1-3 1-4 neighbors ...
  special bond factors lj:    0        0        0       
  special bond factors coul:  0        0        0       
     0 = max # of 1-2 neighbors
     0 = max # of 1-3 neighbors
     0 = max # of 1-4 neighbors
     1 = max # of special neighbors
  special bonds CPU = 0.000 seconds
  read_data CPU = 0.043 seconds
include 	in.setup
variable	out_freq equal 500
variable	out_freq2 equal 500

timestep        0.0005

neigh_modify    delay 7 every 1

include         in.deepmd
# This is deepMD model

# create groups ###
#group ox type 2
#group hy type 1

mass 2 15.999
mass 1 1.008

pair_style      deepmd ../graph.pb
pair_coeff      * *

bond_style      none
angle_style     none
dihedral_style  none
improper_style  none
neigh_modify exclude none


neighbor        2.0 bin
neigh_modify    every 10 delay 0 check no

thermo          ${out_freq}
thermo          500
thermo_style 	custom step temp pe etotal epair emol press lx ly lz xy xz yz vol pxx pyy pzz pxy pxz pyz cella cellb cellc cellalpha cellbeta cellgamma

restart 	${out_freq} restart.lmp.${pid} restart2.lmp.${pid}
restart 	500 restart.lmp.${pid} restart2.lmp.${pid}
restart 	500 restart.lmp.0 restart2.lmp.${pid}
restart 	500 restart.lmp.0 restart2.lmp.0


include         in.dump
dump            myDump all atom ${out_freq2} dump.water.${pid}
dump            myDump all atom 500 dump.water.${pid}
dump            myDump all atom 500 dump.water.0
dump            myDump2 all dcd ${out_freq2} dump.dcd
dump            myDump2 all dcd 500 dump.dcd
dump_modify     myDump append yes
dump_modify     myDump2 append yes


timer           timeout 04:55:00 every 1000
New timer settings: style=normal  mode=nosync  timeout=04:55:00

fix             2 all nph aniso ${pressure} ${pressure} ${pressureDamp}
fix             2 all nph aniso 3039.75 ${pressure} ${pressureDamp}
fix             2 all nph aniso 3039.75 3039.75 ${pressureDamp}
fix             2 all nph aniso 3039.75 3039.75 1
fix             3 all temp/csvr ${temperature} ${temperature} ${tempDamp} ${seed}
fix             3 all temp/csvr 245 ${temperature} ${tempDamp} ${seed}
fix             3 all temp/csvr 245 245 ${tempDamp} ${seed}
fix             3 all temp/csvr 245 245 0.1 ${seed}
fix             3 all temp/csvr 245 245 0.1 745823
velocity 	all create ${temperature} ${seed} dist gaussian
velocity 	all create 245 ${seed} dist gaussian
velocity 	all create 245 745823 dist gaussian

run             400000

CITE-CITE-CITE-CITE-CITE-CITE-CITE-CITE-CITE-CITE-CITE-CITE-CITE

Your simulation uses code contributions which should be cited:

- USER-DEEPMD package:

@article{Wang_ComputPhysCommun_2018_v228_p178,
  author = {Wang, Han and Zhang, Linfeng and Han, Jiequn and E, Weinan},
  doi = {10.1016/j.cpc.2018.03.016},
  url = {https://doi.org/10.1016/j.cpc.2018.03.016},
  year = 2018,
  month = {jul},
  publisher = {Elsevier {BV}},
  volume = 228,
  journal = {Comput. Phys. Commun.},
  title = {{DeePMD-kit: A deep learning package for many-body potential energy representation and molecular dynamics}},
  pages = {178--184}
}

CITE-CITE-CITE-CITE-CITE-CITE-CITE-CITE-CITE-CITE-CITE-CITE-CITE

Neighbor list info ...
  update every 10 steps, delay 0 steps, check no
  max neighbors/atom: 2000, page size: 100000
  master list distance cutoff = 8
  ghost atom cutoff = 8
  binsize = 4, bins = 5 5 6
  1 neighbor lists, perpetual/occasional/extra = 1 0 0
  (1) pair deepmd, perpetual
      attributes: full, newton on
      pair build: full/bin
      stencil: full/bin/3d
      bin: standard
Per MPI rank memory allocation (min/avg/max) = 7.648 | 7.648 | 7.648 Mbytes
Step Temp PotEng TotEng E_pair E_mol Press Lx Ly Lz Xy Xz Yz Volume Pxx Pyy Pzz Pxy Pxz Pyz Cella Cellb Cellc CellAlpha CellBeta CellGamma 
       0          245   -175.65013   -144.89979   -175.65013            0    37469.585    19.991053    19.991053    20.800772            0            0            0    8312.8663    41252.865    41692.313    29463.577   -62.696524   -1049.0834   -444.41018    19.991053    19.991053    20.800772           90           90           90 
     500     241.9308   -163.84111   -133.47599   -163.84111            0   -501.38989    20.075544    19.982366    20.536382            0            0            0    8238.3103   -302.30344    396.51328   -1598.3795   -421.29903   -787.00691    -950.5601    20.075544    19.982366    20.536382           90           90           90 
    1000    255.24891   -163.23332   -131.19662   -163.23332            0   -202.91085    20.196391    20.082587    20.290505            0            0            0    8229.7431    325.89001    244.73429   -1179.3569   -1479.1982   -518.85937   -658.12067    20.196391    20.082587    20.290505           90           90           90 
    1500    243.89176   -163.37539   -132.76415   -163.37539            0     9315.514    20.246944     20.14948    20.276075            0            0            0    8271.9367    5661.7514    12109.322    10175.469    1689.4346    -2782.271    730.85571    20.246944     20.14948    20.276075           90           90           90 
    2000    245.88855   -161.57619   -130.71433   -161.57619            0   -2934.2486    20.182955    20.115207    20.361807            0            0            0    8266.5743   -4411.5245    1014.1186   -5405.3399    736.74819   -234.95657    785.69358    20.182955    20.115207    20.361807           90           90           90 
    2500    254.30463   -161.53579   -129.61761   -161.53579            0    5170.9698    19.985831    20.160459    20.490668            0            0            0    8256.1725    5153.1172    4207.6474    6152.1449    2821.2901    85.258723    769.64316    19.985831    20.160459    20.490668           90           90           90 
    3000    244.97511    -160.5763   -129.82909    -160.5763            0    5206.0774    20.003316    20.188824    20.663196            0            0            0     8344.696    5574.3716    6599.2376    3444.6229   -329.78424   -2514.6244    1922.4844    20.003316    20.188824    20.663196           90           90           90 
    3500    236.71369   -160.36566   -130.65534   -160.36566            0    2993.7137    20.200729    19.988199    20.515866            0            0            0    8283.8181    5584.6384    1924.4186    1472.0839    1028.4231    3295.2159    924.26336    20.200729    19.988199    20.515866           90           90           90 
    4000    245.21013   -161.71931    -130.9426   -161.71931            0    3214.8296    20.337501    19.942555    20.402065            0            0            0    8274.7048    2801.5946    4621.7667    2221.1275    650.26626     2093.162     495.4801    20.337501    19.942555    20.402065           90           90           90 
    4500    249.07922   -162.61834     -131.356   -162.61834            0    3545.6348    20.173153    20.066597    20.364094            0            0            0    8243.5186    5222.7498    2189.4036    3224.7509   -530.76683   -1636.2478    1189.7482    20.173153    20.066597    20.364094           90           90           90 
    5000    237.33265   -160.53579   -130.74779   -160.53579            0    4085.9858    20.103908    20.205763    20.517775            0            0            0    8334.6238    3097.4886    5016.8755    4143.5932    -126.7393      580.901   -704.39267    20.103908    20.205763    20.517775           90           90           90 
    5500    232.89111   -161.48336   -132.25282   -161.48336            0    3376.9942    19.977277    20.169276    20.555271            0            0            0    8282.2783    2592.3754    1496.4581    6042.1492    272.63443   -2257.8992   -906.37508    19.977277    20.169276    20.555271           90           90           90 
    6000    250.61055   -162.39557   -130.94104   -162.39557            0    5768.6224    20.026407    20.149394    20.566568            0            0            0    8299.0207    6205.3515    8526.4491    2574.0665   -293.65288    1128.0611     1595.161    20.026407    20.149394    20.566568           90           90           90 
    6500    243.25575    -162.3456   -131.81418    -162.3456            0    6884.2411    20.149403    20.062692    20.410206            0            0            0    8250.8515    7019.8827    9601.7836    4031.0569   -1677.9717   -531.32685    2750.2827    20.149403    20.062692    20.410206           90           90           90 
    7000    244.13299    -160.3114   -129.66988    -160.3114            0    2096.8793    20.309466    20.108989     20.31979            0            0            0    8298.6595    1132.5932    438.52251    4719.5223   -286.40111   -652.53022    1344.5408    20.309466    20.108989     20.31979           90           90           90 
    7500    245.51266   -160.51679   -129.70211   -160.51679            0    2247.1926     20.17139    20.178382    20.405536            0            0            0    8305.5839    4202.0619   -1933.0452    4472.5612    33.789372    369.98933   -2374.7378     20.17139    20.178382    20.405536           90           90           90 
    8000    243.79969   -161.89829    -131.2986   -161.89829            0      5051.53    19.901057    20.151537    20.663916            0            0            0    8286.9928    6577.7988    3708.8151    4867.9761   -1064.6177    1253.6763    955.86085    19.901057    20.151537    20.663916           90           90           90 
    8500    237.23358   -161.97566   -132.20009   -161.97566            0    4491.4948     19.96958    20.006861    20.847477            0            0            0    8329.1633    6836.7461    4564.7996    2072.9388   -207.27349    2181.5408   -2610.7351     19.96958    20.006861    20.847477           90           90           90 
    9000    251.98963   -161.05632    -129.4287   -161.05632            0    3299.0873     20.27133    19.901426    20.620235            0            0            0    8318.7876    3333.7192    5150.4496    1413.0932    238.29665    -980.7197   -1390.4843     20.27133    19.901426    20.620235           90           90           90 
    9500    265.57722   -163.08016   -129.74714   -163.08016            0     4698.207    20.352824      20.0615    20.346379            0            0            0    8307.5927     6037.567    3392.7291     4664.325    367.44827     4452.268    538.08264    20.352824      20.0615    20.346379           90           90           90 
   10000     247.0937   -159.91115   -128.89803   -159.91115            0    4734.8249    20.116678     20.19748    20.192062            0            0            0    8204.1599     6797.493    2175.3787    5231.6031   -507.53645   -3527.9706   -408.36905    20.116678     20.19748    20.192062           90           90           90 
   10500    257.48359   -159.86262   -127.54544   -159.86262            0    2058.8105     20.14729    20.281477    20.361017            0            0            0    8319.8534    -3130.978    4191.3462    5116.0632    -105.3945    612.07034    3267.4511     20.14729    20.281477    20.361017           90           90           90 
   11000    254.67319   -161.81606   -129.85162   -161.81606            0    5936.4734    20.141637    20.049812    20.532348            0            0            0    8291.7023    4301.1607    7000.8906    6507.3688   -1181.7243    2810.6966   -549.30264    20.141637    20.049812    20.532348           90           90           90 
   11500    240.95664   -161.27639   -131.03354   -161.27639            0    1433.4818    20.141112    19.997109     20.67582            0            0            0    8327.4759    1921.9504    1082.1797    1296.3154    1032.0653    -728.8947    493.38897    20.141112    19.997109     20.67582           90           90           90 
   12000    247.07921   -160.70867   -129.69736   -160.70867            0     1993.808    20.120571    20.014059    20.563391            0            0            0    8280.7605    1146.2539     2775.412     2059.758    321.19496   -1839.2449   -586.70813    20.120571    20.014059    20.563391           90           90           90 
   12500    249.07826   -160.97333   -129.71112   -160.97333            0    4759.0474    20.240479    20.112732    20.479077            0            0            0     8336.855    6026.1261    2256.8358    5994.1802   -683.23169     168.2247     -562.838    20.240479    20.112732    20.479077           90           90           90 
   13000    245.62227   -159.42272   -128.59427   -159.42272            0    3607.1276    20.211604    20.043917    20.362516            0            0            0    8249.2569    7592.8944   -615.76329    3844.2517    901.38332    2061.1325    34.798643    20.211604    20.043917    20.362516           90           90           90 
   13500    245.42036   -162.44572   -131.64262   -162.44572            0    1151.0204    20.173902    20.114132    20.415828            0            0            0    8284.3452    3173.7189   -450.34603    729.68823   -189.28133    503.60241    1091.2799    20.173902    20.114132    20.415828           90           90           90 
   14000    243.65947   -162.58177   -131.99968   -162.58177            0    3114.1067    20.093947    20.247857    20.531098            0            0            0    8353.2693    5256.4793    2307.6369    1778.2041    307.30623   -764.61489   -2796.7297    20.093947    20.247857    20.531098           90           90           90 
   14500    240.87333   -162.57777   -132.34537   -162.57777            0    4403.6025     19.95554    20.092163    20.446518            0            0            0    8198.0309     5951.541    3157.6986    4101.5679    376.09785    659.33944    830.91972     19.95554    20.092163    20.446518           90           90           90 
   15000    252.64749   -161.85121   -130.14102   -161.85121            0    1465.7382    20.158797    20.121119    20.512308            0            0            0    8320.1522    2348.6372   -1540.4923    3589.0696      1006.42   -1513.4387   -199.46723    20.158797    20.121119    20.512308           90           90           90 
   15500    247.67296   -161.82678   -130.74095   -161.82678            0    600.16298    20.212124    20.080043     20.52264            0            0            0    8329.3254    952.52444   -366.13631    1214.1008   -549.48493   -262.95295    493.87548    20.212124    20.080043     20.52264           90           90           90 
   16000    247.84893   -161.12286   -130.01494   -161.12286            0    4413.7288    20.198491    20.060949    20.459959            0            0            0     8290.394    2372.4749    7237.2598    3631.4518    410.99898     2978.829    2501.7842    20.198491    20.060949    20.459959           90           90           90 
   16500    251.39229   -161.49925   -129.94661   -161.49925            0    1911.0006    20.168955    20.059174    20.454361            0            0            0    8275.2734   -1541.4198    6005.9741    1268.4473    420.11771    1015.6808     -3086.78    20.168955    20.059174    20.454361           90           90           90 
   17000    245.04734   -161.05294   -130.29666   -161.05294            0    7412.1196    20.139335    20.099187    20.374842            0            0            0    8247.4152    6877.2683    7623.5043    7735.5863    378.09982    1693.3494    1570.2059    20.139335    20.099187    20.374842           90           90           90 
   17500    249.54036   -161.76047   -130.44026   -161.76047            0    2631.0932    20.196074    20.296426    20.486888            0            0            0    8397.7415    4226.0572   -985.10092    4652.3234   -330.72237    499.09259   -1053.1402    20.196074    20.296426    20.486888           90           90           90 
   18000    240.10606   -162.17463   -132.03853   -162.17463            0    2771.0112    19.975588    20.254718    20.566765            0            0            0     8321.311    2928.1224    2173.4294    3211.4817   -313.08851   -796.27501    2905.2813    19.975588    20.254718    20.566765           90           90           90 
   18500    243.47687   -162.13291   -131.57374   -162.13291            0    5743.2842    19.878829    19.996318    20.451832            0            0            0    8129.6727    6091.1923    5126.4527    6012.2077   -206.57675   -241.00189    3549.2438    19.878829    19.996318    20.451832           90           90           90 
   19000    240.26255   -161.60273   -131.44699   -161.60273            0   -2484.4031    20.406579    20.063635    20.571051            0            0            0    8422.4087   -2964.6214   -2235.5186   -2253.0692    129.69818   -2366.8243   -528.93513    20.406579    20.063635    20.571051           90           90           90 
   19500    246.46777    -161.4678   -130.53324    -161.4678            0    4212.6205    20.317749    19.960952     20.40934            0            0            0    8277.2449    6183.3336    5082.4577    1372.0702     1729.827      2835.57   -2422.6923    20.317749    19.960952     20.40934           90           90           90 
   20000    240.93515   -162.36556    -132.1254   -162.36556            0   -235.89065    20.093398    20.040912    20.388923            0            0            0    8210.4158    482.92555   -1686.4989    495.90142   -1503.3216     1430.367   -1712.4877    20.093398    20.040912    20.388923           90           90           90 
   20500    248.06722   -163.07585   -131.94053   -163.07585            0    390.85431    20.095567    20.283873    20.460424            0            0            0    8339.9949    1838.9543   -187.18499   -479.20639   -76.393797    958.84374   -328.06811    20.095567    20.283873    20.460424           90           90           90 
   21000    249.82437   -162.89257   -131.53671   -162.89257            0    1887.0544    20.027552    20.239525    20.374302            0            0            0    8258.6853    269.01994    479.79052    4912.3528    864.30438    116.82759    426.78462    20.027552    20.239525    20.374302           90           90           90 
   21500    234.10798   -162.76455   -133.38128   -162.76455            0      4263.09    20.106179    20.077173    20.359954            0            0            0    8218.8093    1929.4559     6694.787    4165.0271     5.086194    -581.0407    1598.3987    20.106179    20.077173    20.359954           90           90           90 
   22000    249.22472   -162.20037   -130.91978   -162.20037            0     4274.937    20.274755    20.087752    20.400454            0            0            0    8308.5798    3141.9665    4107.7888    5575.0557     727.1579   -570.40735    -2153.167    20.274755    20.087752    20.400454           90           90           90 
   22500    240.08217    -160.6705    -130.5374    -160.6705            0    1926.4071    20.258296    19.999663    20.479451            0            0            0    8297.4358    2769.8046    839.21125    2170.2055   -356.97074    1650.4304   -1372.6286    20.258296    19.999663    20.479451           90           90           90 
   23000    239.09809   -162.51226   -132.50268   -162.51226            0   -306.04298    20.059529    20.008591    20.633922            0            0            0    8281.6909    2980.2131   -2555.5226   -1342.8195   -1568.5957   -1013.1635   -1929.5886    20.059529    20.008591    20.633922           90           90           90 
   23500    243.75914   -161.00804   -130.41344   -161.00804            0    2446.0166    20.010252     20.11007    20.579573            0            0            0    8281.3758    4703.8678    2396.9531    237.22888    325.39893    1927.6525   -37.754424    20.010252     20.11007    20.579573           90           90           90 
   24000    257.91374   -161.43907    -129.0679   -161.43907            0    3120.2828    20.199143    20.306525    20.356502            0            0            0    8349.7159    3024.1771    3783.7748    2552.8965     55.16341    2268.7644    1308.1359    20.199143    20.306525    20.356502           90           90           90 
   24500    241.53134   -159.92775   -129.61277   -159.92775            0    2852.8191    20.293695    20.210331    20.228585            0            0            0    8296.5984    2104.5811     1611.785    4842.0911    1704.2051    1092.9503    2224.0494    20.293695    20.210331    20.228585           90           90           90 
   25000    246.34468   -160.79433   -129.87522   -160.79433            0    3698.5364    20.185004    20.014934    20.308149            0            0            0    8204.5231    1051.1176    4781.9903    5262.5012   -466.00158    2366.3881     1624.465    20.185004    20.014934    20.308149           90           90           90 
   25500    248.62264   -160.68526   -129.48024   -160.68526            0    5300.0902    20.108562    20.106938    20.685303            0            0            0    8363.5146    3021.3207    7286.9923    5591.9575    560.25142    39.210258     202.5039    20.108562    20.106938    20.685303           90           90           90 
   26000    251.99226    -160.5516   -128.92365    -160.5516            0    4821.8074      20.0534    20.035046    20.704579            0            0            0     8318.495    3016.7505    6262.0914    5186.5802   -522.43268   -695.83084    1047.9318      20.0534    20.035046    20.704579           90           90           90 
   26500    243.44571   -161.71997   -131.16471   -161.71997            0    4501.2738    20.216114     19.97636    20.567924            0            0            0    8306.2404    2777.7605    7778.2768     2947.784   -1021.1224    2311.4967   -397.66481    20.216114     19.97636    20.567924           90           90           90 
   27000    248.84145   -160.31865   -129.08616   -160.31865            0    4897.2219    20.260496    20.036823    20.347626            0            0            0    8260.2404    2608.4433    6894.9254    5188.2971    92.683557   -2806.4459    2066.5715    20.260496    20.036823    20.347626           90           90           90 
   27500    237.58301   -160.06639   -130.24697   -160.06639            0    1405.7698    20.193829    20.305303    20.378317            0            0            0    8355.9619    115.65398    3125.3766    976.27876    -119.2332   -1059.9512    2556.8603    20.193829    20.305303    20.378317           90           90           90 
   28000    249.50808   -162.29565   -130.97949   -162.29565            0    6290.6944    19.879717    20.162777    20.364887            0            0            0    8162.8636    5546.3089    7821.4645    5504.3099   -291.77282   -220.00837   -2929.2194    19.879717    20.162777    20.364887           90           90           90 
   28500    245.59534   -161.16153   -130.33647   -161.16153            0    2342.3953    20.103498    20.202667    20.574231            0            0            0    8356.1062     3760.496     471.9256    2794.7644    300.36423   -1008.3537   -1423.4663    20.103498    20.202667    20.574231           90           90           90 
   29000      246.724   -161.00597   -130.03925   -161.00597            0    2716.7437    20.285884    20.042296    20.591527            0            0            0    8372.0141    2733.0095    3006.3625    2410.8591   -402.73523    281.89184    1147.0473    20.285884    20.042296    20.591527           90           90           90 
   29500    244.52033   -159.91903   -129.22889   -159.91903            0     4676.232    20.173406    19.992002    20.470955            0            0            0    8256.0748     5509.776    4666.1349     3852.785    3165.6188    1529.9609   -1859.6704    20.173406    19.992002    20.470955           90           90           90 
   30000    260.51895   -160.28602   -127.58787   -160.28602            0    3884.2206    20.163686    20.166772    20.464128            0            0            0    8321.4604    5554.3106    4928.5138    1169.8372    859.31675   -739.87647   -534.43798    20.163686    20.166772    20.464128           90           90           90 
   30500    255.32069   -161.06313   -129.01742   -161.06313            0    984.11261    20.200648    20.203577    20.454501            0            0            0    8348.0001    1550.8116   -2930.6318    4332.1581    1728.5167   -3119.3313   -455.90754    20.200648    20.203577    20.454501           90           90           90 
   31000    256.68751   -161.10935   -128.89209   -161.10935            0    1944.6337    20.153293    20.125845    20.551733            0            0            0    8335.8251    1104.0885    2373.1152    2356.6972   -1012.4942    1449.5909    1376.5965    20.153293    20.125845    20.551733           90           90           90 
   31500    246.63998   -160.24659   -129.29041   -160.24659            0    1304.4161    20.047756    20.060428    20.612531            0            0            0    8289.6708    3740.3286    1072.3327   -899.41307    1313.3399    895.49466    586.91434    20.047756    20.060428    20.612531           90           90           90 
   32000    247.01615   -161.81281   -130.80942   -161.81281            0    1038.7944    20.079302    20.044582    20.462619            0            0            0    8235.8199    3698.6995   -2178.2203     1595.904   -428.07062   -45.543947   -3386.7968    20.079302    20.044582    20.462619           90           90           90 
   32500    250.42592   -161.30579   -129.87443   -161.30579            0    2131.5654    20.354571    20.194431    20.527074            0            0            0    8437.6326   -1548.6236     4647.015    3296.3047    619.14649   -364.74997    1546.0941    20.354571    20.194431    20.527074           90           90           90 
   33000    240.92161   -159.64554   -129.40709   -159.64554            0    3884.5252    20.121635    20.036298    20.372645            0            0            0    8213.4985    4814.9203    3249.3568    3589.2984   -30.205541   -1719.0279   -738.60514    20.121635    20.036298    20.372645           90           90           90 
   33500    246.15438   -161.88439   -130.98916   -161.88439            0    2600.0559    20.122642    20.101982    20.454948            0            0            0    8274.1284    4035.3372    3785.6461   -20.815544    227.35503   -956.44605   -1739.5511    20.122642    20.101982    20.454948           90           90           90 
   34000    240.87646   -162.53894   -132.30615   -162.53894            0    2455.2612    20.145542    20.191849    20.547895            0            0            0    8358.3849    574.75451     5569.793    1221.2361     428.7123    -97.38956   -2201.2292    20.145542    20.191849    20.547895           90           90           90 
   34500    238.58958   -163.20242   -133.25666   -163.20242            0    718.88268     20.09765    20.128275    20.435261            0            0            0     8266.697    3121.4647   -1524.5347    559.71806    1177.9399   -379.10844    859.73014     20.09765    20.128275    20.435261           90           90           90 
   35000    241.89716   -163.73256   -133.37166   -163.73256            0    6421.7338     20.12932    20.060538    20.276491            0            0            0    8187.7481    2418.4071    9170.3994     7676.395   -1029.9445    1329.3361   -1830.8609     20.12932    20.060538    20.276491           90           90           90 
   35500    234.30369   -161.95744    -132.5496   -161.95744            0    2787.6262    20.330054    20.018971    20.399976            0            0            0    8302.5202    3180.7633    2172.4715    3009.6437    100.93137   -1518.7191   -1551.0068    20.330054    20.018971    20.399976           90           90           90 
   36000    245.26494    -162.0198   -131.23621    -162.0198            0    1523.2161     20.34428    20.018568    20.674894            0            0            0    8420.1266    3559.0221    1060.7947   -50.168398   -628.32505    2429.1376   -1604.1249     20.34428    20.018568    20.674894           90           90           90 
   36500    250.02373   -161.66065   -130.27977   -161.66065            0    6557.7973    19.824968     19.94818    20.576378            0            0            0    8137.3821    6922.9213    5214.3975    7536.0732    206.90397   -367.22185   -2688.7781    19.824968     19.94818    20.576378           90           90           90 
   37000    244.12485   -161.56189   -130.92139   -161.56189            0    2821.0604    20.017185    20.226698    20.526573            0            0            0    8310.8308    3940.2992    3052.4358    1470.4462     537.5495   -364.53347    177.71741    20.017185    20.226698    20.526573           90           90           90 
   37500    241.23238   -161.65115   -131.37369   -161.65115            0      1714.65      20.2523    20.235459    20.375857            0            0            0    8350.3232    2745.0531   -1088.6288    3487.5257   -1373.7236    317.15787   -3121.1049      20.2523    20.235459    20.375857           90           90           90 
   38000    250.15513   -160.82493   -129.42756   -160.82493            0    1265.5653     20.20776    20.059172    20.343683            0            0            0    8246.3311    1345.0361    2811.3832   -359.72336    1418.3582   -1100.7957    2318.5839     20.20776    20.059172    20.343683           90           90           90 
   38500    251.25835   -161.90899   -130.37315   -161.90899            0    3039.3697    20.159274    20.118015    20.508473            0            0            0    8317.5103    4942.7193    1659.8134    2515.5763   -636.90886    3382.6248   -1743.7777    20.159274    20.118015    20.508473           90           90           90 
   39000    246.16002   -162.49485   -131.59892   -162.49485            0    4153.3063    19.996439    20.144714    20.641974            0            0            0    8315.0528    7998.0357    3319.4537    1142.4294    -447.7812   -1225.0978    584.41808    19.996439    20.144714    20.641974           90           90           90 
   39500    249.11604   -161.47873   -130.21178   -161.47873            0    3604.8441    20.027879     20.01156     20.60691            0            0            0    8259.0249    4874.6838    5106.9517    832.89675    -1967.622    1255.8305   -1116.1775    20.027879     20.01156     20.60691           90           90           90 
   40000     245.2837   -161.83874   -131.05279   -161.83874            0    2205.9179    20.310141    19.948131    20.457577            0            0            0    8288.3738    3617.5376   -298.15041    3298.3664    750.71523   -1806.3682   -3680.0194    20.310141    19.948131    20.457577           90           90           90 
   40500    239.16839   -161.36019   -131.34178   -161.36019            0   -522.49863    20.355494     20.12297    20.338748            0            0            0    8331.0155   -791.29101   -784.31549    8.1105919    179.98847    118.90497   -2503.3068    20.355494     20.12297    20.338748           90           90           90 
   41000    237.62398   -161.28792   -131.46335   -161.28792            0    1562.1234    20.000729    20.220565    20.379592            0            0            0    8242.0376    2869.3374    1519.4344    297.59829   -86.895056   -2208.2822   -2353.7606    20.000729    20.220565    20.379592           90           90           90 
   41500    248.30106   -161.25053   -130.08586   -161.25053            0    3043.4611    19.980702    20.193738    20.566061            0            0            0    8298.0983    2671.2804    3726.4781     2732.625    686.93907    1839.4011   -799.34483    19.980702    20.193738    20.566061           90           90           90 
   42000     247.9183   -162.33481   -131.21819   -162.33481            0     1621.452    20.212105    20.001311    20.619912            0            0            0    8335.9829    665.25874    2640.5202    1558.5772     1447.753   -2994.7729   -2111.0825    20.212105    20.001311    20.619912           90           90           90 
   42500    251.05567   -160.98199   -129.47159   -160.98199            0    769.09451    20.324928     19.91687    20.596822            0            0            0    8337.7782   -105.16696    2796.6887   -384.23819    1347.6827   -1149.5513   -174.28042    20.324928     19.91687    20.596822           90           90           90 
   43000    255.92535   -161.98232   -129.86072   -161.98232            0    1544.8055    20.132351    20.100838    20.440351            0            0            0    8271.7425    2180.1526    727.78677    1726.4772    1892.5249   -17.156967    540.18724    20.132351    20.100838    20.440351           90           90           90 
   43500    249.00893   -161.76157   -130.50806   -161.76157            0    2446.7153    20.105851    20.283249    20.431676            0            0            0    8332.2823    1073.7188   -750.82677     7017.254    126.41404     -53.1901   -247.82337    20.105851    20.283249    20.431676           90           90           90 
   44000    248.03271   -161.76836   -130.63738   -161.76836            0    4495.0233    20.159579    20.132813    20.474385            0            0            0    8309.9192      6621.73    2591.6217    4271.7183   -116.19084    3547.3879    258.49553    20.159579    20.132813    20.474385           90           90           90 
   44500    241.49433   -161.08181   -130.77147   -161.08181            0    2545.3094    20.119052    20.018385    20.469523            0            0            0    8244.1192    4269.8137    -1674.163    5040.2777   -325.69032   -447.20551    1279.6248    20.119052    20.018385    20.469523           90           90           90 
   45000    235.09632   -162.35768   -132.85036   -162.35768            0    2278.6684    20.179998    20.125101    20.538409            0            0            0     8341.151    1521.5655    5723.2434   -408.80375   -1788.3115   -1988.4202   -1413.2041    20.179998    20.125101    20.538409           90           90           90 
   45500    235.31218   -161.22262   -131.68821   -161.22262            0    2547.4411    20.157946    20.087996    20.531266            0            0            0    8313.7816    3813.6936    488.01754    3340.6122    2220.4341    50.465687   -1099.7827    20.157946    20.087996    20.531266           90           90           90 
   46000    247.73209   -162.26962   -131.17637   -162.26962            0    188.87152    20.110292    19.955867    20.511447            0            0            0    8231.6192    1528.6893   -527.02443   -435.05033   -1303.1816   -201.55222   -2532.7685    20.110292    19.955867    20.511447           90           90           90 
   46500    246.80605   -161.90742    -130.9304   -161.90742            0   -41.345959    20.278237     20.09301    20.515282            0            0            0    8358.9681   -1236.2709   -235.74887    1347.9819    281.64203    450.12864    1251.0375    20.278237     20.09301    20.515282           90           90           90 
   47000    240.93958    -160.2334   -129.99269    -160.2334            0    3459.5528    20.212843    20.165124    20.359638            0            0            0    8298.4764    4378.9767    2359.1557     3640.526   -984.80867   -3399.6791   -1114.6974    20.212843    20.165124    20.359638           90           90           90 
   47500     251.9364   -161.07519   -129.45425   -161.07519            0    1107.3678    20.089846    20.169174    20.271484            0            0            0    8213.9158    2451.3733   -383.99139    1254.7215   -1862.9881     -207.211   -325.58784    20.089846    20.169174    20.271484           90           90           90 
   48000    244.78151   -160.80561   -130.08269   -160.80561            0    4247.5447    20.132187    20.253147    20.482198            0            0            0    8351.4143      6792.65    3505.8144    2444.1697     1556.574   -2047.1045   -1368.6722    20.132187    20.253147    20.482198           90           90           90 
   48500    241.66306   -160.39914   -130.06762   -160.39914            0    3408.9597    20.143413    20.055351    20.623357            0            0            0    8331.4904    2022.7735    3353.2533    4850.8524   -2819.9782    1281.0464    1067.7334    20.143413    20.055351    20.623357           90           90           90 
   49000    245.02548   -159.44973   -128.69619   -159.44973            0    3652.5316    20.125069    19.963652     20.58772            0            0            0    8271.5257    2267.2278    3950.6024    4739.7646    981.97063   -2150.1172   -830.33574    20.125069    19.963652     20.58772           90           90           90 
   49500     257.6945   -158.45738   -126.11374   -158.45738            0    1112.7318    20.237897    20.063497    20.472032            0            0            0    8312.5249    2256.4978    780.67915    301.01829    -1250.073   -1121.1803    362.30746    20.237897    20.063497    20.472032           90           90           90 
   50000    251.22679   -160.10413   -128.57225   -160.10413            0    2704.6327    20.275189     20.19533    20.332303            0            0            0    8325.3485    2709.3676    3973.6867    1430.8439    1986.5213    316.24232   -499.53518    20.275189     20.19533    20.332303           90           90           90 
   50500    239.96811   -160.37179     -130.253   -160.37179            0    2471.4431     20.10498    20.164258    20.333076            0            0            0      8243.07    608.03237    1135.8277    5670.4692    2197.1003     -407.367    48.025061     20.10498    20.164258    20.333076           90           90           90 
   51000    249.94938   -160.93487   -129.56332   -160.93487            0    4973.2825    20.080211    20.071939    20.479161            0            0            0    8254.1004    4716.9774    7732.0425    2470.8275     167.3132    620.02668   -753.03751    20.080211    20.071939    20.479161           90           90           90 
   51500    246.31196   -161.20376   -130.28875   -161.20376            0    1626.0108    20.145711    20.098381    20.697787            0            0            0    8380.4545    3105.9217    676.39597    1095.7147   -179.05003   -2507.4635     13.07754    20.145711    20.098381    20.697787           90           90           90 
   52000    237.09542   -162.10932   -132.35109   -162.10932            0    5248.1297    20.070093    20.056676     20.63231            0            0            0    8305.3169    7165.9931    4790.9549    3787.4412    1481.0669   -1229.2252   -1728.3145    20.070093    20.056676     20.63231           90           90           90 
   52500    241.98264   -160.04986   -129.67823   -160.04986            0    6721.0048    20.091441    20.120918     20.31384            0            0            0    8212.0372    7933.5335    6712.6937    5516.7872   -1518.9706   -2589.8354    2547.4718    20.091441    20.120918     20.31384           90           90           90 
   53000    245.18458    -162.1366   -131.36309    -162.1366            0    1117.8193    20.339493    20.333825    20.188418            0            0            0    8349.5197    1604.4605   -2177.0362    3926.0335    693.46287    2533.1724   -2.1875885    20.339493    20.333825    20.188418           90           90           90 
   53500    252.90331   -162.57244   -130.83014   -162.57244            0    1849.7646    20.257234     20.19919    20.225917            0            0            0     8276.035    434.51915    3276.1266    1838.6481    168.88501    2263.0262    512.28704    20.257234     20.19919    20.225917           90           90           90 
   54000    247.61075   -161.07407   -129.99605   -161.07407            0    1028.7908    20.022786    20.024187    20.654447            0            0            0    8281.1943    4232.0607   -2074.6169    928.92872   -280.07683    1573.2215   -888.29224    20.022786    20.024187    20.654447           90           90           90 
   54500    240.32551   -162.83374    -132.6701   -162.83374            0     3634.721    20.031212    19.989375    20.872159            0            0            0    8357.4509    7004.2283    2329.8331    1570.1015   -179.38092   -803.51936   -1775.0339    20.031212    19.989375    20.872159           90           90           90 
   55000      252.103    -162.5072   -130.86534    -162.5072            0     2812.533    20.135817    20.042518    20.585129            0            0            0    8307.5913    1637.2165    1776.0673    5024.3151   -640.44887    2024.9013    9.6713484    20.135817    20.042518    20.585129           90           90           90 
   55500    246.19081   -163.29534   -132.39554   -163.29534            0    4784.7778    20.244306    20.129591    20.288715            0            0            0    8267.8462    3724.1444     8331.247    2298.9419   -388.48013   -1450.4501    88.011823    20.244306    20.129591    20.288715           90           90           90 
   56000    247.49606    -159.9132   -128.84958    -159.9132            0    5210.7288    20.264022    20.149629    20.215253            0            0            0     8254.141    5392.7854    3693.7043    6545.6965    299.46612    196.85375   -3680.7683    20.264022    20.149629    20.215253           90           90           90 
   56500    243.98427   -160.64274   -130.01989   -160.64274            0    767.73811    20.239319    20.189688    20.434338            0            0            0    8349.9925   -292.03789    2067.4601    527.79208    553.94435   -561.03057    435.52727    20.239319    20.189688    20.434338           90           90           90 
   57000    251.51739   -161.58521   -130.01686   -161.58521            0    4136.1247    20.106686    20.041359    20.522583            0            0            0    8269.8889     6239.653    3334.9142    2833.8069   -408.63842    182.15256    1306.3754    20.106686    20.041359    20.522583           90           90           90 
   57500    245.49333   -161.51405   -130.70179   -161.51405            0     5920.822    20.106961    20.049319    20.552055            0            0            0    8285.1677    3448.3648    7108.6058    7205.4955   -1166.3274    -3571.466   -385.31426    20.106961    20.049319    20.552055           90           90           90 
   58000    242.43799   -160.90396   -130.47518   -160.90396            0    4223.8239    20.127838    20.214383     20.37857            0            0            0    8291.4662    4163.2511    4287.3038    4220.9168   -713.13408   -1449.5856   -606.39954    20.127838    20.214383     20.37857           90           90           90 
   58500    238.74473   -160.38643    -130.4212   -160.38643            0    4737.3182     20.21157    20.366485    20.191888            0            0            0     8311.761    1457.9858    4243.2661    8510.7026    2121.6288    1117.8478    2727.1579     20.21157    20.366485    20.191888           90           90           90 
   59000    254.74732   -160.91784   -128.94409   -160.91784            0    5204.1086     20.29486    20.177707    20.275036            0            0            0    8302.7026    2370.3176    7708.9432    5533.0648   -115.96225   -412.64981   -988.11371     20.29486    20.177707    20.275036           90           90           90 
   59500    255.47157   -161.78592   -129.72127   -161.78592            0    5140.5646    20.228081    19.868546     20.53647            0            0            0    8253.6599     6038.408    3607.3524    5775.9336    137.36476    821.61807    1866.5414    20.228081    19.868546     20.53647           90           90           90 
   60000    238.89558   -161.36519   -131.38102   -161.36519            0    2425.2908    20.162157    20.023042    20.712666            0            0            0    8361.8626    3061.2968    4832.4198   -617.84422    878.23912    2870.3058    753.93456    20.162157    20.023042    20.712666           90           90           90 
   60500    247.33385   -162.69807    -131.6548   -162.69807            0    1622.9026    20.050871    20.172476    20.486337            0            0            0    8286.2259    1913.2585    1588.0535    1367.3958   -629.29424   -1888.5891    -123.3511    20.050871    20.172476    20.486337           90           90           90 
   61000    239.99166   -160.58232   -130.46058   -160.58232            0    1579.8359    20.154085    20.207828    20.266541            0            0            0      8253.96    1054.1908    1862.7627    1822.5541   -2763.3679    422.19863   -1247.5213    20.154085    20.207828    20.266541           90           90           90 
   61500      246.866   -161.27538   -130.29083   -161.27538            0    485.58379    20.271394     20.15136     20.29508            0            0            0    8290.4621      3104.81   -2832.6903    1184.6318   -140.55994   -3.6714855     534.2192    20.271394     20.15136     20.29508           90           90           90 
   62000    239.67022   -159.92027   -129.83888   -159.92027            0    4272.0109    20.229355    20.046888    20.465935            0            0            0    8299.6657    5349.2605    2477.3388    4989.4336   -905.21939   -353.42508   -1759.5872    20.229355    20.046888    20.465935           90           90           90 
   62500    244.55097   -161.28508    -130.5911   -161.28508            0    3889.6817    20.119842     19.93263    20.551679            0            0            0    8242.0737     2423.059    7192.5821     2053.404    917.96155   -1945.0218   -2648.8186    20.119842     19.93263    20.551679           90           90           90 
   63000    259.76952   -160.91562   -128.31153   -160.91562            0    2670.6364    20.146634    20.107838    20.537088            0            0            0    8319.6822    360.58374    3326.7349    4324.5905    282.83973    206.49536    818.31533    20.146634    20.107838    20.537088           90           90           90 
   63500    253.13546    -162.9138   -131.14236    -162.9138            0    5537.0167     20.17753    20.256107    20.356009            0            0            0     8319.871    5237.6199    4878.3561     6495.074   -551.35756    1507.9318   -843.50379     20.17753    20.256107    20.356009           90           90           90 
   64000    252.55189   -161.22077   -129.52258   -161.22077            0    3798.9536     20.14497    20.241879    20.241116            0            0            0     8253.761    5564.8432    1311.1347    4520.8829   -1694.2587   -3795.6965    3770.4386     20.14497    20.241879    20.241116           90           90           90 
   64500    241.72938   -160.70966   -130.36982   -160.70966            0    401.71131    20.276539     20.08672    20.474612            0            0            0    8339.0874   -1550.6757    1441.7685    1314.0411    1768.7799    2184.3846   -3581.6909    20.276539     20.08672    20.474612           90           90           90 
   65000    240.55143   -162.89246   -132.70046   -162.89246            0    3168.1747    20.195696    19.805782    20.753436            0            0            0     8301.199    3020.9361    3711.2395    2772.3486   -243.57431    488.45035    1906.5657    20.195696    19.805782    20.753436           90           90           90 
   65500    244.43661   -162.27084   -131.59121   -162.27084            0    2193.7868    20.033325    19.923409    20.816986            0            0            0    8308.7281     4275.713    3029.4699   -723.82259   -1636.8407    -693.5801    901.75424    20.033325    19.923409    20.816986           90           90           90 
   66000    256.77762   -160.77734   -128.54877   -160.77734            0    2681.1769    19.978181    20.259442    20.525793            0            0            0    8307.7489    713.30836    3687.3638    3642.8584   -452.33356     562.0082    -158.0056    19.978181    20.259442    20.525793           90           90           90 
   66500    252.68328   -161.56865   -129.85397   -161.56865            0    4543.2609    20.195108    20.351867     20.19395            0            0            0    8299.8777    8520.2605    3115.2736    1994.2486    -1355.972    1040.9842    3235.2004    20.195108    20.351867     20.19395           90           90           90 
   67000    245.58343   -162.18821   -131.36465   -162.18821            0    1360.3515    20.339286    20.199163      20.2123            0            0            0    8303.9519     3981.594   -1495.7641    1595.2247    368.50155    2206.8832   -298.78765    20.339286    20.199163      20.2123           90           90           90 
   67500    250.28881   -162.75358   -131.33943   -162.75358            0    1986.4585    20.161365     19.98018    20.375361            0            0            0    8207.7597    558.50579     2678.197    2722.6728   -112.23279    -787.9473    983.63126    20.161365     19.98018    20.375361           90           90           90 
   68000    238.55465   -161.53743   -131.59605   -161.53743            0    2575.6453    20.081414    20.089882    20.626504            0            0            0    8321.4175    2405.0641    4126.7118    1195.1599   -662.29802    261.17104   -530.15416    20.081414    20.089882    20.626504           90           90           90 
   68500    256.51629   -162.30495   -130.10918   -162.30495            0    2855.9318    20.095944    20.110465    20.568473            0            0            0    8312.5175    4287.2416    2749.7584    1530.7954    732.08253   -1898.7336   -2265.6848    20.095944    20.110465    20.568473           90           90           90 
   69000    234.87293   -161.16728     -131.688   -161.16728            0    3315.5627    20.214978    20.126369    20.424707            0            0            0     8309.876    436.24533    4105.0813    5405.3616    1641.2634     1695.066   -61.441448    20.214978    20.126369    20.424707           90           90           90 
   69500     239.2718     -161.722   -131.69062     -161.722            0    5198.1832    20.202605    20.054062    20.330532            0            0            0    8236.7986    10340.928    2415.4913    2838.1307   -351.12383    651.70106   -1087.1377    20.202605    20.054062    20.330532           90           90           90 
   70000    249.50444   -162.91524   -131.59954   -162.91524            0    5027.8907    20.158924    20.108576    20.364006            0            0            0    8254.9008    3248.7026    4328.2205    7506.7489   -247.63575   -2368.6287   -169.83741    20.158924    20.108576    20.364006           90           90           90 
   70500    241.84078   -161.91047   -131.55664   -161.91047            0    1331.9762    20.125917    20.225453    20.570073            0            0            0    8373.1674    2326.9922    2955.8875    -1286.951   -474.92722   -1323.4982   -921.39611    20.125917    20.225453    20.570073           90           90           90 
   71000    242.73551   -161.82902    -131.3629   -161.82902            0    4055.5393    19.980665    20.056519    20.578313            0            0            0    8246.6062    8472.5908    319.08237    3374.9449    403.59672    1474.9609    1772.0174    19.980665    20.056519    20.578313           90           90           90 
   71500    246.02077   -162.28217    -131.4037   -162.28217            0    2800.0663    20.147829    19.985548    20.511844            0            0            0    8259.4101    3259.2337    1263.3372    3877.6281    956.41714   -39.938665   -927.29973    20.147829    19.985548    20.511844           90           90           90 
   72000    255.48389   -160.21166   -128.14547   -160.21166            0    1724.5229    20.429429    20.063719    20.392672            0            0            0    8358.7591    -3057.792    4101.3495    4130.0113   -704.82193    1271.0279    447.19037    20.429429    20.063719    20.392672           90           90           90 
   72500    240.90362   -160.11538   -129.87918   -160.11538            0    1208.4225    20.312749    20.160184    20.212237            0            0            0     8277.088   -688.06695    2982.2462    1331.0882    1055.4061    -1792.499    1382.8333    20.312749    20.160184    20.212237           90           90           90 
   73000    242.53236   -162.02821   -131.58758   -162.02821            0    3365.5473    19.951152     20.24366    20.261409            0            0            0    8183.2657    6267.5529   -54.732403    3883.8213   -1900.2665     64.64238   -3239.1653    19.951152     20.24366    20.261409           90           90           90 
   73500    248.32938   -161.78949   -130.62127   -161.78949            0    1849.0387    20.025372    20.241612    20.602446            0            0            0     8351.115   -325.95633    2857.4947    3015.5778    998.28299   -346.92758    508.28224    20.025372    20.241612    20.602446           90           90           90 
   74000    248.51326   -162.34142   -131.15012   -162.34142            0    2283.0106    20.193113    20.002956    20.590809            0            0            0    8317.0797    706.48443    2306.5408    3836.0065    -1323.429    4647.6133    1477.8374    20.193113    20.002956    20.590809           90           90           90 
   74500     237.1261   -160.45236   -130.69028   -160.45236            0    4311.8969    20.207594     19.98189    20.503288            0            0            0    8278.9388    2868.9267    5520.1319    4546.6323      1880.28   -304.59933   -1456.9669    20.207594     19.98189    20.503288           90           90           90 
   75000    249.91302   -161.05241   -129.68543   -161.05241            0    4899.1764    20.159612    20.078936    20.389571            0            0            0    8253.3628     3157.287    4249.5863    7290.6561    -203.3732     2417.336     132.1003    20.159612    20.078936    20.389571           90           90           90 
   75500    241.22623   -162.13347   -131.85678   -162.13347            0    1502.4278    20.203696    20.218463    20.423502            0            0            0     8342.749     6310.303   -3828.8376    2025.8179   -252.64746   -2522.7758    2251.7178    20.203696    20.218463    20.423502           90           90           90 
   76000    254.38633   -162.33375   -130.40532   -162.33375            0    1349.8206    20.170741    20.150158    20.425831            0            0            0    8301.9488    3292.9658   -360.53799    1117.0341    1039.2508   -482.11001    522.54919    20.170741    20.150158    20.425831           90           90           90 
   76500    227.22633   -162.63907   -134.11953   -162.63907            0    7273.4184    20.089953    20.058617    20.374334            0            0            0    8210.3818    9548.8672    3027.2509    9244.1371    299.90559    3602.0745   -3108.3827    20.089953    20.058617    20.374334           90           90           90 
   77000    230.04785   -162.77009   -133.89642   -162.77009            0   -1375.3714    20.197825    20.186712    20.503592            0            0            0    8359.8819   -5625.5645    2951.5101   -1452.0597     1171.609   -2318.4461    2150.5855    20.197825    20.186712    20.503592           90           90           90 
   77500    245.46536   -161.83627   -131.02752   -161.83627            0    1561.3792    20.105117    20.067813    20.456412            0            0            0    8253.4616    3926.3924     1199.621   -441.87593   -1315.4904    425.11799   -6183.7271    20.105117    20.067813    20.456412           90           90           90 
   78000    254.51166   -160.36377    -128.4196   -160.36377            0    6272.3766    20.229857    20.077514    20.526643            0            0            0    8337.2091    3385.0172    7613.6671    7818.4456   -751.19046    402.42179    224.93559    20.229857    20.077514    20.526643           90           90           90 
   78500    242.22058    -162.6828   -132.28131    -162.6828            0    2304.3631    20.217449    20.049747    20.481545            0            0            0    8302.2908   -2082.0098     4852.009      4143.09    1509.7674    583.97921   -490.66821    20.217449    20.049747    20.481545           90           90           90 
   79000    242.65238   -162.67828   -132.22259   -162.67828            0    4846.0427    20.090205    20.052918    20.416131            0            0            0    8224.9903    2702.4563    5874.9555    5960.7164     251.3616    2323.7503   -1485.0783    20.090205    20.052918    20.416131           90           90           90 
   79500    244.08625   -161.02423   -130.38858   -161.02423            0   -308.83823    20.149776    20.228652     20.60148            0            0            0    8397.2211    638.24393   -2515.8746    951.11603     618.4267    1829.0052    1848.5415    20.149776    20.228652     20.60148           90           90           90 
   80000    244.97421     -160.222   -129.47489     -160.222            0    3637.0037    20.027353    20.171975    20.465611            0            0            0    8267.9283    2264.6627    3046.0874     5600.261    -1625.634    1066.9827     1321.142    20.027353    20.171975    20.465611           90           90           90 
   80500     243.4242   -161.15411   -130.60154   -161.15411            0    1548.4538    20.220867    20.176026    20.439079            0            0            0    8338.6687    4492.3006    938.70246   -785.64175   -1296.2543     436.7276     1888.706    20.220867    20.176026    20.439079           90           90           90 
   81000    240.98747   -160.76478   -130.51805   -160.76478            0     6284.733    20.312994    20.030044    20.414914            0            0            0    8306.2195    7173.4071    4483.7873    7197.0047    1001.9069    1805.8744     146.3791    20.312994    20.030044    20.414914           90           90           90 
   81500    236.85427   -161.37411   -131.64615   -161.37411            0    3154.6055    20.200111    20.018297    20.474844            0            0            0    8279.4501    3023.4876    5194.2047     1246.124   -428.87924    1001.6554   -109.85178    20.200111    20.018297    20.474844           90           90           90 
   82000    241.49459   -162.20909   -131.89872   -162.20909            0    4485.7773     19.98039    20.199634    20.550664            0            0            0    8294.1775    5872.1191    4114.6956    3470.5171    -152.5012   -1385.6027   -81.128513     19.98039    20.199634    20.550664           90           90           90 
   82500    250.93975   -160.16369   -128.66784   -160.16369            0    3180.5443     19.98377     20.37546    20.546578            0            0            0    8366.1246    8101.0923    629.51471    811.02577   -990.61846   -411.08562   -518.41782     19.98377     20.37546    20.546578           90           90           90 
   83000    249.37446   -160.98576   -129.68637   -160.98576            0    -553.4763    20.167762    20.227666    20.383921            0            0            0    8315.5542   -2123.1638    -36.40284    499.13773    871.35157    271.04631   -2187.1217    20.167762    20.227666    20.383921           90           90           90 
   83500    247.44096   -160.73118   -129.67447   -160.73118            0    5742.9147    20.242024    19.993611    20.256274            0            0            0    8197.9401    2775.1047    10085.599    4368.0403    1896.6817   -496.64707    15.560068    20.242024    19.993611    20.256274           90           90           90 
   84000    255.95232   -161.04761   -128.92262   -161.04761            0    3338.2626    20.246567    20.176818    20.413783            0            0            0    8339.2611    3374.6219    663.10475     5977.061     851.2683    367.69869    -324.5101    20.246567    20.176818    20.413783           90           90           90 
   84500    246.27127   -160.62792   -129.71802   -160.62792            0    2973.4031    20.128819    20.166296    20.515997            0            0            0      8327.93    7239.8117    577.63623    1102.7614    5.2110134    123.06906   -2296.6914    20.128819    20.166296    20.515997           90           90           90 
   85000    243.00681    -161.0012   -130.50103    -161.0012            0    5017.1797    20.147685    19.962876    20.562077            0            0            0    8270.1853    2067.0625    8560.6178    4423.8587     399.6059    1367.2055    2529.8452    20.147685    19.962876    20.562077           90           90           90 
   85500    249.46337   -160.40173   -129.09119   -160.40173            0     2854.769    20.207722    19.970084    20.602646            0            0            0    8314.1958    4273.9557    3054.1521    1236.1991   -917.89078   -918.18071   -98.559688    20.207722    19.970084    20.602646           90           90           90 
   86000    254.40323   -162.07291   -130.14235   -162.07291            0    2515.3102     20.20248    20.283073    20.527022            0            0            0    8411.3242    3560.1305    1926.9704    2058.8296   -792.74964   -1223.3223     441.5488     20.20248    20.283073    20.527022           90           90           90 
   86500    237.30532   -161.01731   -131.23274   -161.01731            0    4136.2882    20.021129    20.340464    20.262272            0            0            0    8251.5883    3020.3014    6455.5931    2932.9703    10.194404    66.015419    2312.5907    20.021129    20.340464    20.262272           90           90           90 
   87000    237.16381   -162.42721    -132.6604   -162.42721            0    2258.7995    20.104518    20.206249    20.281583            0            0            0     8239.127    602.35924    4230.1817    1943.8577    660.52214   -2167.7492   -1692.5474    20.104518    20.206249    20.281583           90           90           90 
   87500    231.82598   -160.27524   -131.17839   -160.27524            0    2165.6581    20.323713    20.107657    20.504121            0            0            0    8379.2603    2500.9001    1821.2522    2174.8221    1214.0935   -1750.6036   -1351.7794    20.323713    20.107657    20.504121           90           90           90 
   88000     246.9343   -160.29383   -129.30071   -160.29383            0    5483.8086    20.201419     19.89808    20.531378            0            0            0    8252.9869    3907.2291    3850.3381    8693.8584    222.18429   -4475.9205    407.19046    20.201419     19.89808    20.531378           90           90           90 
   88500    241.79745   -161.38668   -131.03829   -161.38668            0    4095.4173    20.151368    19.990758    20.568477            0            0            0    8285.8283     4046.751    6099.1176    2140.3834    2753.3071     1088.185   -1940.1656    20.151368    19.990758    20.568477           90           90           90 
   89000    238.37692   -163.07023   -133.15116   -163.07023            0    2133.0749     20.11618     20.21644    20.530192            0            0            0    8349.1681    978.77771    2222.2197    3198.2272    19.938005    1182.6602   -1387.4093     20.11618     20.21644    20.530192           90           90           90 
   89500    232.99978   -162.47938   -133.23521   -162.47938            0    3404.9972    19.989931    20.214784    20.311708            0            0            0    8207.8015    7929.3444    91.303738    2194.3434    681.89215   -1010.8212   -537.03264    19.989931    20.214784    20.311708           90           90           90 
   90000    240.41259   -162.74439   -132.56982   -162.74439            0    2505.5456    20.216672    20.188555    20.376001            0            0            0    8316.3707   -146.81563    3331.2902    4332.1621     376.5509   -2308.0269   -168.98609    20.216672    20.188555    20.376001           90           90           90 
   90500    237.86801   -160.39104   -130.53585   -160.39104            0    1220.4024    20.285878    20.109702     20.57542            0            0            0    8393.5979   -1060.8331    2799.0369    1923.0035   -784.31527    1962.6127    293.65495    20.285878    20.109702     20.57542           90           90           90 
   91000    245.22798   -161.27859   -130.49964   -161.27859            0    3583.2955    20.009231    20.024827    20.564885            0            0            0    8239.9667      1900.91    5508.0086    3340.9679   -616.46529   -1106.6391    1261.8323    20.009231    20.024827    20.564885           90           90           90 
   91500    229.47838      -162.81    -134.0078      -162.81            0    1947.9761     20.08991    20.117744     20.55697            0            0            0    8308.3805    998.95316    2774.3135    2070.6615    1366.6783   -1191.5014   -967.18635     20.08991    20.117744     20.55697           90           90           90 
   92000    240.05763   -161.87235   -131.74234   -161.87235            0    2727.6983    20.325702    20.153972    20.435021            0            0            0    8371.0763    6173.7228   -227.39866    2236.7708   -261.75519   -202.31795    -917.0107    20.325702    20.153972    20.435021           90           90           90 
   92500    244.12609   -162.26746    -131.6268   -162.26746            0    6675.9842    20.294895    20.090955    20.297652            0            0            0    8276.2421    6265.9701    5757.2959    8004.6865    -212.7169    1631.4262    1363.3238    20.294895    20.090955    20.297652           90           90           90 
   93000    235.51841   -160.43642   -130.87613   -160.43642            0    2557.2612    20.137178    20.164084     20.38101            0            0            0    8275.6632    314.73137    1205.5659    6151.4865    1717.4885   -469.37571   -111.18991    20.137178    20.164084     20.38101           90           90           90 
   93500    241.03127   -162.00696   -131.75474   -162.00696            0    1006.7694    20.032323    20.281007    20.616455            0            0            0    8375.9642    4257.2613    370.32957   -1607.2827    41.069994     1391.266    1073.0997    20.032323    20.281007    20.616455           90           90           90 
   94000    247.34403   -162.91786   -131.87332   -162.91786            0    2058.6316    20.043582    20.030513    20.584253            0            0            0    8264.2323    2842.7167    1370.5877    1962.5905    771.39944    69.561318   -2273.9437    20.043582    20.030513    20.584253           90           90           90 
   94500    239.06219   -161.20915   -131.20408   -161.20915            0    2186.5101    20.321033     19.93078     20.48127            0            0            0    8295.2017   -1842.6624    3719.6875    4682.5052   -8.9790337   -1746.8321     1504.884    20.321033     19.93078     20.48127           90           90           90 
   95000    242.57128   -163.70557   -133.26006   -163.70557            0    1681.6313    20.322909     20.10357    20.287241            0            0            0    8288.6164    2464.1523    1403.8436     1176.898     790.5546    39.845964   -795.52309    20.322909     20.10357    20.287241           90           90           90 
   95500    244.56058   -161.21849    -130.5233   -161.21849            0    3619.9549    20.107776    20.417538    20.310626            0            0            0    8338.5534    4506.2723    1362.0856    4991.5069    338.18349   -912.06858    1293.6408    20.107776    20.417538    20.310626           90           90           90 
   96000    249.31447   -160.75673   -129.46487   -160.75673            0    3836.6513    19.951262    20.305662     20.40295            0            0            0    8265.7165    7339.3596   -1881.2862    6051.8806    267.88209    -563.3108   -354.54447    19.951262    20.305662     20.40295           90           90           90 
   96500    247.48856   -161.09126   -130.02858   -161.09126            0    1148.6568     20.15718    20.023841    20.571037            0            0            0    8302.9679    3457.3736   -1611.8035    1600.4003    856.34088   -2735.6694   -619.18209     20.15718    20.023841    20.571037           90           90           90 
   97000    240.82502   -160.85411   -130.62778   -160.85411            0    4722.2563    20.255224    19.952289    20.608864            0            0            0    8328.8267    5002.6039    5199.7509     3964.414    846.36531   -61.500121    1283.3815    20.255224    19.952289    20.608864           90           90           90 
   97500    244.99919   -161.19676   -130.44652   -161.19676            0     2010.138    20.134842    20.168522    20.493272            0            0            0    8322.1127    2035.3427    2373.7069    1621.3645   -938.58601   -1053.4774   -142.44147    20.134842    20.168522    20.493272           90           90           90 
   98000    237.18592   -161.42942   -131.65984   -161.42942            0      4118.63    20.033194    20.254519    20.326566            0            0            0    8247.7622    4552.3353    2005.1388    5798.4158   -632.20035    1666.1338    1152.9933    20.033194    20.254519    20.326566           90           90           90 
   98500    236.31591   -160.95514   -131.29475   -160.95514            0    2522.9376    20.206408    20.161899    20.435892            0            0            0    8325.5736    3520.6967    3650.3701    397.74609   -625.04592    3908.0283   -1641.8148    20.206408    20.161899    20.435892           90           90           90 
   99000      242.727   -161.54063   -131.07557   -161.54063            0    1173.2511    20.258709    19.944718    20.464888            0            0            0    8268.9248   -1124.4937    2736.5937    1907.6532    378.68129    2233.4548    1449.7126    20.258709    19.944718    20.464888           90           90           90 
   99500    249.09934   -160.21382   -128.94896   -160.21382            0    1073.7204    20.171284    20.070426     20.59139            0            0            0    8336.3473    2129.2747    2196.6315    -1104.745   -1051.6568    1406.8678   -1269.2736    20.171284    20.070426     20.59139           90           90           90 
  100000    236.13459    -159.7619   -130.12426    -159.7619            0    1517.8914    20.033573    20.368671    20.528308            0            0            0    8376.7252     4369.277   -125.27819    309.67551    158.76911   -2469.1976    2179.9299    20.033573    20.368671    20.528308           90           90           90 
  100500    247.34326   -160.95068   -129.90623   -160.95068            0    2693.9317    20.059128    20.284535    20.346103            0            0            0    8278.6273    2533.8166   -205.48828    5753.4668    2.3086962    184.21294   -918.67942    20.059128    20.284535    20.346103           90           90           90 
  101000    254.65242   -163.66995   -131.70811   -163.66995            0    2536.9259    20.283661    20.008901    20.334389            0            0            0    8252.7884    1663.3356    2654.2278    3293.2143   -177.78879   -1458.3012   -961.71755    20.283661    20.008901    20.334389           90           90           90 
  101500    238.89198   -161.28423   -131.30052   -161.28423            0   -42.148278     20.46079    19.984255    20.460982            0            0            0    8366.3653   -933.58343   -1603.2319    2410.3705   -543.77726    1338.1257   -584.37922     20.46079    19.984255    20.460982           90           90           90 
  102000    243.23059   -161.40695   -130.87869   -161.40695            0     4431.513    20.170076    20.049426    20.498473            0            0            0    8289.5508    5423.7255    3418.9646     4451.849    2056.1012   -2709.5964   -1253.0871    20.170076    20.049426    20.498473           90           90           90 
  102500    241.59581   -161.63561   -131.31253   -161.63561            0    3499.1785    19.968579    20.187711    20.541282            0            0            0    8280.5999    4331.5897    4975.9948    1189.9509   -872.91088   -244.42976   -1096.3662    19.968579    20.187711    20.541282           90           90           90 
  103000     237.0653   -159.71797   -129.96352   -159.71797            0    697.71246    20.122117    20.241411    20.545055            0            0            0    8368.0019    1614.9069   -611.04276    1089.2733    739.34616   -1493.8271   -58.294958    20.122117    20.241411    20.545055           90           90           90 
  103500    240.71139   -161.88574   -131.67367   -161.88574            0    2463.4387    20.172259    20.089988    20.429567            0            0            0    8279.2953    1304.7913    1477.4733    4608.0515    -659.1771   -952.08642   -1407.6531    20.172259    20.089988    20.429567           90           90           90 
  104000    255.40245   -162.15156   -130.09559   -162.15156            0    2229.8836    20.165513    20.098314    20.465271            0            0            0    8294.4271    3536.5536    2662.4597    490.63742    752.43375   -871.91827   -3915.1905    20.165513    20.098314    20.465271           90           90           90 
  104500    235.04622   -160.93111   -131.43009   -160.93111            0    652.59982     20.07662    20.243605     20.53698            0            0            0    8346.7046   -1386.9626    1459.8905    1884.8716    387.67779   -1228.1197    22.427416     20.07662    20.243605     20.53698           90           90           90 
  105000    235.03242   -158.93818   -129.43888   -158.93818            0    3917.9224    20.048713    20.185428    20.459597            0            0            0    8279.8321    7457.0489   -797.16302    5093.8814    757.54338   -382.11451   -1312.5864    20.048713    20.185428    20.459597           90           90           90 
  105500     258.1992    -161.8838    -129.4768    -161.8838            0     2922.202    20.330969    19.996917    20.555654            0            0            0    8357.0388    3524.3682    3287.6558    1954.5821   -1698.5233   -315.74535    2189.4421    20.330969    19.996917    20.555654           90           90           90 
  106000    244.76516   -160.89929   -130.17842   -160.89929            0    2413.9298    20.392551    19.883298    20.574437            0            0            0    8342.3409    602.78207    1290.2204    5348.7868   -1619.1623    1380.9252    477.80375    20.392551    19.883298    20.574437           90           90           90 
  106500    249.32471    -161.8749   -130.58175    -161.8749            0    5430.4656    20.034028    20.182078    20.528844            0            0            0    8300.3933    4253.8727    7209.5443      4827.98   -215.03002    47.182537     2528.488    20.034028    20.182078    20.528844           90           90           90 
  107000    243.95704    -161.5111   -130.89166    -161.5111            0    3157.7767    19.875401    20.438358    20.475488            0            0            0     8317.564    4484.7619    1070.2546    3918.3136    953.92993    850.00394    2577.1536    19.875401    20.438358    20.475488           90           90           90 
  107500    246.05329   -160.79398   -129.91144   -160.79398            0    6271.7107    20.117714    20.291105    20.437343            0            0            0    8342.7409    5676.8357    6129.3421    7008.9542   -21.579819   -345.82969   -163.31407    20.117714    20.291105    20.437343           90           90           90 
  108000    247.73665   -160.35939   -129.26557   -160.35939            0     4081.532     20.25563    20.011361    20.378675            0            0            0    8260.3474    5107.6682    2511.4202    4625.5076   -42.251363    1010.1959   -139.39438     20.25563    20.011361    20.378675           90           90           90 
  108500    250.25494   -160.80385   -129.39395   -160.80385            0    2809.2234    20.214579     20.09911    20.492167            0            0            0    8325.8659    2905.2841    3066.5429    2455.8432    674.77376    -5399.439   -136.60605    20.214579     20.09911    20.492167           90           90           90 
  109000    240.52882   -160.79463   -130.60547   -160.79463            0    2091.5171    20.130381    20.268063    20.601602            0            0            0    8405.5322    2376.9724    1984.8911    1912.6877    274.69419    738.22246   -2430.6389    20.130381    20.268063    20.601602           90           90           90 
  109500    246.93613   -161.10015    -130.1068   -161.10015            0    6489.6219    20.066994    20.063518    20.433812            0            0            0    8226.9493    6982.6833    7238.3825    5247.7998   -606.16427   -2016.0043    1259.3735    20.066994    20.063518    20.433812           90           90           90 
  110000    234.40037   -159.98347    -130.5635   -159.98347            0     2976.627    20.326937    20.045363    20.469462            0            0            0     8340.504    2341.7051    4514.2624    2073.9135    954.20192   -234.89143   -1098.3327    20.326937    20.045363    20.469462           90           90           90 
  110500    244.16821   -162.74181   -132.09586   -162.74181            0    1451.5435    20.253028      20.1503    20.433236            0            0            0    8338.8973     1737.669    478.07264    2138.8888   -1645.4316   -523.98417   -1258.2785    20.253028      20.1503    20.433236           90           90           90 
  111000     254.2319   -162.27902   -130.36997   -162.27902            0    2956.0152    19.964388    20.313379    20.420527            0            0            0    8281.4258    2796.9075    4172.2589    1898.8792    1344.1638    1540.1465   -237.03548    19.964388    20.313379    20.420527           90           90           90 
  111500    243.02211   -160.84237   -130.34028   -160.84237            0    1053.2628    19.973545    20.289019    20.454388            0            0            0    8289.0107    1967.4267   -1800.0962    2992.4579   -362.07166    231.34342    395.27226    19.973545    20.289019    20.454388           90           90           90 
  112000    244.27209   -161.53212   -130.87314   -161.53212            0    1119.1489    20.265144    20.033149    20.424563            0            0            0     8291.855   -2842.7724    2637.9076    3562.3116    698.37097   -546.26298   -3336.9897    20.265144    20.033149    20.424563           90           90           90 
[...]
  373000    227.73935    -162.6351   -134.05117    -162.6351            0     2387.766    19.944562    20.062244    20.745188            0            0            0    8300.8272    2606.0213    3164.8263    1392.4506    2166.5333    123.44718    82.702964    19.944562    20.062244    20.745188           90           90           90 
  373500    235.71935   -161.68463   -132.09912   -161.68463            0    37.882454    20.053594    19.954695    20.688125            0            0            0    8278.6292    -105.6448    1860.0101   -1640.7179    1009.4764    494.84621    634.36939    20.053594    19.954695    20.688125           90           90           90 
  374000    250.70518   -161.34084   -129.87443   -161.34084            0    4868.2708    20.327539    20.065345    20.326881            0            0            0    8290.9095    4280.0967    3801.7064    6523.0093   -756.03908    910.98777   -1102.5475    20.327539    20.065345    20.326881           90           90           90 
  374500    254.03819   -159.28555   -127.40081   -159.28555            0    1226.0921    20.335404    20.274805    20.073663            0            0            0    8276.2982    726.60232   -181.52023    3133.1942    862.30293   -1213.2838   -2064.2002    20.335404    20.274805    20.073663           90           90           90 
  375000    248.85491   -159.89493   -128.66075   -159.89493            0    6429.0695    20.149642    20.277293    20.200891            0            0            0    8253.6837    8372.3264    4884.1266    6030.7554   -2236.0887   -747.14129   -1457.9674    20.149642    20.277293    20.200891           90           90           90 
  375500    247.71914   -161.67155   -130.57992   -161.67155            0    2354.6483    20.113143    20.223123    20.547615            0            0            0    8357.7539    1034.0387    2453.8716    3576.0345    1887.5089    832.25604   -98.324624    20.113143    20.223123    20.547615           90           90           90 
  376000    246.98459   -160.46234   -129.46291   -160.46234            0     2859.499    20.103703    20.034821    20.680244            0            0            0    8329.4665    2025.9553     5164.619    1387.9229   -387.80244   -2121.3454    1313.9032    20.103703    20.034821    20.680244           90           90           90 
  376500    247.00463   -159.80192   -128.79997   -159.80192            0    3287.4046    20.154348     20.01561    20.570615            0            0            0    8298.2182    4036.4829    4251.7706    1573.9602    820.00028    2008.1149   -265.02495    20.154348     20.01561    20.570615           90           90           90 
  377000    241.66683   -162.20082   -131.86883   -162.20082            0    2663.0333     20.21394    20.155526    20.413925            0            0            0    8317.0947    3953.3338    1788.8176    2246.9486    96.950397   -710.35043   -647.80265     20.21394    20.155526    20.413925           90           90           90 
  377500    240.13811   -162.04748   -131.90736   -162.04748            0    2330.8433    20.228554     20.17032    20.348518            0            0            0    8302.5293    2959.8574    1960.3588    2072.3137    320.77822   -1339.1506    194.98116    20.228554     20.17032    20.348518           90           90           90 
  378000    243.95702    -161.0213   -130.40186    -161.0213            0    3610.1845     20.18597     20.10917    20.420851            0            0            0    8289.2953    5186.6865    3255.1692     2388.698    1643.0808   -716.70404   -2812.1154     20.18597     20.10917    20.420851           90           90           90 
  378500    236.83766   -161.38208    -131.6562   -161.38208            0    8471.2365    20.057743    20.054201    20.515072            0            0            0    8252.0237    9286.3467    9846.0706    6281.2924    -592.6181   -161.22765    2316.0459    20.057743    20.054201    20.515072           90           90           90 
  379000    246.12842   -161.62063   -130.72866   -161.62063            0    2507.8847    20.106234    20.281013    20.677089            0            0            0    8431.5956    2261.3921    3595.8036    1666.4585    282.48689   -14.577453   -169.06095    20.106234    20.281013    20.677089           90           90           90 
  379500    238.74635   -161.28441   -131.31897   -161.28441            0    2233.5758    20.122098    20.124207    20.570246            0            0            0    8329.7413    1927.9546    1516.3392    3256.4336    1982.1144    683.63312   -995.46297    20.122098    20.124207    20.570246           90           90           90 
  380000    235.19469   -160.84035   -131.32068   -160.84035            0    3844.6188    20.202972    19.982395    20.423628            0            0            0    8245.0959    1581.4482    4334.3603     5618.048    236.50351    1031.3179   -2013.1578    20.202972    19.982395    20.423628           90           90           90 
  380500     244.2763   -163.25504   -132.59553   -163.25504            0    3972.8203    20.223254    20.060694    20.318801            0            0            0    8243.1852    1967.1091    4214.4742    5736.8776    535.03591    981.42397    1524.4728    20.223254    20.060694    20.318801           90           90           90 
  381000    237.86086    -161.5057    -131.6514    -161.5057            0     1737.179    20.278708    20.318304    20.422951            0            0            0    8414.8471   -181.42982    1164.1627    4228.8042    28.282209   -4510.8929   -742.34875    20.278708    20.318304    20.422951           90           90           90 
  381500    259.14075   -160.64237    -128.1172   -160.64237            0    3311.5948    20.129183    20.189204    20.437979            0            0            0    8305.8349    3764.0364    3991.5057    2179.2424   -765.08441    365.03838    3040.0738    20.129183    20.189204    20.437979           90           90           90 
  382000    244.75575   -160.91607   -130.19638   -160.91607            0    5429.5437     20.02456    19.996686    20.454198            0            0            0    8190.3691    5117.2664    5585.9401    5585.4245   -782.93631   -617.90408   -1944.2547     20.02456    19.996686    20.454198           90           90           90 
  382500    252.67943   -160.28479   -128.57059   -160.28479            0    2028.2471    20.212501      20.1426    20.655317            0            0            0     8409.447    861.64341    3306.9719    1916.1261    467.74787    1081.3441   -61.357034    20.212501      20.1426    20.655317           90           90           90 
  383000    248.26093   -160.59785   -129.43822   -160.59785            0    2477.5777    20.198253    20.092728     20.59849            0            0            0    8359.6503    1410.1582    2120.7852    3901.7896   -27.238418    1067.0815    463.57722    20.198253    20.092728     20.59849           90           90           90 
  383500    265.37052    -160.8507   -127.54362    -160.8507            0    4574.5164    20.126889    20.020403    20.408726            0            0            0    8223.6641    5059.1584    4354.0304    4310.3603    697.63829    1478.6547   -3718.9206    20.126889    20.020403    20.408726           90           90           90 
  384000    242.14645   -161.56589    -131.1737   -161.56589            0    1974.7258     20.32179    20.162714    20.461955            0            0            0    8384.1316    497.78851    3699.7496    1726.6393   -776.53524   -1058.3058    1454.4424     20.32179    20.162714    20.461955           90           90           90 
  384500    240.65667   -161.50186   -131.29666   -161.50186            0    2111.4889    20.255803    20.150557    20.435802            0            0            0     8341.194   -142.83937    5017.9386    1459.3675   -93.657357   -282.90488    1266.0236    20.255803    20.150557    20.435802           90           90           90 
  385000    235.96363   -161.68406   -132.06789   -161.68406            0    1575.8416    19.967342    20.059778    20.407531            0            0            0    8174.0413    5851.9911   -1460.3757    335.90941    786.49538    1866.3679    506.33741    19.967342    20.059778    20.407531           90           90           90 
  385500    240.81268   -162.49397   -132.26919   -162.49397            0    3316.4493    20.068054    20.187459    20.532128            0            0            0    8318.0378    913.65619    3620.4594    5415.2321   -576.06163   -815.52866    501.85988    20.068054    20.187459    20.532128           90           90           90 
  386000    237.35274   -160.62354   -130.83302   -160.62354            0   -1009.1721    20.281037    20.206201    20.539551            0            0            0    8417.1636   -4402.1082   -739.81496    2114.4067   -860.06385    46.052554    2124.3896    20.281037    20.206201    20.539551           90           90           90 
  386500     246.7142   -160.44159   -129.47609   -160.44159            0     3646.314    20.257648    19.994714    20.426072            0            0            0    8273.4958     1646.593    3815.4514    5476.8975    808.62115   -1728.5828    -3853.455    20.257648    19.994714    20.426072           90           90           90 
  387000    245.58674   -161.57587   -130.75188   -161.57587            0    2358.8668     20.16292    20.008846    20.370925            0            0            0      8218.38    3295.6023    1673.7088    2107.2892   -590.42737    948.24595    2161.6797     20.16292    20.008846    20.370925           90           90           90 
  387500    248.11194   -161.67935   -130.53842   -161.67935            0    1334.1767    20.139323    20.329969    20.467261            0            0            0    8379.9479     1678.713    730.36653    1593.4506   -838.19259   -3221.8063    78.110771    20.139323    20.329969    20.467261           90           90           90 
  388000    240.69745   -162.44148   -132.23116   -162.44148            0    2200.5077    20.097746    20.283248    20.518115            0            0            0    8364.1599    2716.6405    2015.5588    1869.3238    692.39586     1342.673   -991.30597    20.097746    20.283248    20.518115           90           90           90 
  388500    240.23097   -162.88247   -132.73069   -162.88247            0    2662.5329    20.038635    19.975652    20.400631            0            0            0    8166.0627      4146.56    475.68516    3365.3536   -1128.3913    -1054.278   -1618.3683    20.038635    19.975652    20.400631           90           90           90 
  389000    232.84055   -162.03658   -132.81239   -162.03658            0    2466.9329    20.275647    20.121256    20.568179            0            0            0    8391.2308    1492.3902    2855.6921    3052.7165    82.578899    1059.1235    -2209.148    20.275647    20.121256    20.568179           90           90           90 
  389500    241.75563   -162.33732   -131.99418   -162.33732            0    2194.9674    20.149076    20.175079    20.555151            0            0            0     8355.858    4838.6314   -940.52746    2686.7983    434.29759    400.64656   -1623.3253    20.149076    20.175079    20.555151           90           90           90 
  390000    230.01763   -161.41919   -132.54931   -161.41919            0    1492.7877    19.968428    20.174577    20.460474            0            0            0    8242.5962    4502.0209    235.28833   -258.94622   -581.59771    -1336.832    661.71929    19.968428    20.174577    20.460474           90           90           90 
  390500     239.9289   -160.68579   -130.57193   -160.68579            0    3278.8239    20.161009    20.146259    20.429709            0            0            0    8297.9127    4775.7689    2442.2451    2618.4575    474.45135   -3664.8422   -506.52694    20.161009    20.146259    20.429709           90           90           90 
  391000    246.01378   -159.85002   -128.97244   -159.85002            0    322.60456    20.341205    20.072241    20.463906            0            0            0    8355.2812   -41.274062    656.28821    352.79954   -1966.2954     866.3457   -1163.5175    20.341205    20.072241    20.463906           90           90           90 
  391500    259.26417   -159.68432   -127.14366   -159.68432            0    -37.65314    20.206762    20.063722    20.583517            0            0            0    8345.0284   -9.1350451   -3629.1604    3525.3361   -151.41539   -530.90837   -154.75337    20.206762    20.063722    20.583517           90           90           90 
  392000    237.25664   -162.75285   -132.97439   -162.75285            0  0.081048984    19.963068    20.144357    20.697852            0            0            0    8323.4997    945.57427    1702.2837   -2647.6148    208.60121    1286.4845   -1158.1439    19.963068    20.144357    20.697852           90           90           90 
  392500    235.59236    -161.9947   -132.42512    -161.9947            0    932.64366    19.898557    20.225546    20.604895            0            0            0    8292.6292    2861.1948     887.5225   -950.78635    539.34844   -769.39946   -91.459016    19.898557    20.225546    20.604895           90           90           90 
  393000    245.81317   -160.98287   -130.13046   -160.98287            0    2001.2957    20.207834    20.289344    20.419572            0            0            0    8372.1005    1824.1994    1625.3782    2554.3095    946.63366    1556.8658    2241.1471    20.207834    20.289344    20.419572           90           90           90 
  393500    255.17201    -159.6338   -127.60675    -159.6338            0    1385.4803    20.363781    20.151147     20.25276            0            0            0     8310.792    1020.8657    84.140201    3051.4351    1144.2243   -797.25678   -921.84992    20.363781    20.151147     20.25276           90           90           90 
  394000    245.05465    -161.6135    -130.8563    -161.6135            0    4167.1134    20.229277    19.998259    20.359629            0            0            0    8236.4943    7571.9246    2810.3191    2119.0964   -1263.2382   -492.57503    1621.9832    20.229277    19.998259    20.359629           90           90           90 
  394500    243.85376   -162.62402   -132.01754   -162.62402            0   -93.354046    20.173927    20.046013    20.628003            0            0            0    8342.1047   -130.13159   -213.14657    63.216016    712.84894    41.916511   -1684.9016    20.173927    20.046013    20.628003           90           90           90 
  395000     249.6277   -161.08074   -129.74956   -161.08074            0    2983.1738    20.069365     20.16761    20.600799            0            0            0    8338.1969      3046.87    4005.2025     1897.449     924.2579   -1193.5035    138.84149    20.069365     20.16761    20.600799           90           90           90 
  395500    235.28819   -161.41776   -131.88636   -161.41776            0    2572.5399    20.028605    20.246527    20.515021            0            0            0    8319.0399     748.0197    3409.2779     3560.322   -260.33144   -191.10269    1563.0181    20.028605    20.246527    20.515021           90           90           90 
  396000     243.6209   -162.64369   -132.06644   -162.64369            0    1532.7665    20.040137    20.170618     20.46379            0            0            0    8271.9131    184.36654    1541.9584    2871.9746   -1011.9024    116.73539   -155.85684    20.040137    20.170618     20.46379           90           90           90 
  396500     241.5162    -163.1387   -132.82562    -163.1387            0    1736.7084    20.192819    20.055285    20.526351            0            0            0    8312.6125    1838.9475    1032.0141    2339.1637    1071.8672   -1281.7569    2140.7464    20.192819    20.055285    20.526351           90           90           90 
  397000    236.29473   -160.33094   -130.67321   -160.33094            0    4182.8266    20.257172    20.000913    20.473483            0            0            0     8295.076    3533.5664    2020.1503    6994.7632   -256.28056    -493.9102   -886.30762    20.257172    20.000913    20.473483           90           90           90 
  397500    244.09925   -161.29291   -130.65563   -161.29291            0    4748.4012    20.173985    20.092524    20.447257            0            0            0    8288.2191    5423.5947    3130.7616    5690.8472   -377.76474   -867.58262    2505.1592    20.173985    20.092524    20.447257           90           90           90 
  398000    242.71164    -160.9385   -130.47537    -160.9385            0    1710.8493    20.007177    20.200321    20.513857            0            0            0    8290.7038    2698.3357    360.71216    2073.5001   -1711.6826    1493.7399   -341.59117    20.007177    20.200321    20.513857           90           90           90 
  398500    252.20122   -161.74334   -130.08916   -161.74334            0    1190.7392    20.132113    20.192226    20.733272            0            0            0    8428.3274    3048.1346    609.57842   -85.495246    228.41731    2109.2023    986.12521    20.132113    20.192226    20.733272           90           90           90 
  399000    237.44773   -163.50015    -133.6977   -163.50015            0    2307.8479    20.188915    19.951823    20.670677            0            0            0     8326.266    1134.2417    2889.5824    2899.7198   -295.59829   -259.97608    760.36304    20.188915    19.951823    20.670677           90           90           90 
  399500    241.41193   -161.75303   -131.45303   -161.75303            0    2232.8774    20.125893    19.993959    20.403903            0            0            0    8210.4543   -764.08683    4658.8398    2803.8792    338.61499   -496.59112   -461.65974    20.125893    19.993959    20.403903           90           90           90 
  400000    235.92869    -162.3561   -132.74431    -162.3561            0    353.22898    20.217837    20.320875    20.406886            0            0            0    8384.0499   -534.89816   -58.116106    1652.7012    297.15379    683.37517    -766.7935    20.217837    20.320875    20.406886           90           90           90 
Loop time of 2414.75 on 1 procs for 400000 steps with 972 atoms

Performance: 7.156 ns/day, 3.354 hours/ns, 165.648 timesteps/s
70.9% CPU use with 1 MPI tasks x 1 OpenMP threads

MPI task timing breakdown:
Section |  min time  |  avg time  |  max time  |%varavg| %total
---------------------------------------------------------------
Pair    | 2143.9     | 2143.9     | 2143.9     |   0.0 | 88.78
Bond    | 0.049784   | 0.049784   | 0.049784   |   0.0 |  0.00
Neigh   | 242.08     | 242.08     | 242.08     |   0.0 | 10.02
Comm    | 9.6395     | 9.6395     | 9.6395     |   0.0 |  0.40
Output  | 2.3491     | 2.3491     | 2.3491     |   0.0 |  0.10
Modify  | 15.402     | 15.402     | 15.402     |   0.0 |  0.64
Other   |            | 1.363      |            |       |  0.06

Nlocal:        972.000 ave         972 max         972 min
Histogram: 1 0 0 0 0 0 0 0 0 0
Nghost:        4575.00 ave        4575 max        4575 min
Histogram: 1 0 0 0 0 0 0 0 0 0
Neighs:         0.00000 ave           0 max           0 min
Histogram: 1 0 0 0 0 0 0 0 0 0
FullNghs:      242282.0 ave      242282 max      242282 min
Histogram: 1 0 0 0 0 0 0 0 0 0

Total # of neighbors = 242282
Ave neighs/atom = 249.26132
Ave special neighs/atom = 0.0000000
Neighbor list builds = 40000
Dangerous builds not checked

unfix		3
unfix		2

write_data	data.final.${pid}
write_data	data.final.0
System init for write_data ...

write_restart   restart.lmp.${pid}
write_restart   restart.lmp.0
System init for write_restart ...
Total wall time: 0:40:17
