LAMMPS data file via write_data, version 23 Jun 2022, timestep = 66000000

2592 atoms
2 atom types

0 30.957001 xlo xhi
0 21.340725 ylo yhi
-0.888343208482766 31.75350717372392 zlo zhi
-9.151055 1.0625376130055098 -10.805941236220937 xy xz yz

Masses

1 1.008
2 15.999

Atoms # full

300 0 2 0 8.313045548332333 6.35471026215844 8.059406284147105 -2 -2 0
226 0 1 0 10.835696073500776 3.5577876097053016 5.138097792425945 -1 -1 0
1146 0 2 0 3.126583046444931 10.499933400151367 0.6373272105358745 0 1 0
2259 0 2 0 5.7729679330392 12.279395148726396 9.261315155341375 0 0 0
868 0 1 0 0.05088582886602107 10.542593872119205 0.9369568836456246 2 -1 0
252 0 2 0 0.05426808824015783 17.129373602400033 11.541050101759703 1 0 0
633 0 2 0 3.1830280695153355 10.356326117370147 4.114432835733635 0 1 0
141 0 2 0 1.6366823985651096 -3.304388410655398 14.628385745533906 2 1 0
1676 0 2 0 5.1758877640528915 -0.737272510687522 11.922267116108676 0 0 0
94 0 1 0 6.2969099796254975 17.021822135169614 11.150378693094416 1 2 0
227 0 2 0 11.390777677051764 4.135015604957156 5.6999481082914745 -1 -1 0
807 0 2 0 3.6438336202373565 16.630946256865947 5.361498569828563 1 2 0
1029 0 2 0 4.870198864406041 8.234575766460566 10.187927697372091 2 1 0
111 0 2 0 2.999275221815771 -2.1118761110592947 9.32387296022314 1 2 0
693 0 2 0 9.118410268686057 6.608521721704465 14.850562869650146 1 1 0
1057 0 1 0 2.5650011558220576 13.482562882624883 3.8028500632541373 1 0 0
867 0 2 0 -4.768681402293929 11.580912059292974 7.217493536490279 1 0 0
736 0 1 0 0.7371386625369427 1.3344455664716155 -0.16160981182121403 1 0 0
480 0 2 0 -0.2240276453455029 -0.6012412235699514 7.794983211195081 0 0 0
1540 0 1 0 0.2329155750249265 2.655813501552268 6.5753319627872076 0 1 0
1159 0 1 0 -4.187021938371048 12.288586960743913 8.737650021840986 1 1 0
1516 0 1 0 -5.845376602127236 10.201095270444558 13.525686845090393 0 -1 0
1170 0 2 0 -0.45099622563907815 13.183823191136671 13.820874415226987 2 -3 0
1721 0 2 0 8.360431800138512 15.026447146120889 2.712911076639144 1 0 0
587 0 2 0 5.949298952393798 9.782619858274028 12.82340358612071 -1 -1 0
775 0 1 0 0.41527111748183543 14.82588509080636 9.836900955684536 2 1 0
1097 0 2 0 0.5885084216603604 2.251667929841406 2.993463746220184 0 0 0
1135 0 1 0 9.92331581896758 1.4875555672257161 2.045285194710982 -1 1 0
935 0 2 0 9.263693375663857 1.882864605976688 10.220163337036862 1 0 0
1087 0 1 0 1.0394461523628786 14.547287147038974 13.501948893230432 1 0 0
379 0 1 0 -0.43268959741642754 12.96953473092523 6.16211716675503 -1 0 0
80 0 2 0 3.653166291962136 16.42665918918182 12.575739587148314 0 0 0
1250 0 2 0 9.539412110276226 5.4588626325063885 6.755151316983864 0 -1 0
1495 0 1 0 12.262787119957013 -3.1480655707048806 12.661102894694167 1 1 0
132 0 2 0 5.942684257151029 14.969454603428808 8.946250379797828 1 1 0
745 0 1 0 3.155304050477258 -4.037752496101714 14.949630818970782 1 -1 0
71 0 2 0 0.296990703227608 17.071097973146077 1.4284543228956963 0 1 0
1235 0 2 0 -2.1560450149968493 9.534909922211835 3.6706151161403415 0 0 0
692 0 2 0 9.745964073849128 5.255866076457968 15.022139273761178 1 1 0
500 0 2 0 3.038345499005695 7.14661653664753 13.520511996201343 1 1 0
550 0 1 0 11.714632269619532 0.18142344077067474 11.568001774641552 -1 0 0
230 0 2 0 -1.8306077057974433 13.692192747926367 7.1498048475050435 1 1 1
2557 0 1 0 4.882850098335877 4.606850606249629 9.853457605301134 0 0 0
1173 0 2 0 -1.2648772814406353 20.356733517827408 1.0429142442978638 1 0 0
219 0 2 0 1.4741294582966966 3.9462953185133625 11.56005504429768 -1 -1 0
956 0 2 0 2.165618296427153 11.710991970589848 15.286527519539902 0 0 0
95 0 2 0 5.576723613079849 16.4581243305908 11.4573657911063 1 2 0
2485 0 1 0 6.8533827136284176 14.801881189237028 -0.5493205824244631 0 0 0
426 0 2 0 -2.724425371811532 14.162712744993488 4.043845137444391 1 1 0
1518 0 2 0 -5.1887400195257545 10.0740674534295 14.267874245131877 0 -1 0
954 0 2 0 -0.9424351989817537 3.0182013926534355 7.9251249590406765 1 1 0
351 0 2 0 -3.2845816370500183 18.244281168982084 0.4862444001897299 2 1 0
324 0 2 0 10.802688298421954 3.7026414209604246 11.134501056015278 0 1 0
430 0 1 0 -0.6357954067988165 8.565189407190449 12.826600435643053 0 -1 0
836 0 2 0 9.751115867971679 -0.7398439403964483 14.548546911900448 1 1 0
696 0 2 0 13.927370307350682 0.33158344727002476 8.191288592630709 0 2 0
622 0 1 0 8.023780785603567 10.231394927395087 10.391001196863902 1 2 0
942 0 2 0 7.758628878558182 0.8522594246362745 3.548547978660909 0 0 0
491 0 2 0 -3.975260330871246 13.491515961515464 14.530545072544479 2 1 0
475 0 1 0 8.228536669728038 11.73125488102163 7.2676579994354285 1 2 0
761 0 2 0 -0.27185403952790654 3.6520293029317026 15.049401437974893 -1 0 0
312 0 2 0 -0.6752624029038823 15.294811883583618 -0.1507135005687088 0 -1 0
319 0 1 0 -1.9553562911062474 10.912816770005104 9.47921312492711 1 0 0
812 0 2 0 -0.6079512991490026 -0.42181143647098995 12.54851408980762 1 0 0
1014 0 2 0 9.79881448672715 8.181636978486626 6.043600425948713 0 2 0
1012 0 1 0 9.35771921880734 9.037052651493418 6.00909898977276 0 2 0
961 0 1 0 4.801773705775804 7.51282320566669 4.326985115799119 0 2 0
1064 0 2 0 8.255894051488047 -2.4015533152175514 15.047050468665137 1 -1 0
997 0 1 0 2.019690341029038 9.226985136084066 4.81574104632461 2 2 0
238 0 1 0 -5.745721669082346 16.223683697615016 11.3447519098661 1 1 0
459 0 2 0 -1.4416179293888758 16.053094766321703 7.570283368235648 1 -1 0
734 0 2 0 -3.514090287719041 17.759984742312653 6.540907418948726 0 -1 0
1184 0 2 0 5.122197559347591 3.4469657022594213 4.197617863673079 1 1 0
513 0 2 0 5.702347870798107 9.99473404417742 14.725977857754408 -2 -2 0
137 0 2 0 -0.10735266357271167 0.2651725413201431 14.569408750555771 0 0 0
610 0 1 0 7.052061363149605 7.037320532389608 15.06233707571002 1 2 0
288 0 2 0 2.6458675674180157 -2.242439920782364 11.929807013495779 1 1 0
218 0 2 0 2.917649945724306 3.5830255677655076 11.94699136179486 -1 -1 0
1287 0 2 0 -2.8337977128878094 6.016669186892097 6.232406181309486 -1 -2 0
680 0 2 0 14.29272509866563 -1.2959723686440239 4.1249501680484535 -1 1 0
738 0 2 0 0.8465168312569512 1.4189711050627039 0.8069826035977095 1 0 0
1007 0 2 0 -6.179479922100788 18.840271178957373 0.338069975942735 1 0 0
1183 0 1 0 5.219515920991354 2.6739091908200505 3.6447999802101085 1 1 0
1649 0 2 0 9.47522310935448 12.480463975759722 0.026351846572035154 1 0 0
98 0 2 0 1.8695949192877757 4.290855526541016 3.5314950302602988 0 1 0
1517 0 2 0 -5.341084884006398 10.114040160859751 12.734148151920925 0 -1 0
1309 0 1 0 -3.710761485758791 10.513462801126778 1.8357258996190118 0 -1 0
1078 0 1 0 8.181322692938208 4.949937044249738 5.649439367585562 1 0 0
1260 0 2 0 3.35381714728761 12.527023196256383 12.374264111179194 0 -1 0
626 0 2 0 5.376618248844712 0.668183108289278 7.886072340118224 0 0 0
632 0 2 0 3.30691138427579 11.840468638916434 3.6708596681724988 0 1 0
299 0 2 0 7.314332122510877 7.1559972411527095 8.940408000888553 -2 -2 0
478 0 1 0 0.2738164924170456 -0.7710516228263771 8.592937450077002 0 0 0
211 0 1 0 -2.2560852731825 10.59179720096547 12.911282461952545 0 -1 0
552 0 2 0 11.478636025963752 1.1279740784029375 11.741524678321706 -1 0 0
1267 0 1 0 7.213384319023854 17.583876432295206 4.274690248923065 2 0 0
2198 0 2 0 12.763392144277832 1.0425706196138411 -0.7521315790738067 0 0 0
897 0 2 0 0.5202494549748307 12.393391001134376 11.274787613418653 1 0 0
635 0 2 0 1.1825486521071622 8.15968645415183 2.1571929134197227 0 1 0
357 0 2 0 -4.909349726120505 19.20109084433239 5.39762549752031 0 0 0
1006 0 1 0 -6.764840316603617 18.581567437303452 1.066344638840783 1 0 0
479 0 2 0 -0.3739457508953628 -1.372259427500707 9.07366748704644 0 0 0
1106 0 2 0 9.741540052932114 4.363174957341037 1.4633226195925229 1 1 0
171 0 2 0 3.026879613362864 2.530583400746403 5.111043173532195 0 0 0
395 0 2 0 13.233213808427978 1.150350713631914 13.382558365859767 2 1 0
1497 0 2 0 12.544813186583324 -2.2762416950320485 12.297846158105349 1 1 0
701 0 2 0 -3.924710837996144 17.814606452299987 9.2079138177462 1 0 0
800 0 2 0 9.107388673387511 -1.692053793638241 12.503773542903623 1 2 0
1041 0 2 0 5.599407486595871 6.838621634278239 7.327232592461776 3 0 0
838 0 1 0 12.636791731731941 1.637527239569926 1.1423249491212086 1 1 0
320 0 2 0 -2.814886958072798 11.410814773028765 9.603507291343348 1 0 0
852 0 2 0 -0.12084821117021753 4.702256512756736 2.1564351859708255 1 0 0
41 0 2 0 -5.834055001656671 13.78195868283401 11.791375686568436 1 1 0
806 0 2 0 2.758277268445959 17.390493907316362 6.401468759117148 1 2 0
388 0 1 0 11.711672744589471 5.00455272771306 10.042630384200095 1 1 0
1272 0 2 0 7.3128499236833875 4.618097409281058 0.4549214781762587 -1 -2 0
574 0 1 0 3.606102185282023 2.145179440766805 12.240254099318571 0 0 0
492 0 2 0 -2.3728410308375665 13.633957472536789 14.514658009027684 2 1 0
384 0 2 0 4.458511404526233 10.226602246418775 11.525238757349037 -1 0 0
849 0 2 0 -3.5711869295340777 6.788551611826711 14.031993765482383 1 0 0
973 0 1 0 9.79351848169008 9.487600697463078 8.747162627695515 -1 -4 0
627 0 2 0 4.080867163058718 -0.1140063259808688 8.085906471614516 0 0 0
1043 0 2 0 2.0898435371753776 18.99820968637814 0.465371903344699 -1 -3 0
466 0 1 0 12.341162829979947 0.546975238001782 8.968679852556106 1 -2 0
524 0 2 0 4.042417560378258 7.930885603408369 15.354722360701146 1 1 0
186 0 2 0 -1.9520499387867791 10.246426711806413 7.735255853741732 2 0 0
16 0 1 0 -3.1508705785847018 13.190560272566792 11.81393976639079 -2 1 0
476 0 2 0 8.154639019495043 11.020750678554174 6.649629092029056 1 1 0
672 0 2 0 -4.600281872078022 19.969376220629997 3.0056273810639142 1 -2 0
1237 0 1 0 1.662241662033251 4.987578484086418 -0.10611136995619708 1 -1 0
1496 0 2 0 12.1939130518225 -2.9609379695416935 13.604536794423243 1 1 0
277 0 1 0 5.633840496711109 -1.00399023298184 14.241081718538226 0 0 0
278 0 2 0 4.853777488061219 -0.7965539342961092 13.951532284717482 0 0 0
279 0 2 0 5.43048016394541 -0.36371583431029375 13.613679183558359 0 0 0
726 0 2 0 9.175503070000595 2.4230376027605063 12.574763006501376 0 1 0
779 0 2 0 1.269333695803946 9.568050768578267 13.204622760416637 0 -1 0
604 0 1 0 -3.2104439698848215 13.488720025517484 0.7331093014400654 0 0 0
503 0 2 0 6.167493189781344 -4.026369313588706 13.082983734162454 0 0 0
876 0 2 0 1.9308582410200512 15.18277914939623 9.119062885567184 1 -1 0
1136 0 2 0 9.437062224992195 2.1084110418945587 2.5930584475520844 -1 1 0
115 0 1 0 3.1498261206407148 13.765213276567163 6.688027745029445 -1 -3 0
870 0 2 0 -0.09274225233167681 10.671079211430287 1.8525624199753392 2 -1 0
896 0 2 0 -0.7111410668444265 11.763323349270143 10.527683168554155 1 0 0
801 0 2 0 10.338243948910097 -0.8750280156618868 11.906997168556387 1 3 0
617 0 2 0 -2.8225617907763727 12.018910741696699 4.417501560181587 -2 -2 0
286 0 1 0 2.072512111730804 -2.890177289113274 11.389538645888505 1 1 0
702 0 2 0 -4.545662045964041 16.525536586431677 8.698231588812346 1 0 0
17 0 2 0 -3.08039024541087 13.463301412508086 12.760230152261755 -2 1 0
1245 0 2 0 -0.30465181136243613 2.732616285546314 4.87144674661899 -1 0 0
1432 0 1 0 6.663086708187642 7.809563810197173 10.431567193456644 0 1 0
1123 0 1 0 8.68686402208603 13.978960703831305 5.668424225762161 0 -1 0
907 0 1 0 2.1710932068870448 18.94961756209254 3.5604157224803954 0 0 0
934 0 1 0 8.520545147843782 1.3436694865211294 10.509995849390746 1 0 0
113 0 2 0 -2.9616170538333857 7.89841217738884 5.033802638813381 0 -1 0
517 0 1 0 0.7559256076118102 1.566914832062765 9.98351530722477 1 0 0
616 0 1 0 -2.93508244393207 11.063118914949731 4.6440219557736935 -2 -2 0
127 0 1 0 1.7527049762983196 12.901899449986047 0.28094535616043426 -1 0 0
1259 0 2 0 2.2123575412635987 13.612286789459512 12.495586273385502 0 -1 0
851 0 2 0 -1.2433100236771675 5.026827054552218 1.1429738089900603 1 0 0
1720 0 1 0 8.544063784988655 14.152146020707784 3.016280204405893 1 0 0
151 0 1 0 3.0288581861269783 3.017522287994672 8.706818577836108 -2 -2 0
142 0 1 0 -1.3521059826403352 5.904878510672526 8.953125208502179 1 -2 0
940 0 1 0 7.334564065381041 0.15852470576361588 4.110521513038381 0 0 0
2257 0 1 0 5.884003549883468 11.34757728240199 8.898937775053774 0 0 0
593 0 2 0 7.373190862026371 10.84431742590823 0.4303774758116101 0 -2 0
848 0 2 0 -2.864953180363215 6.128978499757221 12.806215038499793 1 0 0
725 0 2 0 7.733558362089963 1.8667307991429034 12.870250298848934 0 1 0
1640 0 2 0 9.11782828863349 5.731187447776236 12.776386301725463 1 0 0
560 0 2 0 2.22456436636121 16.427632842065922 0.46169425250465057 -1 -1 0
606 0 2 0 -2.763521747687594 12.952915510959643 0.10147909614487116 0 0 0
978 0 2 0 2.505318660059658 -0.35861645652340135 3.7106600030250414 0 2 0
1189 0 1 0 5.907708330841835 18.1963390715901 7.007937181913191 -1 -1 0
256 0 1 0 11.343248385141198 7.294070966326846 4.695417793555352 1 1 0
968 0 2 0 13.538935245017804 -0.3091382463588843 11.537466595736348 1 -1 0
1433 0 2 0 6.599633360785567 7.233276258793932 11.227000273514104 0 1 0
890 0 2 0 7.002027892852877 11.25227476173843 4.284344090162194 1 1 0
1541 0 2 0 0.3144870261798617 1.687466708442329 6.525629009197051 0 0 0
875 0 2 0 2.895888621025512 16.303030791339967 8.61699835184061 1 -1 0
620 0 2 0 -4.5116814147590505 7.446753462943932 11.885752442625098 -1 -2 0
955 0 1 0 2.838332072605252 11.867458836790092 14.564056013438398 0 0 0
1137 0 2 0 9.31539936161433 1.0752914532817819 1.410583991447084 -1 1 0
793 0 1 0 3.4822562402231423 19.048922153071175 -0.40177152290330026 0 0 0
2343 0 2 0 9.746927197551704 7.910787302591393 -0.5482142493305275 0 0 1
688 0 1 0 -2.542496250920278 8.68247802277909 -0.2891265302916334 1 0 0
76 0 1 0 5.4319766008011 8.336642485219592 -0.8322838471982081 1 -1 0
855 0 2 0 -1.1373056436114464 5.836315699030027 15.040993270373484 1 0 0
438 0 2 0 -0.09466523443159774 2.3568511894508557 11.66286481392052 -1 -3 0
999 0 2 0 1.4069423176680247 8.853191391141374 4.172168133687801 2 2 0
679 0 1 0 15.181713308535281 -1.2203106866231872 3.672432168869954 -1 1 0
83 0 2 0 4.327031348625015 5.027005274863125 -0.8753994526258703 1 0 0
2315 0 2 0 6.443632743978676 13.21181058604235 12.539048235438525 0 1 1
481 0 1 0 2.279599816358156 6.4866495605510925 9.999821647389304 -1 -2 0
2559 0 2 0 4.723544975318827 5.062316550435298 10.685339973161096 0 0 1
246 0 2 0 -2.007923235177025 16.7465004639725 11.08789485548188 1 -2 0
152 0 2 0 3.5106585020147465 2.315188637962185 8.257811645029445 -2 -2 0
884 0 2 0 -0.7482296829074315 5.470257807518811 5.5154538670582305 1 -1 0
1107 0 2 0 9.873334854847473 5.23721323436538 2.6771744450785406 1 1 0
1408 0 1 0 13.137532215096966 -0.6775745433831606 14.093925602936858 0 0 0
490 0 1 0 -3.232622736307844 14.130304885751181 14.495363180619094 2 1 0
874 0 1 0 2.8597316420525405 15.38709694131305 8.95543159983712 1 -1 0
1236 0 2 0 -1.0739660996210254 8.554378517447425 3.3092488905980977 0 0 0
988 0 1 0 -1.4354184934732381 5.781511735425099 11.784052778860987 -1 -1 0
776 0 2 0 0.6270469466070365 15.351777482768032 10.591142939923195 2 1 0
847 0 1 0 -3.727576270006834 6.422855490947749 13.133569918885152 1 0 0
866 0 2 0 -4.900536423448738 10.039861659772379 6.731656211520851 1 0 0
624 0 2 0 7.318970901725885 10.755171007889224 10.040910027253176 1 2 0
228 0 2 0 10.910526261290283 3.9187331840383663 4.281485098968343 -1 -1 0
185 0 2 0 -1.7307933533722188 10.585823275887083 6.2920291701861535 2 0 0
658 0 1 0 4.064701897781118 14.306573549116042 14.576530131895085 1 1 0
116 0 2 0 2.6462494211417398 12.996690869901578 6.898660190470168 -1 -3 0
628 0 1 0 8.586583835895505 10.629543974749794 3.8942403702527084 0 -1 0
1204 0 1 0 5.544706476058096 5.918024800275837 12.21311196362423 -1 0 0
311 0 2 0 -1.135297092088121 13.925175322723488 -0.8020441299318302 0 -1 0
941 0 2 0 7.957033081620029 -0.5760888347143531 4.101848736493985 0 0 0
38 0 2 0 1.0401065681742476 13.78337634615182 3.0978496573954906 0 1 0
39 0 2 0 -0.4859650459843259 13.689028200373487 2.84943735496856 0 1 0
436 0 1 0 -0.12707458102780322 3.078682905801924 12.297807210232232 -1 -3 0
203 0 2 0 -2.4474389116938853 15.022954228075555 9.468290910889994 1 -2 0
970 0 1 0 11.009375740554582 -3.7870016856514663 15.318622564230104 0 2 0
114 0 2 0 -2.9589821560253546 8.421867950759763 6.417419347386841 0 -1 0
91 0 1 0 12.934214199588565 -1.3720047947156684 5.7659411232411575 0 1 0
625 0 1 0 4.407533978958843 0.7511018440723642 7.7293603532321224 0 0 0
1249 0 1 0 9.939981182532643 5.468383660932638 7.657778153022475 0 -1 0
2437 0 1 0 -2.4039407479552666 5.949439745941228 0.6019779166468437 1 0 0
213 0 2 0 -1.5202831591640682 9.927871634224221 12.65055629510988 0 -1 0
976 0 1 0 1.894748035631743 -0.49014321681802264 2.9926536387640845 0 2 0
882 0 2 0 14.747266247167223 -3.2442276876931166 10.12976471979806 -1 -1 0
631 0 1 0 3.814820941852971 11.018554236490846 3.8009678979155126 0 1 0
1701 0 2 0 3.7434929247967266 6.309185154168737 1.2867136628582454 1 0 0
97 0 1 0 1.33748919067205 5.067378644882515 3.3631793095823896 0 1 0
92 0 2 0 12.159733741456927 -0.9243330128208469 6.152061195801589 0 1 0
82 0 1 0 4.491087530177815 5.716265838076344 -0.2530551583504391 1 0 0
220 0 1 0 5.122402168677742 17.664339827160312 1.3055827290849362 -1 -1 0
551 0 2 0 11.744601850948259 0.3522500731178795 10.605148838003013 -1 0 0
952 0 1 0 -1.255839647708055 2.7018497012267617 8.77258932396841 1 1 0
1072 0 1 0 1.7435726378195167 11.487733209244274 7.499430324443626 0 0 0
1079 0 2 0 7.661474303471496 4.474528098533965 6.323894947816577 1 0 0
1089 0 2 0 1.0830078032796302 15.459094970906683 13.173849472090893 1 0 0
472 0 1 0 -1.932100661099272 4.16539599174172 14.891220524122534 1 1 0
175 0 1 0 7.589024684952276 -1.4296032307009565 6.772771075571645 0 -2 0
760 0 1 0 0.6573360858898253 3.4611758578559497 14.914993511537178 -1 0 0
1270 0 1 0 6.596192974534667 4.37438083915733 1.0001587498894493 -1 -2 0
700 0 1 0 -4.770175029666622 17.33663275877501 9.130982325562872 1 0 0
112 0 1 0 -3.334185916056689 7.729993361252193 5.876550665366728 0 -1 0
79 0 1 0 4.2584163039047445 15.817095652940765 12.178429018912286 0 0 0
271 0 1 0 5.115374068308036 4.439879864405826 5.717343887870922 2 1 0
306 0 2 0 7.645248966932301 15.69073070835307 0.9536952318557874 -1 0 0
1722 0 2 0 9.102093471994754 13.836485404136594 2.357255606528169 1 0 0
143 0 2 0 -1.7742209260040156 5.665006009948929 8.059299290397078 1 -2 0
304 0 1 0 7.8677166575875335 16.26835899274926 1.6408651839062416 -1 0 0
20 0 2 0 12.188479230385244 5.100860754980508 -0.3384805008696332 0 -1 0
630 0 2 0 8.730854427418809 9.670943184865244 4.070130780223101 0 -1 0
556 0 1 0 7.068748943410285 3.5572050403908593 7.526970260301919 -1 1 0
1004 0 2 0 -0.32035957753142225 12.039907989965457 4.266383206265886 -1 0 0
96 0 2 0 7.059902286414052 16.525551189940916 10.890565705378497 1 2 0
925 0 1 0 -2.8318570747048635 8.171494637943491 9.30500446527929 2 2 0
927 0 2 0 -3.4568377929758647 8.056642914326986 10.015819463138788 2 2 0
772 0 1 0 9.06944434357854 1.7299190350991882 5.976127085127403 -1 -1 0
671 0 2 0 -4.383514348860471 18.382752995075027 3.1458473225703942 1 -2 0
21 0 2 0 11.656825120415986 5.56209576991269 1.0677246687662831 0 -1 0
723 0 2 0 -6.602467688157143 16.97225823439373 3.636269667315567 0 1 0
1555 0 1 0 -5.601772946790967 13.06205326277325 14.00562248582138 -1 -1 0
462 0 2 0 6.45646917697187 19.729651933231697 -0.17458496847403615 1 0 0
575 0 2 0 4.2901927638174735 1.5241797744010999 12.479842842563109 0 0 0
382 0 1 0 4.840077324796619 10.822592377413754 12.172028171306067 -1 0 0
287 0 2 0 2.508769363070239 -3.7294735277239504 11.296931965046378 1 1 0
891 0 2 0 5.426058508670689 11.274070691268845 4.502712550407586 1 1 0
162 0 2 0 -1.234632780055012 16.016591537037897 4.182177922449218 0 0 0
576 0 2 0 3.56026745190675 1.3478038025071566 12.46617321260156 0 0 0
1169 0 2 0 -1.561796737664783 12.040769439140789 13.541382925615554 2 -3 0
153 0 2 0 3.650881104527283 3.424897033074641 9.335675572626672 -2 -2 0
349 0 1 0 -2.945185563974872 17.761447268350796 1.2046733336702697 2 1 0
1074 0 2 0 2.439412818281329 10.922600724176476 7.103996800623191 0 0 0
325 0 1 0 0.29789318029245676 8.433300086567098 10.238623859044804 1 1 0
169 0 1 0 2.559604994550148 3.3527876318016516 5.308803817307511 0 0 0
889 0 1 0 6.297781238979678 11.123889442796994 4.9590380836443675 1 1 0
835 0 1 0 10.187165438294294 0.14760448168139195 14.496839706089434 1 1 0
161 0 2 0 -1.679115837251008 16.68452866555457 2.8861880618573346 0 0 0
909 0 2 0 2.6049554120107445 19.823581224925373 3.6361497291294924 0 0 0
750 0 2 0 6.834386534626183 5.3507441897896655 2.5368442698269007 -2 -3 0
2402 0 2 0 -0.1980690924891952 18.265245619805377 8.397264052202265 0 1 1
1637 0 2 0 0.35571947358032663 8.448259341521021 7.810011638678883 1 0 0
327 0 2 0 0.8375033044355458 9.228972529963595 10.157282889143282 1 1 0
895 0 1 0 -0.3411936616793008 12.582854995875083 10.945139090358088 1 0 0
1409 0 2 0 12.310959138842678 -0.41631795833885565 14.535347951106393 0 0 0
854 0 2 0 0.25237659785136424 6.27278729358409 14.894830166942295 1 0 0
2294 0 2 0 6.050388219390462 12.675681265764872 5.633825990542152 0 -1 0
437 0 2 0 0.3025806302921818 2.903327143660042 13.150587054178768 -1 -3 0
1008 0 2 0 -6.33342282498287 18.703035236927803 1.9086372689331976 1 0 0
1054 0 1 0 9.07035877354926 9.89542280174103 12.746307457974572 -1 1 0
1521 0 2 0 5.009313623099355 14.54054759104784 2.032317245799127 0 0 0
424 0 1 0 -2.1763979616645335 13.71978941185767 3.422309018506664 1 1 0
1160 0 2 0 -4.648158407081977 12.753247057126407 9.381807920818606 1 1 0
63 0 2 0 9.783657200652224 2.2331916500231483 7.596370209783148 -1 -2 0
611 0 2 0 6.90413661151994 7.763103106476436 14.398484529503117 1 2 0
660 0 2 0 3.360218791844044 13.63508422308478 14.542129455445048 1 1 0
572 0 2 0 6.969585374016903 13.355619059575865 2.694340529896499 1 0 0
986 0 2 0 6.798204854135221 12.505743054886363 14.821885162849043 -1 -1 0
1453 0 1 0 -5.269403566673705 16.110468899470522 -0.4227026729665056 0 0 0
634 0 1 0 0.49521425556221665 7.795600647344342 2.758661993300268 0 1 0
1205 0 2 0 5.617915414472591 5.346181167516849 12.95943308711859 -1 0 0
81 0 2 0 3.7235244383612356 15.112957257832196 11.779142402448985 0 0 0
936 0 2 0 8.893543900618036 0.6891162874118524 11.060726423052134 1 0 0
629 0 2 0 8.5803337619617 10.75084117535769 2.9287012473090015 0 -1 0
1105 0 1 0 10.284419206878752 4.492487826713606 2.226213539771848 1 1 0
477 0 2 0 8.160328412163322 12.513970980452019 6.633252299753731 1 1 0
975 0 2 0 9.740287055969334 8.67775700429158 9.344324571438198 -1 -4 0
2365 0 1 0 6.111561796239356 12.05343879721736 -0.5349377798320305 0 0 0
1172 0 2 0 -0.0147798687979123 19.556867279946673 0.6354049771850383 1 0 0
1161 0 2 0 -3.542392054275709 12.89958324437304 8.367965904180421 1 1 0
322 0 1 0 10.80847247862583 2.958310693622021 11.780717221229354 0 1 0
177 0 2 0 8.247066365748632 -1.361853486676028 6.087540296211262 0 -2 0
520 0 1 0 3.5973092805634574 0.8425159835856819 4.805346053544147 0 -1 1
380 0 2 0 0.2814803255151107 12.517761509525064 6.587120595346738 -1 0 0
990 0 2 0 -1.2775927192060175 5.828036679429138 10.791589866769682 -1 -1 0
618 0 2 0 -3.567249802140233 10.979300137299198 5.374292059557994 -2 -2 0
323 0 2 0 11.610707967032022 3.0603609518708748 12.32761655664007 0 1 0
754 0 1 0 7.369018298037248 3.805183982920095 10.458702915635877 1 1 0
1108 0 1 0 5.407648286997602 2.0418783893743777 0.09682351296938152 1 2 0
839 0 2 0 11.755370784159386 1.9242814832452528 1.3097194630377222 1 1 0
1251 0 2 0 10.488880092986216 6.237114971288834 7.710242204758053 0 -1 0
78 0 2 0 5.074987002135002 8.690005226639178 0.019441982856450157 1 -1 0
229 0 1 0 -2.655280941032844 13.999150317681924 7.538939260326684 1 1 0
1144 0 1 0 3.734272086773931 11.290605534408678 0.6216615452239982 0 1 0
1520 0 2 0 4.457469641345534 15.642184976624023 3.071109136297842 0 0 0
1073 0 2 0 1.5508969987797885 11.17869377168318 8.42527054593965 0 0 0
794 0 2 0 4.0353181913808385 18.487644483992735 0.17516788657489402 0 0 0
695 0 2 0 14.416004401732566 0.5404813049874724 6.673339266656813 0 2 0
777 0 2 0 0.024829647514391817 13.96985994796187 10.112040140716399 2 1 0
756 0 2 0 7.2104610285230555 2.8535913099712866 10.482281938823956 1 1 0
501 0 2 0 3.366851468938053 8.529808807368328 12.9040933010369 1 1 0
905 0 2 0 15.102991322224865 -3.1201256082434092 14.268224990619348 1 1 1
659 0 2 0 4.096623298125978 14.925954765075186 13.815246286280589 1 1 0
963 0 2 0 5.0729751774259695 7.629462413343941 5.29111119131792 0 2 1
2366 0 2 0 5.283880318404096 11.762414496784928 -0.12619956055675585 0 0 1
474 0 2 0 -2.3910754114183432 3.8342401802909434 14.107031545108105 1 1 0
47 0 2 0 -0.986509541544231 18.317619349252155 4.129596195431549 -1 -2 0
123 0 2 0 -6.2241073280993024 17.523851751481626 7.624945662381148 1 -1 0
217 0 1 0 2.3601435393658963 4.376503790908636 11.66043783915515 -1 -1 0
830 0 2 0 5.942394150209348 0.35162269799088497 1.1722087704083135 -2 -1 0
390 0 2 0 11.132120910922254 5.725717671503157 9.850704766742798 1 1 0
853 0 1 0 -0.6277633346684042 6.665631973200809 15.090564885771185 1 0 0
1125 0 2 0 8.1332491020751 14.620267718025552 6.061228307500485 0 -1 0
733 0 1 0 -3.0547351644000917 16.947129800898647 6.436925823595604 0 -1 0
487 0 1 0 6.549013028065244 -2.201476642557726 9.21137534598412 1 1 0
18 0 2 0 -2.3097641506422346 12.768173606316516 11.64778564240275 -2 1 0
458 0 2 0 -0.38423811822085363 15.5015423680283 8.597018461445526 1 -1 0
397 0 1 0 -3.7134212192703933 10.206655243666475 15.129130158788506 1 2 0
1232 0 2 0 6.452468814453747 14.907852847881333 6.781738944485216 1 -1 1
1048 0 1 0 7.974009565103952 2.934333417821019 3.4900043801502543 0 0 0
1556 0 2 0 -6.176706574363723 13.36025382987968 14.747611994007425 -1 -1 0
272 0 2 0 4.747292291656487 5.188186504247837 6.208077626515877 2 1 0
1059 0 2 0 2.8161734572846253 13.706375834899358 4.700729653926421 1 0 0
1005 0 2 0 0.4014514478649956 10.713863882554634 4.175434976098954 -1 0 0
792 0 2 0 8.878921799779684 1.9829077812670688 -0.6804857574091094 1 1 0
948 0 2 0 -4.332839742290946 16.32867484611692 2.207551695696203 1 0 0
998 0 2 0 1.557904806267398 9.02192804749685 5.672752043291262 2 2 0
345 0 2 0 9.72657902905001 6.89752618638934 10.853557770096092 0 -1 0
1639 0 1 0 8.92768187905415 5.790491885936205 11.86408684374176 1 0 0
1410 0 2 0 13.53504965345031 -1.2657252557526055 14.811691978241157 0 0 0
784 0 1 0 3.6569656609971477 1.0409383565589385 14.618317254370142 0 0 0
785 0 2 0 3.9638001655683217 0.5556936217286186 13.91517452547615 0 0 0
786 0 2 0 4.342158606104382 0.9466429751047567 14.062421766772987 0 0 0
615 0 2 0 4.500043452997595 5.028786615603363 15.30005579806005 0 2 0
1039 0 1 0 4.696538868090632 6.563789694340005 7.326281557900941 3 0 0
2186 0 2 0 6.362516067373957 9.606637838013535 5.574210974208443 1 1 0
184 0 1 0 -1.9117390392242508 9.847873512453901 6.892425312721841 2 0 0
356 0 2 0 4.15077057916396 -1.6915491129559346 6.873048970382708 0 1 0
989 0 2 0 -0.8782733051939786 5.043680579267014 12.006009864911459 -1 -1 0
1677 0 2 0 4.754501490602776 0.42698413622028486 11.277058169136431 0 0 0
49 0 1 0 2.234399994637461 8.847072525992917 0.8623997487502109 0 0 0
813 0 2 0 0.8347252875216133 -1.0238261643126534 12.521637377954951 0 0 0
1411 0 1 0 1.9336825093876508 5.97972428359054 14.190297781080552 1 0 0
2293 0 1 0 5.659217943775075 13.477241964635107 5.959811389151197 0 -1 0
1258 0 1 0 2.938503550615976 13.308206031997594 11.897188758887511 0 -1 0
355 0 1 0 4.789647237516557 -1.8951979960289262 6.200052773304921 0 1 0
1271 0 2 0 5.83190161428889 4.767091588462784 0.5930263829192977 -1 -2 0
1027 0 1 0 3.9990953726392435 8.661148004984037 10.072249010073032 2 1 0
126 0 2 0 9.919207032362948 7.351825505396389 3.6334256197322983 2 2 0
636 0 2 0 0.6752097423936371 6.846790452885106 2.8400147994418368 0 1 0
1171 0 1 0 -0.7480798496347539 20.068381461148906 0.2973653389586439 1 0 0
856 0 1 0 0.47162791991266867 15.41450694893166 5.372765276479686 0 2 0
72 0 2 0 0.15421592944337711 15.601115494935781 1.7586605151470733 0 1 0
654 0 2 0 -6.112186906574883 14.41614602358997 0.10889231812954936 1 1 0
747 0 2 0 4.00634489938067 -4.175230517613173 14.456206104719755 1 -1 0
774 0 2 0 9.580066813230667 2.4876498014838635 5.702203576549234 -1 -1 0
571 0 1 0 6.130421547153805 12.90215920440263 2.5350085154069166 1 0 0
753 0 2 0 10.654723069653254 8.862178172354485 1.435378790359076 0 1 0
42 0 2 0 -6.254945171236534 14.138810190214347 10.39077942120077 1 1 0
1533 0 2 0 -1.224147971124994 3.0178792237156955 0.8628820037525524 -1 -1 0
239 0 2 0 -5.300500081667803 16.35866373103384 10.49037130132012 1 1 0
641 0 2 0 12.914055439477046 -2.8324675992382193 8.67893284294263 -1 -1 0
1082 0 2 0 -3.1961800670661766 7.549930569899844 2.691585017976871 3 2 0
293 0 2 0 0.8629832466119662 5.065876545249074 7.004854757157549 1 0 0
1185 0 2 0 4.710205215629682 2.961936695551371 2.8359453617260497 1 0 0
2314 0 1 0 6.400660745519887 12.81498988761702 11.589493060405403 0 1 1
425 0 2 0 -2.540099718855173 13.907074219490914 2.5455295170860106 1 1 0
780 0 2 0 2.4255841987872615 10.645945450418152 13.546474544264335 0 -1 0
46 0 1 0 -0.5641187856202576 19.145418730600408 4.42635790429602 -1 -2 0
350 0 2 0 -2.1653997546479316 17.354833455745187 0.8171708188245175 2 1 0
558 0 2 0 7.2623388223498795 4.013672850603944 8.378921043075529 -1 1 0
446 0 2 0 3.0703173008389353 3.9518357047118853 0.9775903985215755 1 1 0
987 0 2 0 5.665269212718027 13.551644851219205 14.48109614594262 -1 -1 0
381 0 2 0 -0.07932699444944996 13.728722224233165 5.692219185784051 -1 0 0
1412 0 2 0 2.0336613541067026 5.259340558269299 13.54563662234196 1 0 0
752 0 2 0 9.441604170203517 9.634400011173788 0.8745495653256556 0 1 0
546 0 2 0 -7.16945194574112 15.87155011264376 12.474550227134598 0 -1 0
1454 0 2 0 -5.492835883838605 16.71556346107084 0.2542296703642275 0 0 0
290 0 2 0 4.86093013918007 10.025337947118956 2.2910614447296447 0 0 0