LAMMPS data file via write_data, version 23 Jun 2022, timestep = 113395000

2592 atoms
2 atom types

0 30.957001 xlo xhi
0 21.340725 ylo yhi
-0.8896141057499776 31.754778096959978 zlo zhi
-9.151055 1.0626203519453408 -10.806782686078133 xy xz yz

Masses

1 1.008
2 15.999

Atoms # full

1721 0 2 0 14.146741681553095 -0.10088782267565954 2.8405712436483026 2 0 0
259 0 1 0 -2.7016957058837554 11.112837668955862 4.222023910574465 -1 -1 0
222 0 2 0 -4.993645143004008 11.994518916095119 7.441024154010549 -1 -2 0
915 0 2 0 1.7376574158874365 13.233161460776909 10.564338782798822 0 0 0
282 0 2 0 5.094030907633815 1.8769580361756444 10.644086877044723 2 -1 0
162 0 2 0 2.0036806991242733 9.744223907695414 11.95410087707368 1 2 0
1241 0 2 0 7.564542910736092 9.480650163023379 14.920774450812122 -3 0 0
223 0 1 0 9.12815899038237 3.8869457140387835 2.1265144112641585 0 1 0
1054 0 1 0 9.230982345052134 1.5623264173112403 8.49836865458775 -1 1 0
1184 0 2 0 3.164261852443043 18.93910778087025 5.695266011088586 2 0 0
121 0 1 0 -5.170268809310573 12.96732005397594 4.270969146628163 1 0 0
316 0 1 0 -2.2339095994257874 13.740024554023943 5.200111440641772 -1 -2 0
1188 0 2 0 8.053094562609617 4.220343262534894 8.057844994963922 0 -2 0
44 0 2 0 -5.123830832473301 19.312988927084206 1.6185622116317733 0 2 0
1197 0 2 0 -2.1710400470148947 6.268037316794459 -0.7241963384728267 -1 0 0
374 0 2 0 10.977824932214256 2.5605856109967413 -0.32950022132101886 1 0 0
322 0 1 0 6.776377615507884 9.221188961880983 11.907339366380048 2 1 0
384 0 2 0 4.113903647605574 18.113719827326946 8.746251685102404 -2 -1 0
749 0 2 0 9.890435444072008 8.756791567945715 14.804601576048835 -2 -4 0
1108 0 1 0 -0.0016352400369982478 9.292133824893938 6.425948059741834 0 0 0
16 0 1 0 10.344921116205473 9.682121649126568 5.426913303127978 -4 1 0
463 0 1 0 1.0135824406035898 4.322543998332826 6.121080807548719 2 0 0
236 0 2 0 5.193938266543691 -1.7784068141194433 14.913668975049953 -1 -1 0
818 0 2 0 10.92630385366827 1.7926946329662963 13.176751504827516 1 0 0
836 0 2 0 1.3437886733346673 6.185441937433734 12.909958764900892 3 1 0
663 0 2 0 1.4571209026464562 7.83224543722543 0.4200678933836377 -1 0 0
139 0 1 0 -1.522901198468887 7.565112996253024 1.5358117023714013 2 0 0
571 0 1 0 10.62886167111887 6.9289292033094565 6.020072925501614 1 2 0
318 0 2 0 -2.712421673731838 14.378797030978046 4.581708949028672 -1 -2 0
169 0 1 0 1.0877874748503655 13.993667021022164 8.497303918542082 -1 -1 0
1076 0 2 0 -2.6112556028926925 19.977416889531003 0.7171580636278365 1 0 0
67 0 1 0 1.6883199448081843 2.814814282647313 2.490426151398131 -1 1 0
743 0 2 0 -4.617169055755698 11.394882144348612 14.353701866501314 -1 0 0
225 0 2 0 9.51980201054621 4.117626125114935 2.9836752658226815 0 1 0
1114 0 1 0 -4.07675690873246 15.447162433956393 12.747842872063412 -1 0 0
805 0 1 0 -0.5596735427478587 15.524358357640386 0.6845094826382381 1 2 0
325 0 1 0 0.3920889525712854 12.128485606632012 6.3519551038877236 2 1 0
1121 0 2 0 -1.1763639433064588 13.010054677703046 10.582538795024998 0 -2 0
87 0 2 0 2.8144604040212347 5.245359063884684 14.867762330682643 2 3 0
720 0 2 0 4.338640292107531 14.931716027008893 1.1825408433289115 0 0 0
1265 0 2 0 3.9361223131203444 15.960586487928712 11.686119965356188 -4 2 0
967 0 1 0 -3.2330089957802683 12.34919925397492 7.364606032892928 1 -1 0
549 0 2 0 4.771733283040719 5.62551496204749 -0.7121975024418825 1 4 0
160 0 1 0 2.4391204789285066 10.48843369629315 12.32074470783845 1 2 0
626 0 2 0 8.971606598436873 2.449076783860364 10.202936301498385 0 1 0
2259 0 2 0 -2.098289989334323 8.362322440601297 13.122752174534998 0 -1 0
197 0 2 0 0.9526215907373018 7.556426528208194 7.178742222268436 -1 -2 0
645 0 2 0 7.209878740729193 -2.497724064767165 11.501681623493125 0 0 1
1256 0 2 0 -1.7859024906293537 14.040141950386559 8.458786110366942 -1 -1 0
704 0 2 0 -1.6208293314950428 9.415862072491002 8.877718183623935 -1 1 0
483 0 2 0 3.4006792303256024 13.791210637705612 6.932578179375331 -1 -3 0
2473 0 1 0 11.153703485071167 -0.5497789814781999 9.206380209671638 1 0 0
2314 0 1 0 6.4302596829152225 11.315698063404513 10.053917093556784 0 1 1
927 0 2 0 1.6885079485310701 0.15237615437586438 10.212209617570734 1 1 0
842 0 2 0 10.072045116729097 1.4184114269784338 2.653628446106565 1 4 0
294 0 2 0 -3.248281299654196 17.210356572511625 7.568769191182811 1 0 0
119 0 2 0 0.9358832773817409 -1.4617043628878212 11.004918461494354 1 2 0
297 0 2 0 10.456783117694858 3.1892082507373756 5.6812295689876375 -2 1 0
1269 0 2 0 8.49122932564438 10.254117343110988 5.05551330545961 2 0 0
644 0 2 0 8.228089074564922 -2.6924623767799583 12.687680709312206 0 0 1
1461 0 2 0 4.892910347665818 11.159094698193384 2.8069627887010093 1 0 0
758 0 2 0 11.036154264533039 -2.448448977143434 11.481909406035577 1 1 0
335 0 2 0 13.743895896226642 -4.212896719182639 15.150317282642323 0 0 0
1411 0 1 0 5.307334660367915 9.055776255548876 5.508381280657841 1 0 0
1186 0 1 0 8.184511177810199 4.971995870163312 8.643765855001728 0 -2 0
482 0 2 0 2.911478739398979 13.066253602043828 8.15821412895567 -1 -3 0
2162 0 2 0 -5.865301904766416 18.258599593191704 -0.87142641683316 0 -1 0
1166 0 2 0 6.316794541515844 0.32699094927573347 9.363395857333943 2 2 0
96 0 2 0 -0.29195089534956054 12.437265701383092 3.3379203515294433 1 2 0
690 0 2 0 8.606362642263823 4.540606045729915 5.217913911239093 0 1 0
868 0 1 0 2.133065891511096 11.172280245477364 4.429790334418603 3 0 0
1148 0 2 0 -1.205000269022742 1.867222673360085 6.8967099742264715 2 1 0
45 0 2 0 -4.709158438450061 17.78843845115347 1.7200977429918418 1 2 0
1268 0 2 0 7.908216052097956 11.41338993477901 4.145516457713673 2 0 0
856 0 1 0 -5.891608925327734 16.423277923711296 4.784473754796826 1 1 0
1690 0 1 0 2.618187184757341 -3.8214783145850233 13.972248433485554 1 0 0
753 0 2 0 -0.4762666156157307 12.452643054582111 15.362710106009946 0 0 0
807 0 2 0 0.2136761082834473 15.670126010567364 0.11435649759109978 1 2 0
786 0 2 0 3.2581403216357763 -1.624506758389292 5.335950454810652 0 0 0
1692 0 2 0 2.82506317742581 -4.4900848289557915 14.660729831538667 1 0 0
2295 0 2 0 5.603276864375046 11.077158149063255 13.784967831021481 1 -1 0
185 0 2 0 6.559931356200622 5.505473797455626 11.739773857065614 1 1 0
423 0 2 0 0.3702728576999249 3.1346711656295225 14.88392166609552 0 -1 0
480 0 2 0 6.825922675164861 8.151886938524344 5.040480155253035 0 -1 0
574 0 1 0 5.080039504342983 0.020218595182425858 4.219129995555172 0 0 0
1098 0 2 0 1.5244718519947087 2.7158722458929407 11.493428601661224 0 1 0
921 0 2 0 0.04530324375751767 5.225702725425312 2.807375540014439 1 1 0
679 0 1 0 0.5609915883694722 -2.1212947960951247 14.63463817634632 0 2 0
703 0 1 0 -1.2141771948239175 9.77206206564265 9.636965222724761 -1 1 0
948 0 2 0 2.853438937358229 2.753647350149682 0.7915870715495461 1 1 0
55 0 1 0 6.062893429015681 1.047792110177948 15.316401754252954 -1 0 0
858 0 2 0 -5.588143204254218 17.301435496278305 4.988642704982773 1 1 0
1201 0 1 0 7.351000802637029 0.8479267091708556 12.947626335083116 2 2 0
1140 0 2 0 -7.810265603144673 16.721418744477116 8.047998785968103 4 2 0
278 0 2 0 2.5682677351277623 -0.3220704658458189 6.705398998860425 0 0 0
1699 0 1 0 10.894187535367728 4.761607211465777 8.614022249167594 0 -1 0
1625 0 2 0 1.508584007571747 16.24446480022219 13.35108960507715 0 -1 0
69 0 2 0 1.0613366818387835 2.1357315103133505 2.8559284646233496 -1 1 0
1448 0 2 0 2.8522774602985663 5.997393295941661 9.838254085242617 0 1 0
181 0 1 0 8.654217618303191 12.213700368453015 7.371418910966414 -2 0 0
617 0 2 0 6.101895850592863 9.096975158174795 2.2005873332978676 -1 -1 0
293 0 2 0 -4.279341470093287 18.14563574021501 8.283890292994153 1 0 0
1144 0 1 0 7.101126867328041 2.6372601061742555 3.1861615730696737 0 1 0
323 0 2 0 7.424902843239994 8.654816513067631 11.453872618480533 2 1 0
1288 0 1 0 2.4471510716035505 -0.19976103552378022 4.142665963172735 0 0 0
885 0 2 0 2.4026530271793956 9.093775989521289 6.917488429918653 1 -1 0
477 0 2 0 8.645253837603512 2.6689367121151566 15.202621164386265 1 2 0
728 0 2 0 -3.484413941070221 12.61640127429284 9.52769386762967 -1 0 0
1097 0 2 0 2.819777483402317 2.019053906844948 11.920872651930235 0 1 0
525 0 2 0 3.9517137729875693 12.885402477716411 14.359179186001429 1 0 0
1172 0 2 0 7.9177248253622485 10.195231197858336 1.1680891059806262 1 0 0
892 0 1 0 8.190711326770694 1.1332391366346002 5.039392679945059 0 4 0
291 0 2 0 -2.9125089082220033 16.25148416895268 13.930322245063868 0 1 0
253 0 1 0 7.93339860436865 12.956682726439874 3.3461627394513798 1 2 0
2557 0 1 0 5.526352188942808 4.949968581424021 14.087553588981491 0 0 0
785 0 2 0 3.665645802583267 -1.4694332636813903 5.930219773048948 0 0 0
112 0 1 0 4.2593112614259665 6.53322025426339 6.425987797623067 -1 -2 0
756 0 2 0 0.6112053631748855 16.238445341340977 4.473838167909146 2 2 0
1079 0 2 0 7.436572025903326 12.833595562844108 12.751932115957871 0 -2 0
186 0 2 0 5.747915777439784 4.714492430827658 10.613945894301418 1 1 0
773 0 2 0 4.175995113081773 3.2949603592976575 6.784754825380609 0 -1 0
497 0 2 0 5.139742313526214 -2.6262128629845902 10.392916327016676 1 1 0
94 0 1 0 -0.05455326210713213 13.319797640214475 3.5730351565140523 1 2 0
812 0 2 0 12.90737966032933 -1.8177625504999657 15.012262063320707 0 1 0
1242 0 2 0 7.662325943489136 9.641908883772112 13.308002984414658 -3 0 0
1485 0 2 0 -0.5694256224499334 4.195529845203742 9.05455082178635 0 -1 0
503 0 2 0 5.184604288743989 7.071869910749077 1.686874499213356 0 -1 0
627 0 2 0 9.388222155236694 2.9445719664108347 11.521270213046867 0 1 0
81 0 2 0 15.465676425434065 -2.8705969927908903 9.54945013770931 1 2 0
784 0 1 0 -5.5889064176431695 18.981246937290532 5.691186515076311 0 -1 0
31 0 1 0 7.633954009297205 17.207749261012637 1.3029435912497034 0 2 0
693 0 2 0 10.948231693507562 -1.9760628604700377 13.668340021839395 1 1 0
518 0 2 0 -2.37638496243141 7.294488385690438 9.390725195498579 2 2 0
140 0 2 0 -0.5836130136371542 7.346596124381537 1.3344788360555784 2 0 0
1484 0 2 0 -0.4621898209941425 4.637935356725794 7.645079773084721 0 -1 0
793 0 1 0 1.8265638036930911 16.66046381168404 -0.3139431500326316 0 0 0
866 0 2 0 2.6252697845641864 4.319342091229668 5.13370139225681 0 0 0
199 0 1 0 4.105491518524061 7.323981265803704 10.496287688049081 0 0 0
360 0 2 0 -0.5540894796805247 1.283604297142027 8.954226880309118 0 0 0
1691 0 2 0 2.044175794026889 -4.201152173639592 13.268487831420869 1 0 0
853 0 1 0 -1.7595997592014632 14.0034128825523 11.974667283555759 0 0 0
295 0 1 0 10.516378368809 2.3466686229571785 6.145703870733146 -2 1 0
641 0 2 0 1.4079744155481626 11.58559210831653 14.445440945749828 0 0 0
249 0 2 0 0.74435617431468 7.229659958843134 3.9092886781173712 2 1 0
1091 0 2 0 0.061275182791073246 10.043211074474666 -0.3760302505344758 1 0 0
841 0 1 0 10.625002409578293 1.9477744804695944 3.3234633061853076 1 4 0
1101 0 2 0 10.795641413577318 -0.16672552173551114 1.1681345975495776 -1 2 0
1073 0 2 0 6.54994147123546 13.541135868423282 1.6882984975697668 -1 -3 0
1588 0 1 0 8.215706411099324 -1.8525812170779516 5.661353716652197 0 -1 0
1480 0 1 0 -2.9579272085588175 10.671120000761615 11.796626600624611 1 -2 0
413 0 2 0 4.7758452340229125 2.2740064792677988 15.037855254636343 0 1 0
348 0 2 0 6.962142362749049 15.650074086745473 4.036673241990485 -1 1 0
1145 0 2 0 7.294619888262538 1.9612747871896683 3.8917028867523795 0 1 0
2559 0 2 0 4.814528677597354 4.313302499178815 13.95247998124693 0 0 1
300 0 2 0 3.709903329542724 0.1378233794155559 13.007552755992723 -2 -1 0
1475 0 2 0 2.2997168763228513 16.810144190171037 10.308848639363044 0 0 0
857 0 2 0 -6.826571755536381 16.472622148930153 4.802273060134433 1 1 0
138 0 2 0 7.687171298557369 -1.585317435721668 8.355837364712666 1 1 0
835 0 1 0 0.41627889843705906 6.075376495390931 13.009733185212996 3 1 0
1569 0 2 0 0.4377733238301241 -1.2395565209448678 7.806489482420295 -2 0 0
521 0 2 0 0.4949856524782074 12.500490950998701 12.53291623742452 0 -2 1
638 0 2 0 14.191334445885312 1.4948814979788678 0.259336851515763 -1 0 0
113 0 2 0 3.350932272847535 6.774648634776662 6.545891131771495 -1 -2 0
537 0 2 0 4.421143842651888 16.919432394641213 -0.27966507335981394 1 0 0
817 0 1 0 10.611478947209166 1.1589397669412227 12.482193493038677 1 0 0
642 0 2 0 2.7644685278261414 11.088613946805536 14.90496630193882 0 0 0
334 0 1 0 14.419747882225835 -4.103509308278196 14.445928226776768 0 0 0
1110 0 2 0 0.21805128988790068 8.873565774432159 5.587297165493199 0 0 0
643 0 1 0 8.095646441923527 -2.9063561376448876 11.746545159145262 0 0 1
1131 0 2 0 8.435107476543033 4.15359874206888 13.358760569262936 0 0 0
429 0 2 0 8.383947128697384 6.2011385710820335 0.5353466812383145 0 0 0
1165 0 1 0 6.730051063278055 -0.03090032255874675 8.53533179310995 2 2 0
1482 0 2 0 -2.556665123119904 10.108656376150902 11.03169236124154 1 -2 0
825 0 2 0 5.216326834096213 10.17474862800447 9.21719439880833 0 4 0
673 0 1 0 3.0675398913777996 -2.7008662311579847 9.377095851565432 -2 -1 0
959 0 2 0 0.09983618113165293 9.163371061699433 13.36583993392503 0 -1 0
1677 0 2 0 3.43294470449264 1.0746537882973755 5.990818895099684 0 0 0
2198 0 2 0 2.305916070463151 19.690596182034536 -0.2738741138789067 0 -1 0
183 0 2 0 7.736823325934005 11.919917562969239 7.261350598919265 -2 0 0
326 0 2 0 0.6914054650696491 12.729151015764998 7.044749985143181 2 1 0
79 0 1 0 14.611471397080496 -2.932528704578107 10.001693991636074 1 2 0
49 0 1 0 11.248747501506985 5.71946463515986 -0.12626705749642464 0 0 0
1167 0 2 0 6.005067469681517 -0.10131041014745001 7.894753554000692 2 2 0
1120 0 1 0 -0.8546670693504187 12.611723948454152 9.704033388634308 0 -2 0
1720 0 1 0 14.877927823151964 -0.6699496695494338 2.7039691617468726 2 0 0
674 0 2 0 2.3703932377683605 -3.0226863854340844 8.724974147825717 -2 -1 0
596 0 2 0 1.5713454521423054 2.3923608544418324 8.71725922853796 3 4 0
595 0 1 0 1.7959004979326254 3.2804822510844542 8.43106922059918 3 4 0
1533 0 2 0 5.30480206617093 6.763420397530231 13.747054707390612 -2 -1 0
662 0 2 0 1.472604330429196 6.5664663535548335 1.2944889222608853 -1 0 0
1109 0 2 0 0.05155420225753063 10.27211353701003 6.251537703106158 0 0 0
61 0 1 0 6.826465924725101 7.306860960458156 8.051744958925042 -1 -1 0
1496 0 2 0 6.15410574069921 11.167078740623655 5.783211389504798 1 0 0
187 0 1 0 3.032158494263896 5.265515990673271 12.839272893781873 -1 -3 0
359 0 2 0 0.037039971438350194 1.5406380112725921 10.399340282338397 0 0 0
1072 0 1 0 5.763089704561821 13.648833771566064 1.2083548990056983 -1 -3 0
925 0 1 0 2.401959540958652 -0.43185611521231193 10.499119979789839 1 1 0
917 0 2 0 4.495267088803873 3.6143017626743297 8.955378978351078 -1 0 0
292 0 1 0 -3.533542100154214 17.59695047302133 8.433135099780126 1 0 0
501 0 2 0 -4.605110120855334 15.389647069760745 0.8281753577641773 1 1 0
461 0 2 0 5.289173604864106 19.274364771822878 -0.13277072548896673 1 0 0
979 0 1 0 8.005513090975164 -2.2770245584000044 14.560364324184519 1 2 0
189 0 2 0 2.8919896079218055 4.633470248107174 12.155312333657811 -1 -3 0
2163 0 2 0 -5.476203899947034 19.764379786634922 -0.7193207470254186 0 -1 1
123 0 2 0 -5.157661098601238 12.062636835415919 4.630255529411327 1 0 0
2307 0 2 0 0.9995941685032723 5.608412592636087 -0.6439396123609553 0 0 1
63 0 2 0 6.610368189502711 6.3776533749134074 8.260070096976834 -1 -1 0
425 0 2 0 9.448007672898076 -3.287510054839465 14.830582767047945 1 4 0
1152 0 2 0 10.910878735280052 2.8419204158440894 9.753858842778858 1 -1 0
166 0 1 0 0.5692015427164285 8.263073897744 14.78274448198935 1 -3 0
1531 0 1 0 4.992500495564036 7.648306074161757 13.521111360063061 -2 -1 0
916 0 1 0 4.61121500512021 3.3349568656151964 9.942535253113544 -1 0 0
478 0 1 0 7.1705722027549195 7.253396123560573 4.982063139042723 0 -1 0
2365 0 1 0 5.007098828113611 9.4075474412409 -0.782595184665871 0 0 0
1669 0 1 0 9.169653687932614 0.5626315015045322 1.28859338531237 2 0 0
855 0 2 0 -1.418118090698289 14.822615793303447 11.495491909824354 0 0 0
536 0 2 0 4.093806860855144 17.70144870353742 1.006368848735508 1 0 0
770 0 2 0 -2.6522504150687203 5.435776927233606 11.69051069586998 0 2 0
913 0 1 0 2.118041277202083 13.175785173611613 11.424347488678356 0 0 0
1021 0 1 0 12.821352202866237 0.3529148879303403 4.280858362902723 0 0 0
76 0 1 0 -2.8394714283621023 9.60386364409326 6.81699684038669 2 -1 0
1084 0 1 0 1.504223097865253 0.0686308591539806 1.2790061525299725 -1 -1 0
202 0 1 0 7.482905363761068 3.0475669914831016 6.686858531468768 2 0 0
2511 0 2 0 2.9803167358556655 12.204611578949935 2.2474210495518543 0 -1 0
105 0 2 0 -2.200769448240723 15.831876397764207 6.311415710151481 3 1 0
947 0 2 0 3.284126235052523 2.445234257581735 -0.727706698529291 1 1 0
314 0 2 0 9.118663946825393 7.5818461920652656 2.862285786155396 1 -1 0
719 0 2 0 2.9260651910235076 14.439801703530192 1.5688041627741094 0 0 0
132 0 2 0 -7.9826137251911895 14.7586603628509 14.383496874051168 2 0 0
659 0 2 0 -1.87107291901508 4.517885538529559 14.423156531200382 2 3 0
859 0 1 0 5.45920322454872 15.375389872203728 8.67960159460341 -1 -1 0
1567 0 1 0 -0.37361682994157946 -1.445848157214444 8.313599920627745 -2 0 0
994 0 1 0 -2.749936188779796 11.24046013492572 14.416767985226635 -1 1 0
1215 0 2 0 -4.0990750438218315 14.83364439511279 6.9363980663337355 -2 -1 0
1096 0 1 0 2.4924300016110377 2.824068444760022 11.413411635247252 0 1 0
2316 0 2 0 6.030424828758007 12.171522851423969 10.256883432639716 0 1 1
861 0 2 0 5.591249363964776 14.996848808676889 7.799993697376463 -1 -1 0
168 0 2 0 -0.06542731395378965 8.685554172528867 15.38455781440683 1 -3 0
854 0 2 0 -2.7050536615705836 14.209365556654376 12.162862445955785 0 0 0
995 0 2 0 -2.4125740950954677 10.46313686033443 14.902531548508053 -1 1 0
1447 0 1 0 1.9887024135947167 5.711783145687207 9.516079706285561 0 1 0
869 0 2 0 3.0854634902830647 11.10110722279693 4.307540313663229 3 0 0
899 0 2 0 -0.7398535467309035 16.758412925520357 11.214394747104441 0 -2 0
950 0 2 0 4.017129793218288 0.06622535553949449 6.254245081421319 0 0 0
880 0 1 0 -3.986611530228362 7.515040741980064 10.62075698730493 0 0 0
182 0 2 0 9.179381320912192 11.430523323693913 7.570423109171596 -2 0 0
727 0 1 0 -3.9889757103917844 12.880261323897757 10.279451985648954 -1 0 0
80 0 2 0 14.579610098281801 -2.1852623173613615 10.640533665414154 1 2 0
1138 0 1 0 -8.025660792888118 17.65981573166232 7.919557472140541 4 2 0
114 0 2 0 4.7093396907665195 7.284570696994638 5.985030923447203 -1 -2 0
1074 0 2 0 5.807712826719603 13.039438150595327 0.4589413398730573 -1 -3 0
593 0 2 0 -1.9568955573894562 19.513115524067114 2.6848047816839915 0 -3 0
1476 0 2 0 2.4612977354256116 15.324812899537472 9.690528175005083 0 -1 0
170 0 2 0 0.2860794570950462 13.567300124994226 8.800139024964672 -1 -1 0
592 0 1 0 6.9348253389708825 -0.9555422872830927 2.3441030992557215 0 -2 0
834 0 2 0 6.004880135353304 17.979665743939545 4.294841132846707 0 -2 0
1029 0 2 0 8.516316224630403 7.918360841781968 8.466656119972802 2 1 0
1092 0 2 0 0.00818657205507476 11.399734723171278 0.19338302712677558 1 1 0
1589 0 2 0 -0.9991491990081771 18.878368148089134 4.91905497796015 0 -2 0
507 0 2 0 3.192934050932721 18.49962092886065 3.008509953097922 0 0 0
943 0 1 0 4.989952652592566 13.627914599283438 10.699971431592603 0 -1 0
718 0 1 0 3.4648864914421176 15.24796573333626 1.4800095548860082 0 0 0
428 0 2 0 8.234858259284046 5.567542425049709 1.8264225735962882 0 0 0
769 0 1 0 -1.796650199583665 5.229150058352471 11.314548495037162 0 2 0
919 0 1 0 0.6318128900311127 5.697216694041917 3.384961246062324 1 1 0
896 0 2 0 -5.456694666193989 8.684503922367572 15.005646606829206 1 1 0
837 0 2 0 0.24372737993950072 6.82161330765147 13.644598770691708 3 1 0
1209 0 2 0 4.7875573621028105 0.18621222418055638 0.9461426899386176 0 0 0
958 0 1 0 -0.5350507723383895 9.440291159422763 12.635385146399127 0 -1 0
1080 0 2 0 6.111915524947939 13.555243353616024 12.997777452047561 0 -2 0
517 0 1 0 -1.9386311619535272 6.898174291417339 8.663823833323516 2 1 0
772 0 1 0 4.868902641021454 3.874486050458867 7.147941183909046 0 -1 0
823 0 1 0 4.7059020928176905 9.497828928105346 8.709022781600725 0 4 0
2258 0 2 0 -2.587163129553342 6.883033246607013 13.43861377871326 0 -1 1
864 0 2 0 2.2888918812970163 10.929170609764373 8.254402061527705 -1 -1 0
2293 0 1 0 4.887462789649766 10.78538808804733 14.352867573149966 1 -1 0
689 0 2 0 9.745933501894894 5.6267214452399825 5.151588032352356 0 1 0
416 0 2 0 -1.2262059912147578 6.715199144774717 6.969631579064979 0 1 0
427 0 1 0 8.255812874386741 6.464294039914985 1.4500570732038636 0 0 0
1056 0 2 0 9.429885002198796 1.8370728921288735 7.583687130717605 -1 1 0
934 0 1 0 -3.352663337860694 12.046927018927825 1.7325427379007956 0 -1 0
1280 0 2 0 -6.2534512630688095 15.33690519407899 9.16235325832968 0 -3 0
372 0 2 0 5.193620238453318 2.3569693332916475 0.7363784913406548 0 4 0
524 0 2 0 3.3938403352144246 14.2421453662525 13.905652113291723 1 0 0
347 0 2 0 7.634418582230201 16.12819556385208 2.7364675347204384 -1 1 0
1146 0 2 0 7.98313788409974 2.911266780653925 2.8008657308413105 0 1 0
1590 0 2 0 8.02927417779436 -2.31422883824038 6.516745562043208 0 -1 0
824 0 2 0 3.802090662113676 9.774206043246664 8.542887560210197 0 4 0
688 0 1 0 9.459719755167846 4.722985997614021 4.828154487818593 0 1 0
1052 0 2 0 -3.4943914685907354 15.50358725295936 2.804644918458878 0 -1 1
945 0 2 0 4.963707348762815 14.132364488233007 9.854044149764634 0 -1 0
279 0 2 0 2.342273906117168 -0.36075202959620833 6.147987058428476 0 0 0
655 0 1 0 -1.288273419833041 17.848893949074625 3.404008045071569 0 -3 0
59 0 2 0 -2.055783731967426 5.017501216103272 1.965556858772572 2 -2 0
2509 0 1 0 2.353318979853125 12.61574970171929 1.5838424142120924 0 -1 0
78 0 2 0 -3.519802804277579 8.928591186668182 6.835104666095185 2 -1 0
575 0 2 0 4.553657579203933 0.5859526515542404 4.786820930841486 0 0 0
1305 0 2 0 -7.85062757686829 18.044585195110635 3.949798502884801 1 0 0
277 0 1 0 1.736079400831882 -0.4232431352753121 6.874272495124815 0 0 0
1082 0 2 0 11.158975192471376 -1.0388976148361266 7.465801514087721 3 2 0
104 0 2 0 -2.180338169749705 17.30285431298177 5.591388174935795 3 1 0
470 0 2 0 6.232839925992552 3.915235660802383 3.628564673973929 2 -1 0
637 0 1 0 13.595360946194065 1.57659521790427 1.0210548328378182 -1 0 0
336 0 2 0 14.086975792205367 -4.360214873757557 13.547094510981655 0 0 0
280 0 1 0 5.314714345904167 0.9523963745695037 10.935937540294024 2 -1 0
198 0 2 0 1.779926877683074 6.477597558026389 8.11297883781482 -1 -2 0
705 0 2 0 -0.6114322072176076 9.062919864902575 9.926732322720772 -1 1 0
1087 0 1 0 0.12196757979918679 1.842324806816912 -0.5660448624984931 1 1 0
103 0 1 0 -2.6682474222557957 16.67432286671469 6.176970934423173 3 1 0
141 0 2 0 -1.630710662450466 7.600505123825683 2.4946351166336442 2 0 0
883 0 1 0 2.7762081288543032 9.966419478912751 6.806648518886212 1 -1 0
975 0 2 0 3.5936247226934035 9.268736253389912 0.426261039153367 0 -3 0
1304 0 2 0 -6.808267747541387 18.130142968486492 2.7997583904809855 1 0 0
411 0 2 0 -0.7104170132842181 2.255128836113844 4.695204459136245 1 -1 0
1171 0 1 0 8.508567333861485 10.366012598085964 0.39585305895339506 1 0 0
1722 0 2 0 14.943877143441068 -0.874513221587581 1.7608224370782533 2 0 0
268 0 1 0 -6.102695731060518 16.33981899893931 -0.6711550926453985 1 0 0
1062 0 2 0 0.6964116023355221 16.013519791528477 2.019819261546531 1 0 0
1088 0 2 0 0.62641685369409 2.674881578821892 -0.4862833730083418 1 1 0
1481 0 2 0 -3.792960557601738 10.227326669721073 11.967446566200874 1 -2 0
968 0 2 0 -2.907007083796479 13.053961494798278 6.844682078029198 1 -1 0
1202 0 2 0 7.007888221488119 0.7456499164874728 13.865010637103026 2 2 0
426 0 2 0 10.6711777818238 -4.070509282150292 15.304387341965136 1 4 0
860 0 2 0 6.283489127749427 15.890859024127982 8.756478555837946 -1 -1 0
1122 0 2 0 -0.8090654151363192 11.690326226373754 9.84030594601043 0 -2 0
926 0 2 0 3.2019136631973657 0.12296166287654309 10.28122472407785 1 1 0
1250 0 2 0 -1.6427195437370343 7.626001975896557 4.663504864785177 1 -1 0
951 0 2 0 4.130873541597342 -0.41856556235294406 6.165550538645398 0 0 0
330 0 2 0 8.947379003605315 12.296260945360343 0.24634525341665325 0 -1 0
1077 0 2 0 -1.7257887713655444 19.906940994249606 -0.597315891607586 1 1 0
1060 0 1 0 1.0940717758333611 16.507659224025982 2.7542826369074924 1 0 0
241 0 1 0 6.268784382185093 14.674618863242817 6.073769783511147 0 -2 0
373 0 1 0 11.241944662494618 3.0592845502030594 0.4747487437648128 1 0 0
806 0 2 0 -0.7350882154191328 14.568292886651573 0.617522833155564 1 2 0
1290 0 2 0 2.843097780015433 -0.27080161407782777 5.056767841096942 0 0 0
1187 0 2 0 7.96732168159838 4.618769570109011 9.530316103375183 0 -2 0
356 0 2 0 2.8160636130926253 8.323000600639233 3.9716308591604212 1 1 0
636 0 2 0 3.710605233490594 5.563842583405913 2.9085318995145704 0 2 0
865 0 1 0 3.103728391838435 4.28994979433302 4.290472425456073 0 0 0
949 0 1 0 4.6641291970031435 -0.18146416981997326 6.952402652242819 0 0 0
459 0 2 0 11.932744915908188 4.561614555645897 10.519308068195901 0 1 0
95 0 2 0 -0.25257551234678643 13.895740689844748 2.8153387924825988 1 2 0
184 0 1 0 6.386652764054886 5.457912258290787 10.773014163927071 1 1 0
628 0 1 0 8.668257478052357 7.285053877321127 11.245562394081004 -1 -1 0
851 0 2 0 -7.107447451984694 16.681209037933453 10.64221445130254 0 -1 0
122 0 2 0 -5.363996264135757 13.557130370642161 4.982943848735434 1 0 0
261 0 2 0 -2.8767989823163256 10.427345739658541 4.878691290488436 -1 -1 0
417 0 2 0 -1.5793916958525136 5.799902224443178 5.80025451717631 0 1 0
2481 0 2 0 2.638310894764497 13.0392536884147 -0.30552181005033885 0 0 1
1592 0 2 0 -2.2624559060538822 16.631948690779012 0.8379806993070116 1 1 0
1626 0 2 0 1.5575068064354634 14.79802440196363 12.6662505906969 0 -1 0
1023 0 2 0 12.959806720750544 0.7729355230337955 5.135173322165244 1 0 0
774 0 2 0 4.626254841087241 4.7586365804019835 6.8163627036968535 0 -1 0
1671 0 2 0 8.764002664490311 1.1641307787447073 0.6299085422230737 2 0 0
12 0 2 0 12.041948587315375 3.113289473812327 3.630602429279344 0 0 0
936 0 2 0 -3.0941993930644798 11.896773543417403 2.6709254457951777 0 -1 0
1173 0 2 0 8.276934924291742 9.664313886551854 -0.23871691789434657 1 0 0
1532 0 2 0 5.482986688113826 7.956898855609464 12.794427428277151 -2 -1 0
1296 0 2 0 0.3771109669169973 7.95202731208867 11.302995449031371 -1 -1 0
867 0 2 0 4.013785926397849 4.378814306506535 4.537246886598527 0 0 0
1053 0 2 0 -4.103277158428769 16.15806397585609 4.047669467124895 0 -1 1
188 0 2 0 3.5734273808786585 5.966245510036891 12.472675319494295 -1 -3 0
1459 0 1 0 4.4443372619702135 11.937405436435036 3.1357330823163245 1 0 0
2294 0 2 0 5.322752311286966 10.186162996325727 15.01542922283674 1 -1 0
62 0 2 0 5.996468892007859 7.7725276536808545 8.011309291386162 -1 -1 0
254 0 2 0 7.848494988936323 13.892522138175911 3.6282913725657258 1 2 0
22 0 1 0 13.229915200069078 1.8548846617023567 6.5660339452145156 -2 1 0
471 0 2 0 6.260537402706789 5.313662973301024 4.294171996262401 2 -1 0
980 0 2 0 7.9729489666380555 -1.675540954420677 15.367308466436356 1 2 0
1295 0 2 0 1.3748639330429788 7.373057691682935 10.247358372379736 -1 -1 0
465 0 2 0 0.29669964409325444 3.7198740859403143 5.824299070287095 2 0 0
296 0 2 0 11.462571995213763 2.1250588359385265 6.242825788283316 -2 1 0
594 0 2 0 6.275943365689313 -0.6502559167160824 2.9566428314762043 0 -2 0
298 0 1 0 3.0445188171539974 0.8741951994030419 13.064735296537803 -2 -1 0
409 0 1 0 -0.8816419793483935 2.7038661422768637 5.529160681922964 1 -1 0
561 0 2 0 -1.9537883755352659 12.507530158976603 0.7825521175421322 -1 -1 0
893 0 2 0 9.148603749396925 1.2861233069448048 5.0824984602161765 0 4 0
1593 0 2 0 -2.6028204125154777 17.96208439479656 0.1487023494509494 1 1 0
656 0 2 0 -0.5143567026840299 17.29045362229612 3.161062991675446 0 -3 0
1066 0 1 0 -0.3595166536805508 10.490977419819124 3.0419548365398636 4 3 0
862 0 1 0 2.0173120975951404 11.160111209196675 9.184069280957939 -1 -1 0
1150 0 1 0 11.692492515691512 2.428459203936618 10.115385098062989 1 -1 0
1624 0 1 0 1.5930149179443938 15.270618037275561 13.492078419264638 0 -1 0
58 0 1 0 -1.361725734579843 4.377883985048137 2.014795889424182 2 -2 0
460 0 1 0 5.625189771816726 20.187104777180394 -0.08335347495924195 1 0 0
996 0 2 0 -2.6373739032925276 11.116822220495262 13.454397393491885 -1 1 0
1068 0 2 0 -1.2535862185600362 10.171331975702346 3.385679466567196 4 4 0
1067 0 2 0 -0.3103288330056495 10.418001409251364 2.0606915765486433 4 4 0
1099 0 1 0 11.71095265551632 -0.6162028854309705 1.1022905169922048 -1 2 0
1629 0 2 0 13.062344226391934 0.029454050450048452 9.054134467538505 1 1 0
33 0 2 0 6.760111095384995 17.32837880869135 0.7660062443855229 0 2 0
505 0 1 0 2.8603387922999497 18.340518924599255 2.105367136527468 0 0 0
366 0 2 0 -4.271981256796914 16.26455978151961 9.324535441283999 1 -1 0
462 0 2 0 6.441631265077422 20.02024653435857 -0.5896322631195149 1 0 0
1303 0 1 0 -7.734523908281744 17.79485203845128 3.023904025205057 1 0 0
973 0 1 0 2.7060646318397694 9.23823759459565 0.870133598671001 0 -3 0
118 0 1 0 0.10249596057261656 -1.9800533154288271 11.014013357300197 1 2 0
1085 0 2 0 1.568699090454706 0.24378627184232804 2.2519403669221956 -1 -1 0
681 0 2 0 1.4276705799437084 -2.5086921665828266 14.4774037078407 0 2 0
1627 0 1 0 13.866895688686656 0.5125400724214266 8.787243012735566 1 1 0
2366 0 2 0 5.393934355744814 8.726729111590915 -0.22295563161679566 0 0 1
362 0 2 0 12.19301801850758 2.1020236734034876 14.745994677414688 1 1 0
410 0 2 0 -1.7591107609868744 3.1804317414973933 5.465727975087249 1 -1 0
657 0 2 0 -2.121477892377771 17.348362307246475 3.2937831183339643 0 -3 0
1408 0 1 0 14.043624948072202 -1.5613291041178075 12.213977388283688 -1 0 0
504 0 2 0 6.731955573358694 7.365335463514357 1.314867412727966 0 -1 0
522 0 2 0 -0.8196568281463955 12.851962062322944 13.302344667738865 0 -2 1
1081 0 1 0 11.147221295532088 -1.6567196966657276 6.7244151437929665 3 2 0