LAMMPS data file via write_data, version 23 Jun 2022, timestep = 120513000

2592 atoms
2 atom types

0 30.957001 xlo xhi
0 21.340725 ylo yhi
-0.8814506256755603 31.746614642252247 zlo zhi
-9.151055 1.062088886692911 -10.801377717621389 xy xz yz

Masses

1 1.008
2 15.999

Atoms # full

484 0 1 0 7.378746334094525 12.252432636174271 7.296260194055044 0 1 0
259 0 1 0 2.8209532007263585 14.511757530076414 1.0333285716466383 -1 -1 0
135 0 2 0 8.807834085309423 5.226363591210283 1.377692001271599 -1 1 0
820 0 1 0 -2.5437300857783782 13.350785099519044 0.895446467902347 0 0 0
642 0 2 0 -1.7677844708893151 14.148581163310432 7.357971274526454 0 0 0
1040 0 2 0 6.278023351729998 -0.8086228384331688 10.501829211699148 3 0 0
560 0 2 0 0.9994812852291312 12.50451169882491 3.1090154016675005 -1 -1 0
223 0 1 0 3.4523241496525245 4.897019611746188 6.8541928513730195 0 1 0
58 0 1 0 7.322742498851773 7.917802459804531 12.505153162247666 1 -3 0
93 0 2 0 -2.9713485437840776 7.493281554819056 12.934456905313816 0 1 0
541 0 1 0 -1.2157539967243154 13.36225067491172 4.497337500264143 2 -1 0
872 0 2 0 2.4730331952399087 8.317452666943826 11.80365223651766 1 2 0
685 0 1 0 8.489273116848134 9.154418230546401 14.771180922036496 1 2 0
971 0 2 0 -0.7855028945838892 15.733225042431288 10.15854125165509 0 1 0
297 0 2 0 5.619861812061377 15.297669441794707 11.595560519987862 -2 0 0
87 0 2 0 3.286397746060991 4.549627340063136 14.621144714054834 2 3 0
520 0 1 0 -0.12383275264322013 14.34523972781555 15.337290760148013 0 -2 1
856 0 1 0 -0.05417081070011698 3.5960168555971856 6.890780090381002 1 1 0
829 0 1 0 9.778932245325013 4.24804921625104 7.830010155857822 -3 -1 0
272 0 2 0 0.05014770322384654 -2.288770629207023 11.532434825762166 2 1 0
365 0 2 0 2.1408133142850754 -1.498537398916954 12.046736044382918 2 0 0
619 0 1 0 -1.2115080083364584 1.0124844043111478 6.7717257566726845 1 -1 0
328 0 1 0 8.175251087365623 12.945241799355017 -0.03601776693828951 0 -1 0
462 0 2 0 5.712826010462002 20.187057167793903 -0.5974634908051828 1 0 0
115 0 1 0 3.917809138248681 14.004525129714441 13.177476276787408 -1 -1 0
821 0 2 0 -2.0933141421171437 14.201657162243182 0.9408296160124745 0 0 0
672 0 2 0 11.77723303994592 -1.6795183714600501 12.315366626872581 2 -2 0
686 0 2 0 9.026723359369154 8.415729818263369 15.098395011897482 1 2 0
67 0 1 0 0.25404928401982285 10.434111034162386 13.794080590323434 -1 1 0
990 0 2 0 -0.14679686947097 1.5650865465234272 4.061179126537229 1 2 0
1076 0 2 0 -2.5162290113359806 20.309356577989956 0.37533284058318217 1 0 0
1161 0 2 0 3.4680394911682897 -4.212517242068468 14.881603449120338 0 1 0
960 0 2 0 1.9401551452080223 7.506985188396298 8.297754646876738 0 -1 0
225 0 2 0 2.9650834885495687 5.387879986140414 7.522237799300166 0 1 0
681 0 2 0 -7.894333898929867 14.769849001782326 14.159511258779103 0 1 0
996 0 2 0 -0.4388762920813876 0.6724855761434765 10.167659290989507 -1 1 0
453 0 2 0 -4.2315657729295015 10.08693275723644 10.938918723340164 3 -2 0
506 0 2 0 4.670927448548918 16.452062930800768 -0.5917061411038955 0 0 0
1123 0 1 0 6.831991789516333 2.0520562671073623 3.025578719667405 0 -1 0
517 0 1 0 -4.740638843548899 11.093921640165862 5.923368667864582 2 1 0
1074 0 2 0 0.8920406000690122 15.591795750553443 3.4854346752481433 -1 -3 0
518 0 2 0 -4.643687785511643 10.825485060578512 6.840431406147041 2 2 0
295 0 1 0 5.504267135244341 16.20288391130687 11.296839548694614 -2 0 0
824 0 2 0 11.128237080855039 0.8518717710761239 6.613972115906321 0 4 0
1711 0 1 0 8.491455387304294 -1.944207094717547 6.507944406231543 1 1 0
282 0 2 0 -0.42485200536949375 17.74980541531703 3.734234944036115 2 -2 0
553 0 1 0 4.109583797055849 3.4273024604420335 9.728208842972874 1 -1 0
1216 0 1 0 8.255970203676082 11.100123960642536 12.143541679151037 1 2 1
1650 0 2 0 13.743547578224918 -2.7376479611282725 13.494898721627404 2 2 0
874 0 1 0 4.877515984530343 6.889774825754837 12.947459821027554 1 -3 0
483 0 2 0 -1.8534365610668644 9.999149443655455 7.30595009132335 -1 -3 0
781 0 1 0 -0.7590388201557452 8.73445218296817 4.170630206001988 1 2 0
1131 0 2 0 3.4118482054675923 2.519949315289913 14.064402734937785 0 0 0
1453 0 1 0 1.2902382765237705 0.14973681812289852 1.4804881123108173 -1 1 0
957 0 2 0 9.900579996865279 5.702603924319248 11.847203429465726 1 1 0
1173 0 2 0 8.792960053382242 9.872927250567729 1.6979990607001634 1 0 0
958 0 1 0 1.7558604993088758 6.6872762193924435 8.745799579189251 0 -1 0
330 0 2 0 8.386452131863859 12.022610714634128 0.21510518612011786 0 -1 0
2329 0 1 0 -2.906987532249087 9.069251705380081 -0.2585645096666451 0 0 0
269 0 2 0 -5.94370418729425 16.95395637494739 -0.5236266541653838 1 0 0
9 0 2 0 7.704755637120608 17.539801165713335 1.3641080258898155 1 0 0
117 0 2 0 4.259750705308817 14.801783404484665 13.612961482967824 -1 -1 0
927 0 2 0 7.754635365562063 0.8134950469155036 8.459436448615271 1 1 0
793 0 1 0 1.131619252038367 16.114838273200405 -0.5220509045916222 0 0 0
1092 0 2 0 -0.056992308248449475 13.384708055589854 -0.5394804746935021 1 1 0
482 0 2 0 -1.7396497576813836 8.738787674279765 8.267914022018854 -1 -3 0
426 0 2 0 5.322044893839904 -2.0461153358217143 12.17729587701623 1 4 0
21 0 2 0 -0.854012397239304 6.92218246231155 1.0730252794775879 2 -2 0
409 0 1 0 -1.5270033169449209 10.973996245712748 1.9383940619801647 1 -1 0
344 0 2 0 3.7272069224281026 11.094604867289647 6.0917633394045945 2 -1 0
198 0 2 0 4.1416429494575135 15.493672675258587 2.8826379440455177 -1 -2 0
18 0 2 0 6.962661093270471 4.678359482461215 4.762568138910056 -4 1 0
362 0 2 0 11.026617854018165 2.3881898102556702 13.739223559797251 1 1 0
1163 0 2 0 6.609581044024095 2.765740819287632 7.469365556566014 -2 -2 0
1495 0 1 0 -5.322501675626524 13.794206291922958 6.155421501060339 1 0 0
1690 0 1 0 6.272422204352265 2.462005026239028 10.928562593196476 1 0 0
239 0 2 0 13.841023340536111 1.1848482421929707 8.754321592408663 2 4 0
171 0 2 0 5.554575191745751 5.052044333297476 13.58531371427947 -1 0 0
786 0 2 0 4.282500523935822 -0.2645258714368859 4.7415105750351545 0 0 0
2460 0 2 0 -3.5198846391681973 15.844594336658949 -0.6891836225625951 0 0 1
358 0 1 0 -2.153685014012921 6.0022707043987955 5.354987118444819 0 0 0
1448 0 2 0 7.7038948585077085 12.44639535780837 5.177737099590666 0 1 0
8 0 2 0 6.648716764988216 17.01512340933888 0.4257228081382143 1 0 1
497 0 2 0 2.7311904308544355 16.187475923074402 10.141386155868974 0 0 0
574 0 1 0 4.9169120767629275 -0.45541817166744414 7.244809735291076 0 0 0
645 0 2 0 8.491450288026444 2.3778215574481285 10.105355737712634 0 0 1
1073 0 2 0 1.3617638042247706 16.905974403594474 2.8487315143455567 -1 -3 0
973 0 1 0 0.3628564921632109 10.012663801066157 0.12257440501188777 0 -3 0
155 0 2 0 2.0524845495076987 14.931084710066987 5.757286517739527 -1 0 0
182 0 2 0 4.275460802650222 -2.6183330584562685 10.23061914543899 -2 1 0
167 0 2 0 10.25027314785812 -2.2969416849154967 9.793173359223985 1 -2 0
735 0 2 0 -1.886701913216213 10.348594100423183 5.165291231513701 0 -2 0
449 0 2 0 -6.487227210334371 17.15619907570685 2.7426213697487345 1 -1 1
825 0 2 0 11.020838184428536 0.2348655808332789 7.943782382726635 0 4 0
278 0 2 0 2.5555930544370002 0.10457777152187742 4.767503717594785 0 0 0
63 0 2 0 -0.7596237105454262 14.994973246436505 5.551179978787012 -1 -1 0
629 0 2 0 7.648601426052623 0.32515635502194673 12.919991430527688 -1 -1 0
637 0 1 0 12.851195556068483 1.1230539285965713 1.2572718013872106 -1 0 0
395 0 2 0 9.351324913646721 8.461631047672295 3.75394537493948 2 0 0
421 0 1 0 5.609923569206174 6.19278027361058 8.363823658644495 0 -1 0
790 0 1 0 3.1283248105459736 9.141341795142624 3.4466579386399223 0 0 0
1167 0 2 0 8.287406188770483 -0.351608045270956 5.353657554395221 2 2 0
623 0 2 0 -0.1536569717200486 2.686957561736352 13.571673219591142 2 2 0
2294 0 2 0 12.180386861028788 5.922969903353166 3.508890517537959 1 -1 0
1288 0 1 0 3.904599966112781 1.787957608291232 6.119439625124942 0 0 0
885 0 2 0 9.04967396243966 7.121271604862844 8.323005439949211 1 -1 0
836 0 2 0 -0.16731716030868393 12.159343416288834 7.274734705212891 3 1 0
554 0 2 0 4.781971822717046 3.3404424640147985 8.984492041250643 1 -1 0
988 0 1 0 -0.7218574865631499 2.296189461205638 3.8524744277010203 1 2 0
392 0 2 0 1.7074306625198545 8.948190604568945 0.7800535914118734 0 2 0
873 0 2 0 3.4246483323582217 9.511788386530991 11.926532427297387 1 2 0
1115 0 2 0 0.5684548716026404 9.312222072006275 7.043155901904725 -1 1 0
2295 0 2 0 11.426915857720623 4.683256314509924 3.9180108567987464 1 -1 0
1244 0 2 0 -3.3378570553304043 16.57264672401175 4.223084652620271 -2 0 0
154 0 1 0 2.048719805058997 14.944217895258966 4.754231231458542 -1 0 0
785 0 2 0 4.2739628367762545 0.4361653379787478 4.425245553803724 0 0 0
770 0 2 0 4.091948010632576 3.4786688205589975 12.16505407420625 0 2 0
756 0 2 0 5.017815025609144 4.5854092868266605 3.1491015947673624 2 3 0
360 0 2 0 -2.165555933701193 5.108521808018984 4.986910129603885 0 0 0
1624 0 1 0 6.64160371382065 15.039291603996988 8.67327075102627 0 -1 0
773 0 2 0 1.4971009394450734 13.689748890179287 7.647414092111681 0 -2 0
92 0 2 0 -2.595545930656306 5.983933428644288 13.189047265508458 0 1 0
1085 0 2 0 2.8199551831768392 1.803178771201002 -0.3476030799708847 -1 -1 0
926 0 2 0 6.312233143602872 0.17317318373473967 8.452859929264424 1 1 0
439 0 1 0 6.019369190952164 8.59971009131146 5.849440709233615 -1 -2 0
915 0 2 0 8.31461717975403 -1.88184632756322 10.91800990917006 0 1 0
503 0 2 0 5.538828472444966 7.92124117639716 0.6650073244478254 0 -1 0
329 0 2 0 7.943994137199091 13.468416870350927 0.7211771464234682 0 -1 0
782 0 2 0 -1.1051938609826082 8.610452737713189 3.247591404743674 1 2 0
784 0 1 0 4.961735311348689 -0.08228541930696598 4.084176809203976 0 0 0
741 0 2 0 -4.1913159798993105 8.429340110567896 7.553886840473298 -1 1 0
831 0 2 0 9.517988564459353 3.7363837186277222 8.634059391000433 -3 -1 0
143 0 2 0 4.97604697976056 17.495356733662927 7.791260934194623 0 -3 0
639 0 2 0 13.54714331851501 1.1271494464065248 0.530560880043172 -1 0 0
654 0 2 0 6.565723663569618 10.50028888922265 10.97192510581059 1 2 0
423 0 2 0 4.995364088346592 6.877056379841242 8.696444441468195 0 -1 0
1116 0 2 0 2.1608828240341724 9.471660695957562 6.578416754364069 -1 1 0
199 0 1 0 12.58106396606517 2.9690655250657314 8.877690857719603 0 1 0
1030 0 1 0 0.9719135440043281 10.899630911950064 4.200446807854061 4 0 0
981 0 2 0 8.775216026220024 -2.3937795587644617 15.339888449235913 1 2 0
875 0 2 0 4.7108323882603855 7.458604885665964 13.707243321553225 1 -3 0
245 0 2 0 4.775926967161292 11.672591401153355 2.3516627833829378 1 -4 0
1434 0 2 0 -3.1970428130999595 18.044307005344344 7.414351312940054 3 2 0
77 0 2 0 0.774594287444231 4.494320418828487 1.9076698097672273 2 0 0
577 0 1 0 -3.7271991693073194 9.418231230528905 2.952128692036123 1 3 0
499 0 1 0 -4.7921874047664925 14.613450537484004 1.5647655322723502 1 1 0
1101 0 2 0 11.82449275091292 -0.29743098948108776 0.8059961809991909 -1 2 0
345 0 2 0 4.80998760052587 9.989748546526814 6.390279237508461 2 -1 0
1588 0 1 0 4.135988643620172 8.520541031275787 8.780440650152478 0 -2 0
318 0 2 0 5.618294765733293 12.808854659126133 13.469981688473826 -1 -2 0
1096 0 1 0 5.684902741627908 0.5202649329842277 15.199022420711222 0 1 0
2428 0 1 0 10.277312813834273 7.973501471598761 1.1772682650561284 -2 -1 1
485 0 2 0 7.509030162583076 11.284130832420555 7.44850429270134 0 1 0
1087 0 1 0 0.1680839915457698 1.802634658471321 -0.2263251864258906 1 1 0
116 0 2 0 3.105381204687879 14.231939763622567 12.623623569910889 -1 -1 0
1556 0 2 0 -4.158973246155467 14.830233872644948 3.4054354002571436 -1 0 0
1048 0 1 0 6.244783310890538 18.964127902548313 4.73063738356646 0 0 0
1475 0 2 0 8.689652075472626 6.220548718180283 4.401366077798359 0 0 0
624 0 2 0 -0.0026474557974885404 3.9829383463080834 12.75230881743476 2 2 0
547 0 1 0 3.9657163101067407 5.108432509265146 -0.2876501133082746 1 4 0
561 0 2 0 0.4111554279975518 13.061989317261016 1.7853284055042633 -1 -1 0
1144 0 1 0 0.0447834369726578 14.260451245431506 9.416347932081562 0 0 0
525 0 2 0 5.949205294006529 15.500102427372465 14.930906307021305 1 0 0
1309 0 1 0 8.763078845675889 3.4372747391197978 13.788181307049896 0 0 0
974 0 2 0 0.13508380143194643 9.444286741876219 -0.6089885024832739 0 -3 0
622 0 1 0 -0.5661521836244405 3.5262035292953273 13.439256649484992 2 2 0
64 0 1 0 -3.8843424417425316 8.036908040976499 5.341951945872492 1 0 0
1447 0 1 0 7.620897044666402 12.301507301639148 4.228288109891689 0 1 0
643 0 1 0 9.23778252600398 2.9096123954721937 10.19109187989693 0 0 1
1692 0 2 0 6.569755861006451 1.8081262707691308 10.247947717796254 1 0 0
165 0 2 0 -2.88308102388216 16.298429052687723 6.216041051633387 0 -2 0
410 0 2 0 -1.9823579849136281 11.753514676928429 1.5053343586736423 1 -1 0
552 0 2 0 10.1209634652709 4.283520428863901 15.328751218756823 -1 -1 0
644 0 2 0 9.035376830260715 3.6768290464205817 10.780401471127552 0 0 1
1086 0 2 0 3.280629394315606 3.237760439646742 -0.17377340087379023 -1 -1 0
1122 0 2 0 -2.726319353843078 13.783223702787629 11.116990631887502 0 -2 0
1677 0 2 0 2.365026687662171 0.43336004100386516 6.661192893444686 0 0 0
103 0 1 0 3.840986982842389 17.25089517142346 6.683697901828556 3 1 0
1218 0 2 0 8.901796647202719 11.134362133144817 12.834489485088957 1 2 1
858 0 2 0 0.42262371576205104 3.963406734004405 6.138869492079142 1 1 0
375 0 2 0 11.390699655041171 2.00622903192669 0.5832722009463367 1 0 0
78 0 2 0 1.5035056317314055 3.146097085189419 1.6130042699644722 2 0 0
734 0 2 0 -2.9518141760095116 11.275309992159158 5.614536692140754 0 -2 0
219 0 2 0 3.60383823375308 1.6037545180739303 10.25444177251148 -2 0 0
396 0 2 0 10.45610924219363 7.896636486174412 4.581729066530954 2 1 0
934 0 1 0 -3.315419953478746 9.094551026398308 13.78711977299886 0 -1 0
1121 0 2 0 -4.087998346583583 13.532731118842445 11.979243676115278 0 -2 0
19 0 1 0 -1.4688280830569829 7.465968904625127 1.698550623057773 2 -2 0
1109 0 2 0 -2.1959970779621365 3.9207960666053294 14.05740118800861 0 0 0
779 0 2 0 11.49247487836519 3.785120360760507 11.753196298574261 -1 0 0
980 0 2 0 8.066883203803345 -3.409787458595549 14.498820765430585 1 2 0
701 0 2 0 -0.8043046522648065 5.137696829186723 8.106201098541549 1 2 0
496 0 1 0 3.3280056001946554 15.965088970272227 9.433879468878139 0 0 0
7 0 1 0 7.510210197909247 16.74927025837088 0.8131472520229777 1 0 1
893 0 2 0 -0.6758557836798937 16.04031221848968 1.7003148955403566 0 3 0
1090 0 1 0 0.5833277648233245 12.85297034151389 -0.0025518329908897908 1 0 0
925 0 1 0 7.108282791108965 0.4208726666602547 9.03145169102061 1 1 0
1011 0 2 0 10.878718753016674 0.6248404330926947 3.2244805803386365 0 0 0
542 0 2 0 -1.4410715367870097 12.434431110124375 4.781106146379567 2 -1 0
641 0 2 0 -2.8787288933384896 13.267160709416535 7.977221231303618 0 0 0
917 0 2 0 -6.458475152515293 17.129943005558353 6.260068662440188 -1 0 0
91 0 1 0 -2.5343456604191097 6.699616747020814 12.558738430517252 0 1 0
718 0 1 0 8.487688650006568 -1.0600835647339317 12.399943256871344 0 1 0
1041 0 2 0 4.782437706458254 -0.4827720966164448 10.763898885954848 3 0 0
1454 0 2 0 1.667388387416425 0.6217525341381087 2.2493815040678546 -1 1 0
133 0 1 0 8.449693547468115 6.047760882192031 1.0012415718553762 -1 1 0
102 0 2 0 2.3839454323862217 7.476566357031381 14.705528227420936 0 0 0
1476 0 2 0 8.297863174653887 5.947560564554463 5.924930508447273 0 -1 0
22 0 1 0 4.545112111822809 9.719445140813662 14.125942874733614 -2 0 0
852 0 2 0 14.424698645196786 -2.4614892657772676 9.700534892624457 0 0 0
432 0 2 0 6.405442067401219 1.8595117697193717 -0.2247162193663933 0 -1 0
1004 0 2 0 11.737628464311292 2.7823501336142686 5.535189403982033 1 3 0
125 0 2 0 6.799729442485286 9.741733651386127 2.922477714483244 2 1 0
1075 0 1 0 -2.6670303536114495 19.934068191196108 -0.49461117828289264 1 0 0
1669 0 1 0 8.695189784214094 0.07882045189258646 0.9611028248874933 2 0 0
1281 0 2 0 -6.782849968744621 16.242350110730023 13.138761681999805 0 -3 0
850 0 1 0 14.06503061957947 -1.745688936712158 10.204894618175361 0 0 0
305 0 2 0 6.514789484458182 4.124518920736016 10.783513110804044 -1 0 0
1519 0 1 0 -6.391869926006836 14.445325809722425 10.237988120942147 0 0 0
526 0 1 0 1.5887404770464686 11.736117209297213 9.922275969300626 -1 0 0
134 0 2 0 7.617112658689679 6.202876552904581 1.3482088445763512 -1 1 0
1084 0 1 0 2.8279051663045296 2.51148690704353 0.3214316251694016 -1 -1 0
1248 0 2 0 7.552275857983696 14.183967769280951 3.0999430722129726 -1 -1 0
70 0 1 0 2.2649478914757637 18.900403638043432 4.951238185048392 -1 0 0
300 0 2 0 0.0031460203571656575 8.08679429920946 11.074304624887684 -2 -1 0
758 0 2 0 -4.348318834959543 17.81837928925689 2.7855615078003315 1 0 0
1032 0 2 0 1.7249076726647379 10.391212809180027 3.85229020693348 4 0 0
1691 0 2 0 6.46590275419807 2.102425636152871 11.820875370850077 1 0 0
1160 0 2 0 3.6314753835440445 -3.3237506471179463 13.615950342181335 0 1 0
837 0 2 0 0.7170224775173354 11.453438591563216 6.137429949609077 3 1 0
859 0 1 0 4.123294468031074 12.006696876508107 11.113835743729137 -1 -1 0
759 0 2 0 -5.145332449146668 18.756803724166346 1.8614405239513792 1 0 0
142 0 1 0 5.721654886689995 17.74755504851702 8.440148366644127 0 -3 0
94 0 1 0 4.558020421999719 6.529170855451279 5.029398960149521 1 2 0
105 0 2 0 3.9312646160941243 16.358723250664863 6.295774833643434 3 1 0
895 0 1 0 -5.313306187941735 11.357684666728279 13.88446359795075 1 1 0
861 0 2 0 4.32600736127704 12.787340016294795 11.644463322143631 -1 -1 0
1213 0 1 0 -2.7654640482925905 14.770546988957083 15.03782537360018 -2 -1 0
95 0 2 0 3.7936512696491747 6.270820769111436 5.5958042204063085 1 2 0
181 0 1 0 3.6398907193332883 -3.2214715775214096 9.802585604736029 -2 1 0
959 0 2 0 2.343154231390808 6.708974964850785 9.513669530323295 0 -1 0
675 0 2 0 0.8563338241972921 7.203219701637979 6.113829700376748 -2 -2 0
1159 0 1 0 2.9920889268481448 -3.7899123617261745 14.160249780388906 0 1 0
950 0 2 0 3.2404705359694685 -0.7833331089746713 5.8706157221607755 0 0 0
897 0 2 0 -6.235965214802081 11.10339899457224 13.83895548926505 1 1 0
733 0 1 0 -1.9980459024206096 11.127047362001399 5.71553488917244 0 -2 0
700 0 1 0 -0.6204377004142652 5.810112616439159 8.791889595835707 1 2 0
1636 0 1 0 0.4642152857718117 6.055719812931314 0.845409510855057 3 0 0
69 0 2 0 0.25920231157232215 9.45674278229779 13.74392667244393 -1 1 0
2367 0 2 0 4.857244912238396 9.67850043218585 -0.7930116686942068 0 0 0
202 0 1 0 -4.749850442817819 13.841561424744725 13.42001114219571 3 0 0
593 0 2 0 6.149594558107341 -0.6388936786407932 2.7977293889933263 0 -2 0
268 0 1 0 -6.103738615100695 16.010015005187924 -0.5063495555778492 1 0 0
1010 0 2 0 9.632217116927857 0.9185006022279718 2.254516461538465 0 0 0
592 0 1 0 -2.426358833717914 20.149912683889514 2.1971056684973944 0 -3 0
1532 0 2 0 1.7410757358887372 3.9715626873538827 3.925277196802309 -2 -1 0
989 0 2 0 -0.16138201427364893 2.9341093936737717 3.4258016019492032 1 2 0
1625 0 2 0 6.110618407336224 14.59786032152398 7.945331577879216 0 -1 0
1589 0 2 0 3.801794581695541 8.94904463637198 7.954848866784609 0 -2 0
1245 0 2 0 -2.407319583431794 17.782895779918686 4.1066605974636365 -2 0 0
501 0 2 0 -5.171612711805412 15.175009974893944 0.8975464046661596 1 1 0
170 0 2 0 6.907741325578794 4.478063104608348 14.174057685031379 -1 0 0
246 0 2 0 4.381940431416132 10.360966131697639 3.004338074290542 1 -4 0
630 0 2 0 6.644362536745584 1.1029609025202465 13.86131799763986 -1 -1 0
507 0 2 0 4.629703023380089 17.994673025057182 -0.44116807023924476 0 0 0
853 0 1 0 12.17206183595982 5.512129223350282 7.2162174703526105 0 1 0
975 0 2 0 -0.41248650787928454 10.110665375880814 0.7472395383514874 0 -3 0
1209 0 2 0 4.377691946547083 -0.17422939963776152 0.8743716441485925 0 0 0
51 0 2 0 11.192595352907786 4.174204530509908 -0.32847370017342137 0 0 0
792 0 2 0 2.8385521820502633 8.560751294571944 2.747035261209976 0 0 0
815 0 2 0 -0.2897579575120341 13.581124385365749 13.554065329256042 2 -2 0
772 0 1 0 2.3820459777259444 14.039862859124698 7.71552145328641 0 -2 0
422 0 2 0 5.923299773255474 5.633125036985076 9.116504877627532 0 -1 0
1628 0 2 0 3.9802398262894356 5.031295960597131 10.328952387105534 1 0 0
1228 0 1 0 11.16132405605826 0.663934447373665 9.538776870678845 2 3 0
1701 0 2 0 9.701660492957554 3.1050932918495775 1.5307786106366406 0 -1 0
1217 0 2 0 8.777137580996824 11.362558663337984 11.311930008211435 1 2 1
835 0 1 0 0.773516997378733 11.793965495957577 7.052424319211418 3 1 0
1311 0 2 0 8.74867049284083 4.204188408757299 13.253202124071795 0 0 0
573 0 2 0 2.1719485632799653 2.45024888783166 12.152733414145096 1 2 0
494 0 2 0 -1.1575860833322804 0.3263283228660532 14.375364827797808 0 0 0
343 0 1 0 3.973891126523525 10.372377613406835 6.699875983939118 2 -1 0
427 0 1 0 -3.990313313886127 15.87662715607708 9.293982283062288 0 -1 0
455 0 2 0 -4.918077803476107 13.028978926415428 8.15524177873303 2 1 0
1078 0 1 0 2.768808647248563 11.690908655151862 14.612692965010908 0 -2 0
1009 0 1 0 10.079885537890782 1.1270171291208706 3.111712270350412 0 0 0
1590 0 2 0 3.583499273277081 8.817313236283045 9.528985711885607 0 -2 0
1091 0 2 0 0.4439712334422001 11.889666143963778 -0.2021533646934197 1 0 0
244 0 1 0 5.134700717149193 11.027676217979115 2.9530698055238767 1 -4 0
1637 0 2 0 0.6303287410388971 5.61101618677656 -0.04459002063712103 3 0 0
658 0 1 0 0.9535042055755829 4.684355510863623 11.235246619481547 2 3 0
279 0 2 0 2.7873742964499018 0.7230820436726126 5.0651103702432705 0 0 0
661 0 1 0 10.179214121316003 8.775939042988462 9.231247277928972 -1 0 0
296 0 2 0 5.127666974073456 16.719291760541815 12.035018393418273 -2 0 0
740 0 2 0 -4.531744505209605 9.118050859924228 8.866808282113455 -1 1 0
236 0 2 0 5.22444831843914 -2.400982634815344 14.910752059823247 -1 -1 0
575 0 2 0 3.96737977302412 -0.23158724745726778 7.27378694246843 0 0 0
795 0 2 0 0.2567829972515214 16.03986738698737 -0.05016486455501368 0 0 0
277 0 1 0 2.1025583496650584 0.759835339087473 4.368015247883616 0 0 0
519 0 2 0 -5.046958748047977 12.017957937103613 6.042677512363029 2 1 0
597 0 2 0 8.368103172933399 1.7044005367024075 6.191997112758113 3 4 0
425 0 2 0 5.793308564033418 -3.360914022321627 12.865188204182031 1 4 0
1410 0 2 0 7.041794326619709 13.619541967079552 15.295775332159055 -1 -1 0
918 0 2 0 -5.859860027370526 18.046430072791708 5.273056148827506 -1 0 0
391 0 1 0 2.340643867534081 8.291848037647538 1.1283226125367336 0 2 0
936 0 2 0 -2.968855546066511 9.02053474499122 14.686589966518367 0 -1 0
1247 0 2 0 7.222748018922441 15.364758322511562 2.1659878056339434 -1 -1 0
217 0 1 0 3.5662791886727216 0.6497782019737426 10.349134978789971 -2 0 0
464 0 2 0 13.550447808674923 -0.7538913366571943 2.7899625500856025 1 0 0
486 0 2 0 6.7020235858324 12.487724427141332 7.92572807282729 0 1 0
883 0 1 0 8.518206263036713 6.6131917237339835 7.683459771544104 1 -1 0
359 0 2 0 -1.2517085699710135 6.235836534385287 5.610553415309432 0 0 0
814 0 1 0 -0.4305819605781025 13.086274377554805 12.732500666784885 2 -2 0
719 0 2 0 9.382343303758898 -0.7398216221115295 12.256367558213826 0 1 0
1171 0 1 0 8.828224028184882 10.351363452490562 0.839623290611601 1 0 0
659 0 2 0 0.8364416725712633 5.606094837494218 10.980294673412331 2 3 0
1310 0 2 0 8.114720160885302 2.766630507402179 13.455348104968154 0 0 0
913 0 1 0 8.268549129960334 -2.4592484082523907 10.141438679429804 0 1 0
705 0 2 0 -1.983253221819058 3.4069209246285093 10.838468660866175 -1 2 0
411 0 2 0 -2.389313686874204 10.566950402489347 2.1404509244552 1 -1 0
1151 0 2 0 13.46730126753382 -1.6487432551699361 7.657085574998479 2 0 0
56 0 2 0 -2.3255897268190875 16.00972389618031 13.599432581725322 -1 -1 0
1172 0 2 0 8.881883818976851 9.629910222512006 0.2846633103536589 1 0 0
860 0 2 0 4.617734336163535 12.154504055129161 10.27875407797394 -1 -1 0
2162 0 2 0 -5.135784395271101 19.269746112355733 -0.6500649231420956 0 -1 0
595 0 1 0 8.35196735536968 2.201590873865037 7.0582864558215626 3 4 0
49 0 1 0 11.288297057599456 5.145301854812495 -0.3646509728335934 0 0 0
951 0 2 0 3.630240994116913 -0.7602371063239628 5.46391985385351 0 0 0
477 0 2 0 8.767056684653317 1.7863938631270821 15.350790911066051 1 2 0
20 0 2 0 -1.9777644432428578 8.017339785073371 1.091833999496725 2 -2 0
96 0 2 0 5.05138787335231 5.682002840103631 5.030502152221885 1 2 0
769 0 1 0 3.3643783726035994 3.893139875211017 12.691452580243805 0 2 0
373 0 1 0 10.810580103304074 2.680856970233588 0.16955805063738216 1 0 0
379 0 1 0 0.238866211317334 -2.662457455710862 14.128753113579023 -2 1 0
1290 0 2 0 3.564453857930712 0.9371393130188204 5.741160399993541 0 0 0
524 0 2 0 14.641852806575546 -4.389365035597795 14.858368409994466 1 1 0
460 0 1 0 4.8035714862570185 19.943340236489565 -0.32392316080617345 1 0 0
335 0 2 0 2.2924981492358385 18.96447981711203 1.5142657245960685 0 -1 0
1130 0 2 0 4.1984873170463946 1.4417437866900915 14.8436271887084 0 0 0
949 0 1 0 3.372826428306082 -1.661864738477022 5.460072432106499 0 0 0
2343 0 2 0 7.7930781235924735 3.5613211521803025 -0.7407518716248991 0 0 1
946 0 1 0 3.65690830061866 12.321998314890187 4.867276232025461 1 1 0
1629 0 2 0 4.002068599091127 6.231704211189281 11.35473516532283 1 0 0
29 0 2 0 1.1543335959144125 3.3228287208747025 8.294277633339808 2 0 0
1413 0 2 0 9.711082386181504 10.70841194630587 9.392392194988028 1 0 0
2449 0 1 0 12.466032595936863 -0.13625030397468318 4.100911561943912 -2 -1 1
261 0 2 0 2.161347457761144 14.253731507016349 1.7100487102384494 -1 -1 0
99 0 2 0 3.899811493542845 12.994846490034206 8.135451546910758 0 1 0
600 0 2 0 1.0656089352087015 14.328449700281421 12.206387507815394 0 1 0
100 0 1 0 3.252595234017002 7.324951052112025 15.168803200709482 0 0 0
916 0 1 0 -5.992375077993273 17.04760491060244 5.395938410121215 -1 0 0
906 0 2 0 10.250259017288451 -3.934109716776555 14.17098106502426 0 -1 0
774 0 2 0 2.3454697448415702 14.69701933294887 8.450321819607092 0 -2 0
1671 0 2 0 8.416955000531846 0.8007461240664027 0.37559752272017954 2 0 0
568 0 1 0 7.782158267335498 9.619253129967046 7.8272196123025 -2 -1 0
816 0 2 0 -0.4495268832945683 12.231666700670512 13.062960967771465 2 -2 0
720 0 2 0 8.540265157554956 -1.6513341349061763 13.179251288552736 0 1 0
218 0 2 0 2.669951323182837 0.32613281988212206 10.462961523045605 -2 0 0
703 0 1 0 -1.6757614152766924 3.5743949490966984 9.969554397477486 -1 2 0
454 0 1 0 -4.413437831743497 12.390499010714851 8.715801191255208 2 1 0
1569 0 2 0 -1.7284952871448853 6.894347215934621 9.430607337206768 -2 0 0
1626 0 2 0 7.55010601670361 15.05318147895364 8.39868553168954 0 -1 0
1649 0 2 0 12.46033176033316 -3.4547072633070477 13.263810261740907 2 2 0
124 0 1 0 7.380154273055006 9.013264263576344 3.2060010021001366 2 1 0
30 0 2 0 1.280002411563502 2.0976205748479297 9.25368214848263 2 0 0
762 0 2 0 7.419951559417273 13.392129489458387 11.165276478373572 -1 0 0
1031 0 2 0 0.19722572651115605 10.308573759206817 4.119516003381241 4 0 0
126 0 2 0 7.029703458455333 8.318646551942686 2.6231150649162314 2 1 0
688 0 1 0 10.233975553334675 3.4108036294210775 4.662834881829086 0 1 0
304 0 1 0 6.465477739694046 5.069393465257869 10.651751091202511 -1 0 0
66 0 2 0 -3.2034911225720704 7.317223745327103 5.440322289327187 1 0 0
1166 0 2 0 8.994937544374183 0.553509946975177 4.2866255937023725 2 2 0
594 0 2 0 -2.127043510068575 19.47165760030776 2.8313510920576586 0 -3 0
1567 0 1 0 -2.542101384679489 7.451266127774304 9.430031239511605 -2 0 0
1557 0 2 0 -2.9851121753793968 14.106002040321759 4.211666525619699 -1 0 0
679 0 1 0 -7.961849632726742 14.661577604912692 15.132517381859044 0 1 0
662 0 2 0 9.931145328649434 8.581665568359055 10.118511387002082 -1 0 0
995 0 2 0 0.5313533321389109 -0.12419640562417245 9.385216313332812 -1 1 0
381 0 2 0 1.198433743601353 -2.7619638027805418 14.366854028047475 -2 1 0
1165 0 1 0 8.208156300061189 0.5052326039270745 4.870253886148213 2 2 0
363 0 2 0 10.984011966046957 1.8124744262130088 15.24138413571002 1 1 0
1520 0 2 0 -6.590743454650506 14.982694924309325 11.053031202444227 0 0 0
1124 0 2 0 7.182929832471098 1.3842613995562256 3.6373475088905405 0 -1 0
780 0 2 0 10.662855361434278 2.495780755234455 11.191461825417038 -1 0 0
23 0 2 0 4.833723343159264 9.251444617712394 14.927399685619264 -2 0 0
336 0 2 0 3.2216243539755096 17.75515348321329 1.8276557804708373 0 -1 0
543 0 2 0 -0.5734363968804231 13.365739346704215 3.7360233400192495 2 -1 0
905 0 2 0 11.37956353746386 -4.728024609000988 14.777213192656552 0 -1 1
1099 0 1 0 2.0448317591749237 20.39194536152767 0.5021796944373378 -1 1 0
655 0 1 0 11.538561951635904 5.395397832794074 11.688304597629424 -1 -2 0
1592 0 2 0 -3.7560958269605424 17.616580182891784 0.7340446614264498 1 1 0
505 0 1 0 4.828882537657053 17.17576168925337 0.038926239105331883 0 0 0
1531 0 1 0 1.9692169724346686 4.556027668314719 4.668284463021345 -2 -1 0
1089 0 2 0 0.7423408531136949 1.1802034826483094 0.23943710042116972 1 1 0
280 0 1 0 -0.9426839309053223 18.441547775082334 4.104903812339717 2 -2 0
166 0 1 0 10.940288445272884 -2.475348942394673 9.168156637259221 1 -2 0
572 0 2 0 0.9913760179802393 2.3059697233709295 11.248300520340546 1 2 0
374 0 2 0 10.38829104709668 2.2079276476290097 -0.5570412382935743 1 0 0
394 0 1 0 9.758745924458033 7.604345598817229 3.994025357261335 2 1 0
366 0 2 0 2.3966653990094176 -2.3264997949840263 10.697880196963109 2 0 0
306 0 2 0 7.282591998734315 5.500362867595438 11.025932105857184 -1 0 0
1229 0 2 0 11.67884918047867 1.4439793650677921 9.736386898690164 2 3 0
1164 0 2 0 5.105579138772092 2.799801356645024 7.005392551071619 -2 -2 0
972 0 2 0 -1.2080985905804948 17.249494725009093 10.219866951856737 0 1 0
404 0 2 0 5.853076317773178 13.478538394192928 1.3713416263415423 -1 -1 0
504 0 2 0 4.944578578736401 7.115504269189006 1.774932512344955 0 -1 0
1627 0 1 0 3.4716169925004072 5.7515099764877835 10.749452759653773 1 0 0
628 0 1 0 7.346600624749905 1.2182258966753494 13.21191866273725 -1 -1 0