LAMMPS (23 Jun 2022)
include procedure.lmp
echo both
include		in.partitions
variable        pid world 0
include		in.temp
variable	temperature equal 260
variable        tempDamp equal 0.100 # this is 0.1 ps
include		in.pressure
variable        pressure equal 6079.5
variable        pressureDamp equal 1.0 #this is 1ps

variable	barostat string	   tri
variable	direction string   z
variable	direction_x_bool equal 0
variable	direction_y_bool equal 0
variable	direction_z_bool equal 1

include		in.seed
variable        seed world 745823

units           metal
atom_style	full
box tilt large
read_restart 	restart.lmp.${pid}
read_restart 	restart.lmp.0
Reading restart file ...
  restart file = 23 Jun 2022, LAMMPS = 23 Jun 2022
  restoring atom style full from restart
  triclinic box = (0 0 -0.91484607) to (30.957001 21.340725 31.78001) with tilt (-9.151055 1.064263 -10.823489)
WARNING: Triclinic box skew is large (../domain.cpp:224)
  2 by 1 by 2 MPI processor grid
Summary of lammps deepmd module ...
  >>> Info of deepmd-kit:
  installed to:       /u/sigbjobo/software/DEEPMD_FROM_SOURCE/deepmd-kit/install
  source:             v2.1.3
  source branch:       master
  source commit:      5a32c49
  source commit at:   2022-07-01 09:52:58 +0800
  surpport model ver.:1.1 
  build float prec:   double
  build with tf inc:  /u/sigbjobo/software/DEEPMD_FROM_SOURCE/tensorflow/install/include;/u/sigbjobo/software/DEEPMD_FROM_SOURCE/tensorflow/install/include
  build with tf lib:  /u/sigbjobo/software/DEEPMD_FROM_SOURCE/tensorflow/install/lib/libtensorflow_cc.so;/u/sigbjobo/software/DEEPMD_FROM_SOURCE/tensorflow/install/lib/libtensorflow_framework.so
  set tf intra_op_parallelism_threads: 0
  set tf inter_op_parallelism_threads: 0
  >>> Info of lammps module:
  use deepmd-kit at:  /u/sigbjobo/software/DEEPMD_FROM_SOURCE/deepmd-kit/install
  source:             v2.1.3
  source branch:      master
  source commit:      5a32c49
  source commit at:   2022-07-01 09:52:58 +0800
  build float prec:   double
  build with tf inc:  /u/sigbjobo/software/DEEPMD_FROM_SOURCE/tensorflow/install/include;/u/sigbjobo/software/DEEPMD_FROM_SOURCE/tensorflow/install/include
  build with tf lib:  /u/sigbjobo/software/DEEPMD_FROM_SOURCE/tensorflow/install/lib/libtensorflow_cc.so;/u/sigbjobo/software/DEEPMD_FROM_SOURCE/tensorflow/install/lib/libtensorflow_framework.so
  restoring pair style deepmd from restart
  2592 atoms
Finding 1-2 1-3 1-4 neighbors ...
  special bond factors lj:    0        0        0       
  special bond factors coul:  0        0        0       
     0 = max # of 1-2 neighbors
     0 = max # of 1-3 neighbors
     0 = max # of 1-4 neighbors
     1 = max # of special neighbors
  special bonds CPU = 0.000 seconds
  read_restart CPU = 0.034 seconds
include 	in.setup
variable	out_freq equal 2000
variable	out_freq2 equal 2000

timestep        0.0005

neigh_modify    delay 7 every 1

include         in.deepmd
# This is deepMD model

# create groups ###
#group ox type 2
#group hy type 1

mass 2 15.999
mass 1 1.008

pair_style      deepmd ../graph.pb
pair_coeff      * *

bond_style      none
angle_style     none
dihedral_style  none
improper_style  none
neigh_modify exclude none


neighbor        2.0 bin
neigh_modify    every 50 delay 0 check no

thermo          ${out_freq}
thermo          2000
thermo_style 	custom step temp pe etotal epair emol press lx ly lz vol pxx pyy pzz pxy pxz pyz

restart 	${out_freq} restart.lmp.${pid} restart2.lmp.${pid}
restart 	2000 restart.lmp.${pid} restart2.lmp.${pid}
restart 	2000 restart.lmp.0 restart2.lmp.${pid}
restart 	2000 restart.lmp.0 restart2.lmp.0


timer           timeout 23:50:00 every 1000
New timer settings: style=normal  mode=nosync  timeout=23:50:00


# Set number of time steps
variable 	nsteps_wall		equal	 6000000
variable 	nsteps_enhanced_coex    equal	300000000

variable     nsteps_enhanced_coex_upto equal (${nsteps_wall}+${nsteps_enhanced_coex})
variable     nsteps_enhanced_coex_upto equal (6000000+${nsteps_enhanced_coex})
variable     nsteps_enhanced_coex_upto equal (6000000+300000000)


# Set temperature for first step
if "$(step) < 1  " then    "velocity 	all create ${temperature} ${seed} dist gaussian"


# Always run thermo and barostat


######################################
# Run simulation with wall potential #
######################################
if " $(step) < ${nsteps_wall} " then    "fix             3 all plumed plumedfile plumed.equil.dat outfile plumed.equil.out"   "fix             1 all nph ${direction} ${pressure} ${pressure} ${pressureDamp}"   "fix             2 all temp/csvr ${temperature} ${temperature} ${tempDamp} ${seed}"   "run             ${nsteps_wall} upto"
if " $(step) == ${nsteps_wall} " then    "unfix 3"   "unfix 1"   "unfix 2"


############################
# Run enhanced coesistence #
############################
if "$(step) == ${nsteps_wall}" then    "fix             3 all plumed plumedfile plumed.start.dat outfile plumed.out" else    "fix             3 all plumed plumedfile plumed.dat outfile plumed.out"
fix             3 all plumed plumedfile plumed.dat outfile plumed.out

if "$(step) < ${nsteps_enhanced_coex_upto} && $(step) >= ${nsteps_wall} " then    "include         in.dump"    "fix             1 all nph ${direction} ${pressure} ${pressure} ${pressureDamp}"   "fix             2 all temp/csvr ${temperature} ${temperature} ${tempDamp} ${seed}"   "run             ${nsteps_enhanced_coex_upto} upto"    "unfix 3"   "unfix 1"   "unfix 2"
include         in.dump
dump            myDump all atom ${out_freq2} dump.water.${pid}
dump            myDump all atom 2000 dump.water.${pid}
dump            myDump all atom 2000 dump.water.0
dump            myDump2 all dcd ${out_freq2} dump.${pid}.dcd
dump            myDump2 all dcd 2000 dump.${pid}.dcd
dump            myDump2 all dcd 2000 dump.0.dcd
dump_modify     myDump append yes
dump_modify     myDump2 append yes

fix             1 all nph ${direction} ${pressure} ${pressure} ${pressureDamp}
fix             1 all nph z ${pressure} ${pressure} ${pressureDamp}
fix             1 all nph z 6079.5 ${pressure} ${pressureDamp}
fix             1 all nph z 6079.5 6079.5 ${pressureDamp}
fix             1 all nph z 6079.5 6079.5 1
fix             2 all temp/csvr ${temperature} ${temperature} ${tempDamp} ${seed}
fix             2 all temp/csvr 260 ${temperature} ${tempDamp} ${seed}
fix             2 all temp/csvr 260 260 ${tempDamp} ${seed}
fix             2 all temp/csvr 260 260 0.1 ${seed}
fix             2 all temp/csvr 260 260 0.1 745823
run             ${nsteps_enhanced_coex_upto} upto
run             306000000 upto

CITE-CITE-CITE-CITE-CITE-CITE-CITE-CITE-CITE-CITE-CITE-CITE-CITE

Your simulation uses code contributions which should be cited:

- USER-DEEPMD package:

@article{Wang_ComputPhysCommun_2018_v228_p178,
  author = {Wang, Han and Zhang, Linfeng and Han, Jiequn and E, Weinan},
  doi = {10.1016/j.cpc.2018.03.016},
  url = {https://doi.org/10.1016/j.cpc.2018.03.016},
  year = 2018,
  month = {jul},
  publisher = {Elsevier {BV}},
  volume = 228,
  journal = {Comput. Phys. Commun.},
  title = {{DeePMD-kit: A deep learning package for many-body potential energy representation and molecular dynamics}},
  pages = {178--184}
}

CITE-CITE-CITE-CITE-CITE-CITE-CITE-CITE-CITE-CITE-CITE-CITE-CITE

Generated 0 of 1 mixed pair_coeff terms from geometric mixing rule
Neighbor list info ...
  update every 50 steps, delay 0 steps, check no
  max neighbors/atom: 2000, page size: 100000
  master list distance cutoff = 8
  ghost atom cutoff = 8
  binsize = 4, bins = 11 9 9
  1 neighbor lists, perpetual/occasional/extra = 1 0 0
  (1) pair deepmd, perpetual
      attributes: full, newton on
      pair build: full/bin
      stencil: full/bin/3d
      bin: standard
Per MPI rank memory allocation (min/avg/max) = 7.305 | 7.308 | 7.31 Mbytes
   Step          Temp          PotEng         TotEng         E_pair         E_mol          Press            Lx             Ly             Lz           Volume          Pxx            Pyy            Pzz            Pxy            Pxz            Pyz      
 209154000   263.90017     -419.01455     -330.63094     -419.01455      0              5724.4095      30.957001      21.340725      32.694856      21599.688      6817.31        4475.8454      5880.0732      1229.4157     -580.14737      427.32057    
 209156000   263.13201     -417.66591     -329.53957     -417.67839      0              6646.3837      30.957001      21.340725      32.797191      21667.295      8292.8742      6663.4093      4982.8674      1871.7941      2149.6321      232.9772     
 209158000   258.99571     -420.10477     -333.36373     -420.10668      0              3903.1644      30.957001      21.340725      32.62247       21551.866      3813.6805      4007.953       3887.8596      959.01296      247.98348      219.29178    
 209160000   260.48963     -418.82148     -331.58011     -418.83311      0              7002.673       30.957001      21.340725      32.631273      21557.682      6207.1439      5764.6841      9036.191      -1730.1308      905.22         214.31613    
 209162000   258.4097      -419.21739     -332.67261     -419.23398      0              5995.4458      30.957001      21.340725      32.591693      21531.534      5421.3766      6491.3         6073.6609      186.79631     -664.0391      -684.06147    
 209164000   262.78604     -416.49317     -328.4827      -416.51174      0              7032.3209      30.957001      21.340725      32.43773       21429.819      7327.826       7552.3719      6216.7647      157.59388      272.53258     -1214.7062    
 209166000   268.66024     -419.74395     -329.76613     -419.75214      0              5820.0084      30.957001      21.340725      32.516801      21482.057      5897.3772      5250.0726      6312.5753     -1191.083       689.25667      1322.1272    
 209168000   259.42081     -419.64636     -332.76295     -419.65271      0              6038.6907      30.957001      21.340725      32.492989      21466.326      5642.8043      6468.6934      6004.5745      486.81343     -293.2161      -813.09889    
 209170000   263.05362     -419.11769     -331.0176      -419.1334       0              5558.8497      30.957001      21.340725      32.567449      21515.518      7369.9285      6624.0937      2682.5267      1560.5164     -1699.1759     -1154.6832    
 209172000   254.88119     -418.37434     -333.01131     -418.40063      0              6245.3418      30.957001      21.340725      32.303037      21340.835      7179.129       7774.3851      3782.5112      422.9253      -1999.2792      1066.4946    
 209174000   254.96061     -418.20063     -332.811       -418.20506      0              6925.1158      30.957001      21.340725      32.223164      21288.067      6503.5406      6852.759       7419.0478      215.01491     -1046.7409     -99.41591     
 209176000   256.56451     -415.92827     -330.00147     -415.94369      0              7729.4292      30.957001      21.340725      32.387352      21396.537      8049.8199      7453.5901      7684.8776     -891.9641       1346.9457      891.40292    
 209178000   260.18965     -414.49558     -327.35468     -414.50934      0              5430.3574      30.957001      21.340725      32.377531      21390.049      4145.4154      5530.7298      6614.9271     -1492.6637      1367.7874      132.62428    
 209180000   263.43001     -413.84238     -325.61623     -413.86297      0              8215.0716      30.957001      21.340725      32.442761      21433.143      8791.5981      9920.7444      5932.8723      1358.7454     -409.1122      -435.26018    
 209182000   256.56582     -417.69066     -331.76342     -417.71678      0              6756.4288      30.957001      21.340725      32.526298      21488.331      6840.5638      5682.6798      7746.0428     -2436.8389     -557.09624     -1685.372     
 209184000   270.18381     -415.8377      -325.34962     -415.85614      0              7453.3956      30.957001      21.340725      32.740946      21630.137      5932.9495      8655.1432      7772.0942      1432.9512     -2329.9197     -153.83197    
 209186000   264.14968     -419.64426     -331.17709     -419.66105      0              5049.0616      30.957001      21.340725      32.570705      21517.668      4776.5972      6309.6585      4060.929      -136.48958     -2961.1461     -835.58512    
 209188000   259.31042     -420.30832     -333.46188     -420.32592      0              6214.1821      30.957001      21.340725      32.592412      21532.009      5754.4492      7134.6901      5753.407       620.56764      818.43847     -516.15266    
 209190000   261.93222     -419.55507     -331.83056     -419.58398      0              4193.8548      30.957001      21.340725      32.483249      21459.891      5484.7049      4216.8126      2880.0468     -1523.7901      861.15993     -1846.0673    
 209192000   266.60736     -418.22271     -328.93243     -418.2652       0              3611.0602      30.957001      21.340725      32.514819      21480.748      5241.3099      2209.7794      3382.0914     -1252.8878     -225.75566      678.47408    
 209194000   261.3655      -419.6733      -332.13859     -419.69371      0              7064.9726      30.957001      21.340725      32.616169      21547.704      7893.55        5108.412       8192.9558      2940.2623     -636.37658      487.46713    
 209196000   261.06067     -416.71724     -329.28462     -416.72893      0              7754.7175      30.957001      21.340725      32.448047      21436.635      7998.8403      7924.0608      7341.2514      270.15753     -1448.2101      2126.7489    
 209198000   256.38984     -418.62545     -332.75715     -418.6445       0              5497.5924      30.957001      21.340725      32.642047      21564.8        5457.709       5813.9161      5221.1523     -254.65396      2152.0305      164.65404    
 209200000   256.13473     -415.40495     -329.62209     -415.44514      0              3353.998       30.957001      21.340725      32.702211      21604.547      3628.4159      3324.8752      3108.703      -404.19506     -602.07417     -446.02215    
 209202000   262.62647     -418.17718     -330.22015     -418.19704      0              5177.3954      30.957001      21.340725      32.632889      21558.75       6660.424       3979.079       4892.6833     -1104.7443     -1678.0531     -1133.9064    
 209204000   263.03141     -414.53023     -326.43758     -414.54923      0              6433.3436      30.957001      21.340725      32.652418      21571.651      5220.9777      5478.3815      8600.6714      2071.8167     -428.33176     -529.12283    
 209206000   258.1963      -417.5665      -331.09319     -417.58264      0              6978.2955      30.957001      21.340725      32.676458      21587.533      6193.2439      8092.8822      6648.7603     -1337.3988      218.96698     -2077.9099    
 209208000   259.91572     -414.14308     -327.09391     -414.1549       0              6351.9444      30.957001      21.340725      32.535807      21494.613      6692.8955      5894.5293      6468.4084     -2149.0928     -1143.3577     -1000.6607    
 209210000   261.27002     -415.18553     -327.6828      -415.19976      0              5702.3094      30.957001      21.340725      32.586233      21527.927      4793.4437      5351.929       6961.5555      2683.2574     -1175.9727     -230.15046    
 209212000   256.61764     -416.3964      -330.4518      -416.41532      0              7143.5301      30.957001      21.340725      32.586289      21527.964      6429.0723      8077.9547      6923.5632      206.5762      -1095.0618      109.02424    
 209214000   262.98299     -418.95462     -330.87819     -418.95257      0              5934.9562      30.957001      21.340725      32.457508      21442.885      5928.8629      5625.8474      6250.1584      1252.8358     -499.1771       629.57888    
 209216000   264.31547     -417.63824     -329.11554     -417.65056      0              6113.0373      30.957001      21.340725      32.409678      21411.286      7884.4682      5121.4542      5333.1894      19.286126     -106.38765     -120.05835    
 209218000   260.83012     -415.03364     -327.67823     -415.05062      0              7328.2492      30.957001      21.340725      32.518646      21483.276      6779.0119      6333.1433      8872.5924      719.20236     -1823.01        264.12286    
 209220000   264.03352     -416.16763     -327.73937     -416.17146      0              8563.2228      30.957001      21.340725      32.419967      21418.084      6669.6601      9520.7243      9499.284       1119.5981     -950.52329     -1062.4516    
 209222000   254.25558     -419.28041     -334.1269      -419.28605      0              4652.5731      30.957001      21.340725      32.415908      21415.402      4998.6772      3526.4109      5432.6313     -296.37476     -985.04491     -710.3739     
 209224000   257.08423     -417.77217     -331.67131     -417.78864      0              5346.7627      30.957001      21.340725      32.427359      21422.968      5678.6298      5616.8573      4744.8008     -496.3857      -1719.0523      1158.1975    
 209226000   268.37436     -416.76806     -326.88599     -416.78136      0              6987.5535      30.957001      21.340725      32.481191      21458.531      4912.022       6893.9066      9156.732       1244.2446     -365.76887     -639.54307    
 209228000   261.65418     -418.36911     -330.73772     -418.38546      0              6091.2465      30.957001      21.340725      32.425844      21421.967      6196.0202      7035.7767      5041.9427     -623.41025     -189.58171     -223.80828    
 209230000   258.10057     -419.77855     -333.33731     -419.79162      0              7409.2233      30.957001      21.340725      32.57855       21522.851      7060.4322      7094.0954      8073.1423      238.73663      702.96794     -363.49679    
 209232000   264.96082     -418.18844     -329.4496      -418.20897      0              7443.4695      30.957001      21.340725      32.506596      21475.315      7086.1643      7448.0549      7796.1892     -379.32741      140.89867     -2548.7869    
 209234000   254.69167     -417.53952     -332.23996     -417.56322      0              5126.2712      30.957001      21.340725      32.647416      21568.347      3504.9748      7022.547       4851.2919      522.13006     -186.40633     -500.53489    
 209236000   254.59085     -419.67332     -334.40753     -419.69357      0              4374.6143      30.957001      21.340725      32.590963      21531.052      5508.2096      4665.8005      2949.8327     -689.68874     -691.18876      862.86272    
 209238000   262.37641     -417.38563     -329.51235     -417.40469      0              5721.5086      30.957001      21.340725      32.609769      21543.476      6292.6388      6092.1696      4779.7173      146.596       -380.05137      959.82907    
 209240000   259.42683     -419.4126      -332.52717     -419.42795      0              3102.7546      30.957001      21.340725      32.605697      21540.785      4070.9543      3273.0754      1964.2342      1922.9796      445.23292      1194.193     
 209242000   264.46669     -420.15342     -331.58008     -420.17041      0              7627.7078      30.957001      21.340725      32.572253      21518.691      7910.2891      5218.7158      9754.1184     -123.25359     -676.58166      40.470266    
 209244000   252.55622     -419.93461     -335.35024     -419.93914      0              5004.6422      30.957001      21.340725      32.511749      21478.719      6010.6322      5929.4993      3073.7952     -370.67396      325.84649     -910.81968    
 209246000   264.27        -419.44406     -330.93659     -419.45905      0              4813.4537      30.957001      21.340725      32.495823      21468.198      5444.2789      4407.1358      4588.9462      119.76897      842.46406      382.99647    
 209248000   258.61159     -419.6566      -333.04421     -419.66411      0              5988.3111      30.957001      21.340725      32.552631      21505.728      5677.1764      5690.4758      6597.281      -299.14027      1228.0248      1427.6734    
 209250000   258.7049      -420.45827     -333.81462     -420.46085      0              6933.7622      30.957001      21.340725      32.557106      21508.684      3715.1337      7729.1575      9356.9953      876.23066     -192.04752      1596.7976    
 209252000   263.07254     -422.38917     -334.28275     -422.39847      0              7762.4862      30.957001      21.340725      32.53451       21493.756      7453.8         7625.3913      8208.2672      243.66064     -658.93576      114.87753    
 209254000   254.9688      -416.20182     -330.80944     -416.21722      0              7116.0929      30.957001      21.340725      32.485838      21461.601      5882.3519      6304.7978      9161.1289     -527.37905      168.90999     -912.79207    
 209256000   255.21174     -418.10501     -332.63128     -418.11769      0              5914.7086      30.957001      21.340725      32.561951      21511.885      6271.1335      5472.0212      6000.9712     -1099.8773     -1198.0318     -512.08328    
 209258000   263.78441     -420.49859     -332.15375     -420.49952      0              4522.7552      30.957001      21.340725      32.577423      21522.107      4090.8295      4784.6062      4692.8298      1813.8277     -119.87716      1131.3481    
 209260000   262.40179     -418.7885      -330.90672     -418.79206      0              4899.8331      30.957001      21.340725      32.673135      21585.338      3951.6216      5563.1393      5184.7383     -1876.0442     -110.7961       1089.8093    
 209262000   258.74051     -417.11903     -330.46346     -417.11582      0              7011.7878      30.957001      21.340725      32.495105      21467.724      7466.1007      7670.4476      5898.8152     -1702.2975      1498.7223      541.20878    
 209264000   261.40717     -418.58838     -331.03971     -418.60303      0              8157.2294      30.957001      21.340725      32.491918      21465.618      8304.7403      8523.4089      7643.5391      478.70146     -30.809814      435.43711    
 209266000   258.35682     -419.39741     -332.87035     -419.41492      0              8059.8768      30.957001      21.340725      32.652904      21571.972      9252.2748      7365.134       7562.2215      639.72442      891.24884      173.70856    
 209268000   261.60222     -418.60834     -330.99434     -418.63896      0              6323.0042      30.957001      21.340725      32.798666      21668.269      5497.5458      7178.3094      6293.1574      853.83896     -882.42845     -829.99255    
 209270000   254.20402     -417.97882     -332.84258     -417.99787      0              6237.2739      30.957001      21.340725      32.673489      21585.572      5569.4123      7274.1091      5868.3002      123.88664     -499.96885     -583.92212    
 209272000   256.83884     -418.24252     -332.22384     -418.25485      0              4137.5068      30.957001      21.340725      32.649191      21569.52       3207.4416      4807.1453      4397.9334      516.101        416.03472     -1378.3405    
 209274000   262.761       -418.58287     -330.58079     -418.5939       0              5397.0006      30.957001      21.340725      32.584972      21527.094      6349.9621      4881.1204      4959.9193      851.32556      107.99185     -529.68562    
 209276000   260.69142     -416.86666     -329.55771     -416.8859       0              6517.1244      30.957001      21.340725      32.519846      21484.069      4912.9247      7650.2717      6988.177       1971.231      -290.40655      461.11713    
 209278000   262.96906     -417.60697     -329.5352      -417.61677      0              7488.5501      30.957001      21.340725      32.734635      21625.968      9437.7568      6974.0858      6053.8077      261.92159     -522.90842      680.02241    
 209280000   262.21785     -418.02321     -330.20303     -418.0315       0              4930.9174      30.957001      21.340725      32.608968      21542.947      7172.1241      4918.6282      2701.9999     -2226.5726     -1456.3679      2920.5392    
 209282000   259.17814     -418.59828     -331.79615     -418.61444      0              5834.4942      30.957001      21.340725      32.450942      21438.547      5254.6849      3946.8732      8301.9246     -363.22773      1844.7906     -322.51041    
 209284000   263.59467     -420.21021     -331.92892     -420.20635      0              7124.08        30.957001      21.340725      32.306667      21343.233      8018.8853      5945.1221      7408.2326     -295.95668      309.47875      1210.8374    
 209286000   255.25277     -417.49806     -332.01058     -417.5057       0              6776.6011      30.957001      21.340725      32.435083      21428.07       7880.0727      5964.9308      6484.7997     -882.83165     -10.104363      1532.3912    
 209288000   260.5177      -418.22468     -330.9739      -418.23687      0              6662.8168      30.957001      21.340725      32.459185      21443.993      9270.4893      4704.4136      6013.5476     -1093.6774      986.48689      995.18707    
 209290000   257.18777     -418.85776     -332.72222     -418.85046      0              4414.6624      30.957001      21.340725      32.404132      21407.623      5024.429       4422.4043      3797.1538      1041.0452      572.51048     -230.39679    
 209292000   253.81006     -414.82524     -329.82094     -414.83877      0              8413.5553      30.957001      21.340725      32.278642      21324.718      7548.8433      8457.1596      9234.6631      527.18538      819.18037      531.18733    
 209294000   259.15849     -416.70347     -329.90791     -416.71187      0              5815.9451      30.957001      21.340725      32.292034      21333.565      6695.8628      6225.3129      4526.6598     -67.098241      271.48929     -2020.3504    
 209296000   259.70332     -418.80422     -331.82619     -418.80432      0              3976.9733      30.957001      21.340725      32.246098      21303.219      3353.2241      5332.8895      3244.8062      1089.9496     -418.63022      327.28366    
 209298000   265.93788     -420.76694     -331.70088     -420.76837      0              7595.0688      30.957001      21.340725      32.395671      21402.033      6241.6503      9405.1171      7138.439      -132.6513      -485.84026      368.74525    
 209300000   250.16357     -417.15674     -333.3737      -417.15242      0              5417.987       30.957001      21.340725      32.406986      21409.508      6568.8649      5617.2934      4067.8027     -485.83222      1181.8621      91.903183    
 209302000   255.60757     -418.44659     -332.84028     -418.44039      0              6700.1786      30.957001      21.340725      32.356809      21376.359      4489.0667      8146.5152      7464.9539     -914.0708      -20.578555      1128.4957    
 209304000   257.15002     -420.22684     -334.10394     -420.22984      0              4573.4043      30.957001      21.340725      32.543579      21499.748      4003.012       6128.8433      3588.3576      599.48122      1883.3408      798.48229    
 209306000   262.40803     -420.94523     -333.06136     -420.94151      0              7026.7403      30.957001      21.340725      32.503001      21472.94       9722.7207      6618.658       4738.8423      628.84319     -1518.0216      482.73872    
 209308000   260.74957     -418.85117     -331.52274     -418.85877      0              6682.2274      30.957001      21.340725      32.447721      21436.419      7042.3951      6519.4282      6484.859       2304.6028     -290.91868      377.64568    
 209310000   255.41867     -420.40112     -334.85808     -420.40611      0              5634.9642      30.957001      21.340725      32.282456      21327.238      4496.8331      6601.4383      5806.6212     -1281.6974     -1624.586      -963.27747    
 209312000   259.35892     -421.32326     -334.46057     -421.31938      0              8020.5823      30.957001      21.340725      32.247858      21304.381      7567.6618      6298.2358      10195.849      1225.1474      475.00578      223.90754    
 209314000   258.09342     -417.41939     -330.98054     -417.43067      0              4612.8639      30.957001      21.340725      32.358856      21377.711      3865.2629      4344.5965      5628.7323      924.93226     -691.99972      1236.0242    
 209316000   264.25945     -420.97011     -332.46618     -420.97221      0              4569.0226      30.957001      21.340725      32.379829      21391.567      4627.6892      4161.0713      4918.3073     -213.12417     -501.86907      389.2382     
 209318000   264.38034     -419.8992      -331.35478     -419.90171      0              5732.7909      30.957001      21.340725      32.440649      21431.748      5435.1624      7585.3799      4177.8305      462.43618      455.01715      635.13619    
 209320000   262.17898     -418.70993     -330.90277     -418.70556      0              7517.9623      30.957001      21.340725      32.272659      21320.766      7901.0896      7415.5412      7237.256       1562.3945     -132.81716      613.58742    
 209322000   259.67152     -419.5435      -332.57612     -419.53292      0              7175.3584      30.957001      21.340725      32.228616      21291.669      7047.7223      7687.388       6790.9649      1028.9351     -173.90229      10.445046    
 209324000   259.84408     -417.41549     -330.39032     -417.42905      0              5757.656       30.957001      21.340725      32.371679      21386.183      5026.2405      5851.7721      6394.9554      686.22701     -1073.1657      1095.1413    
 209326000   263.72979     -420.54625     -332.2197      -420.5538       0              4700.3501      30.957001      21.340725      32.419251      21417.611      4966.2797      6889.8762      2244.8943      1602.0188     -402.74321     -1278.752     
 209328000   253.34153     -419.25656     -334.40918     -419.25106      0              3402.3914      30.957001      21.340725      32.425178      21421.527      3260.8844      4604.7511      2341.5388     -959.72371      1008.5219      78.541844    
 209330000   248.66074     -418.43996     -335.16023     -418.45293      0              7061.7952      30.957001      21.340725      32.282089      21326.995      7303.4544      6431.2724      7450.6589     -1731.3672      1116.3786     -2603.2528    
 209332000   263.38482     -419.28225     -331.07124     -419.27705      0              7712.7355      30.957001      21.340725      32.360922      21379.076      7513.8311      7374.0769      8250.2985      1416.037      -2136.4228      1282.3543    
 209334000   264.32294     -420.89393     -332.36874     -420.88426      0              5391.2047      30.957001      21.340725      32.230363      21292.823      5382.599       6786.2055      4004.8096      1517.7624      634.47232      684.79466    
 209336000   257.35194     -418.97037     -332.77985     -418.9775       0              6577.5811      30.957001      21.340725      32.446853      21435.846      4847.986       8543.7841      6340.9732      65.039542     -7.2006737      2199.9119    
 209338000   264.88687     -420.37563     -331.66156     -420.38547      0              6235.9898      30.957001      21.340725      32.534064      21493.461      5608.4095      8175.6484      4923.9117      662.63535      1789.3665     -242.77414    
 209340000   264.5358      -418.93694     -330.34045     -418.94808      0              4482.5077      30.957001      21.340725      32.522066      21485.535      2525.5669      6176.5349      4745.4213      431.85593     -1465.5807      1025.8557    
 209342000   263.1594      -419.80851     -331.673       -419.80131      0              6599.357       30.957001      21.340725      32.246138      21303.245      5567.496       7519.5148      6711.06        214.80331     -518.40014     -1678.835     
 209344000   262.03238     -416.22927     -328.47121     -416.22581      0              6142.8132      30.957001      21.340725      32.350519      21372.203      6122.803       6635.8592      5669.7774      585.96488     -283.43882     -1271.5142    
 209346000   263.77403     -418.91131     -330.56995     -418.91949      0              5866.4769      30.957001      21.340725      32.425795      21421.934      6194.6543      6080.5473      5324.2292     -1949.9229      147.41896     -142.01572    
 209348000   262.74616     -419.56615     -331.56903     -419.58735      0              7251.6227      30.957001      21.340725      32.439809      21431.192      7185.2585      7104.0395      7465.5701     -642.21186     -2488.3315     -966.8348     
 209350000   261.27836     -416.71117     -329.20564     -416.72602      0              7639.7244      30.957001      21.340725      32.520647      21484.598      7678.456       6649.6165      8591.1007      873.48109     -1849.493       1219.3414    
 209352000   261.43367     -417.91764     -330.3601      -417.92029      0              6701.2721      30.957001      21.340725      32.381489      21392.664      5242.7506      6448.8377      8412.228      -103.96245     -1815.2951     -643.03045    
 209354000   261.67591     -417.65429     -330.01562     -417.6619       0              4776.9042      30.957001      21.340725      32.497453      21469.275      5725.7108      3831.8413      4773.1606      1353.7001      746.3875       74.681735    
 209356000   262.04258     -418.19784     -330.43636     -418.20095      0              6603.2173      30.957001      21.340725      32.458476      21443.525      7371.139       5754.7722      6683.7407     -957.74278     -1833.8199     -900.86103    
 209358000   255.87027     -417.75928     -332.06499     -417.76381      0              6619.0427      30.957001      21.340725      32.453109      21439.979      4108.9116      8335.0971      7413.1193      118.61871      1840.8043     -522.50423    
 209360000   256.86655     -421.28845     -335.2605      -421.30384      0              8273.2452      30.957001      21.340725      32.558252      21509.441      8095.6742      8702.3217      8021.7398      1667.8133     -61.751892     -183.97763    
 209362000   260.78613     -419.574       -332.23332     -419.58513      0              4566.5475      30.957001      21.340725      32.636545      21561.165      3096.4978      6611.7207      3991.424      -427.05239     -448.73037     -750.04155    
 209364000   261.29411     -418.36249     -330.85169     -418.36727      0              7136.6056      30.957001      21.340725      32.677665      21588.331      7523.0923      7198.984       6687.7404     -94.738749     -1233.3156     -627.68464    
 209366000   256.44942     -419.04751     -333.15926     -419.05396      0              5410.4132      30.957001      21.340725      32.403588      21407.263      5691.0847      5276.484       5263.6708     -559.99791      809.54345      1386.2022    
 209368000   262.89554     -417.52157     -329.47443     -417.53076      0              8517.7217      30.957001      21.340725      32.354794      21375.028      8219.8621      8391.1709      8942.1322     -1700.1339      442.53427     -1090.2096    
 209370000   260.73029     -421.5521      -334.23013     -421.56296      0              4151.9196      30.957001      21.340725      32.605728      21540.806      4679.0797      3877.4259      3899.2532     -171.88418      272.82709      454.19036    
 209372000   260.05751     -418.40855     -331.3119      -418.42102      0              5583.2451      30.957001      21.340725      32.641038      21564.133      3141.6064      7468.1431      6139.9858     -137.25419     -908.97144     -108.77257    
 209374000   258.72357     -419.96047     -333.31057     -419.96557      0              5347.043       30.957001      21.340725      32.611651      21544.719      4670.8071      6587.9734      4782.3484      2143.8025     -314.48536      729.09188    
 209376000   256.46346     -422.21284     -336.31989     -422.22113      0              3882.1343      30.957001      21.340725      32.538144      21496.157      1213.8184      5840.9388      4591.6456     -151.0838       1248.338      -574.16492    
 209378000   270.81267     -421.05933     -330.36064     -421.05581      0              6065.3494      30.957001      21.340725      32.52377       21486.661      7011.7925      5296.7695      5887.4864      406.87031     -16.515496     -625.66192    
 209380000   254.24097     -417.86441     -332.71579     -417.87614      0              4187.9316      30.957001      21.340725      32.480062      21457.786      4281.6505      4507.4487      3774.6956      1748.756      -905.03263     -357.69955    
 209382000   271.63878     -418.49133     -327.51597     -418.49615      0              8229.3759      30.957001      21.340725      32.661068      21577.366      8788.635       7527.2341      8372.2587     -340.09121     -595.81497      89.317086    
 209384000   251.97759     -416.15281     -331.76223     -416.1587       0              4670.3704      30.957001      21.340725      32.365785      21382.289      5470.2509      3549.76        4991.1002     -443.22334     -2830.4632      537.06839    
 209386000   264.51664     -420.51645     -331.92638     -420.52707      0              7254.4181      30.957001      21.340725      32.626695      21554.658      7767.7582      6102.7785      7892.7177      1105.0678      799.98182      483.25005    
 209388000   263.32353     -419.02106     -330.83058     -419.0315       0              6213.8942      30.957001      21.340725      32.571072      21517.911      7048.0014      5624.0598      5969.6214     -251.02962     -1018.4844     -947.66575    
 209390000   254.81655     -419.03352     -333.69214     -419.03018      0              5083.4423      30.957001      21.340725      32.484559      21460.757      3270.8249      4876.9295      7102.5724     -1218.3804      594.92951     -329.63456    
 209392000   253.2402      -415.88342     -331.06998     -415.89113      0              4907.149       30.957001      21.340725      32.622591      21551.947      5893.0758      5688.6302      3139.7409      884.20873     -388.45649      840.43609    
 209394000   258.79606     -419.39508     -332.72091     -419.39601      0              6157.2847      30.957001      21.340725      32.484568      21460.762      5403.1552      6555.4423      6513.2567      154.42675      2108.1507     -1300.3056    
 209396000   260.35193     -417.18269     -329.98744     -417.18399      0              6184.0252      30.957001      21.340725      32.620345      21550.463      8978.6131      7006.7153      2566.7473     -184.53146     -300.0387      -737.58894    
 209398000   257.41671     -419.98918     -333.77697     -419.99058      0              5024.9978      30.957001      21.340725      32.43185       21425.935      5735.7538      4795.529       4543.7106     -586.86962      133.6606       400.06849    
 209400000   261.17035     -418.69076     -331.22141     -418.70668      0              7014.5375      30.957001      21.340725      32.531475      21491.751      5666.5862      8242.2023      7134.824      -92.298425     -692.12862     -224.31057    
 209402000   251.69878     -417.6159      -333.3187      -417.6336       0              4143.8395      30.957001      21.340725      32.603628      21539.419      2263.3161      4831.4385      5336.7638      606.29495     -603.37974      1113.0473    
 209404000   268.02752     -418.01784     -328.25193     -418.03086      0              5841.6984      30.957001      21.340725      32.556084      21508.009      3499.0893      6464.5239      7561.4819      2005.831      -126.93592      373.61328    
 209406000   252.88781     -419.64559     -334.95016     -419.64838      0              5695.745       30.957001      21.340725      32.420474      21418.419      4718.8932      5126.4249      7241.9168      586.73721      1475.0403      1315.066     
 209408000   257.81644     -417.97403     -331.62794     -417.98974      0              9048.9295      30.957001      21.340725      32.481026      21458.423      9874.1461      8324.9393      8947.703       612.71631      57.409283      533.45809    
 209410000   263.01872     -418.17774     -330.08934     -418.19169      0              5397.1242      30.957001      21.340725      32.415342      21415.029      5105.8099      4505.2246      6580.3382     -378.32894     -638.39901     -1327.6156    
 209412000   256.86029     -418.82685     -332.80099     -418.82889      0              7269.2532      30.957001      21.340725      32.223106      21288.029      7768.7791      9482.1884      4556.7921      607.59347     -103.22426      317.23534    
 209414000   251.42213     -419.1096      -334.90505     -419.12019      0              6289.0721      30.957001      21.340725      32.311192      21346.222      6292.2251      5794.3252      6780.6662      1893.3505      511.47677      372.02268    
 209416000   256.63943     -416.72921     -330.77732     -416.75415      0              7277.5742      30.957001      21.340725      32.235262      21296.06       4505.8549      8150.1783      9176.6894     -604.0988       530.12007     -855.24012    
 209418000   258.82857     -418.43119     -331.74613     -418.45684      0              5115.9377      30.957001      21.340725      32.48632       21461.92       6338.7889      4031.9715      4977.0526      833.05899     -3259.9915      19.909014    
 209420000   256.96372     -419.38638     -333.32588     -419.40653      0              7777.4867      30.957001      21.340725      32.42299       21420.081      7690.7454      7749.0286      7892.6863     -163.59711     -90.299314     -15.948853    
 209422000   260.24655     -418.71206     -331.55209     -418.71447      0              6656.2862      30.957001      21.340725      32.540042      21497.411      5110.2666      7074.5434      7784.0486      520.82206     -123.3523       220.72111    
 209424000   258.64033     -417.65602     -331.034       -417.67572      0              8993.7646      30.957001      21.340725      32.377023      21389.714      8311.2409      8747.3228      9922.73        1390.6953     -1559.9485      1048.488     
 209426000   262.85079     -416.50681     -328.47466     -416.52293      0              7264.0316      30.957001      21.340725      32.410692      21411.957      5949.2911      7725.8386      8116.9651      403.15733      1599.0526      900.33944    
 209428000   266.03884     -417.24704     -328.14717     -417.26447      0              7436.9269      30.957001      21.340725      32.413479      21413.798      6686.785       7677.2424      7946.7534     -1237.9873     -462.63768     -3301.692     
 209430000   264.02233     -417.88759     -329.46307     -417.90305      0              7053.5007      30.957001      21.340725      32.287442      21330.532      8696.406       5794.5547      6669.5415     -1656.4866     -607.67556     -298.96168    
 209432000   258.4747      -417.89971     -331.33316     -417.90578      0              7100.1436      30.957001      21.340725      32.294399      21335.128      8069.0074      5998.9093      7232.514       1379.499      -1111.2971      713.94745    
 209434000   265.67932     -416.35549     -327.37602     -416.36663      0              4444.1636      30.957001      21.340725      32.264327      21315.261      5238.4236      3362.5927      4731.4744     -1707.0857      229.50137      2146.9945    
 209436000   266.62347     -419.35055     -330.05487     -419.35569      0              7248.194       30.957001      21.340725      32.455133      21441.316      7386.7625      7600.7499      6757.0697      1241.6463      1782.4356     -913.41671    
 209438000   264.1019      -417.26584     -328.81467     -417.27738      0              6336.3353      30.957001      21.340725      32.381165      21392.45       6548.831       6049.3409      6410.8338     -359.93249     -2379.4925      209.57313    
 209440000   259.04227     -421.2033      -334.44666     -421.22089      0              5479.8989      30.957001      21.340725      32.422754      21419.925      6550.4523      5077.9157      4811.3285     -2104.6154     -2156.6774      1018.8407    
 209442000   253.76068     -420.69538     -335.70762     -420.69786      0              4080.5014      30.957001      21.340725      32.316285      21349.587      2344.1308      5208.6225      4688.751      -317.76637      1061.8026     -1001.673     
 209444000   265.34108     -419.349       -330.48281     -419.36348      0              7575.2091      30.957001      21.340725      32.334793      21361.815      7792.483       9257.2441      5675.9002      500.72734     -330.20615     -1696.2514    
 209446000   254.99762     -415.83091     -330.42888     -415.84231      0              7120.3591      30.957001      21.340725      32.470249      21451.303      7833.34        5768.9658      7758.7717      341.77887     -1512.9751      1688.7015    
 209448000   262.4353      -419.68175     -331.78875     -419.68704      0              7184.3744      30.957001      21.340725      32.407742      21410.007      6770.3613      6100.4615      8682.3005      2103.5294      153.87697      831.07739    
 209450000   260.49174     -418.86535     -331.62327     -418.88216      0              4768.1097      30.957001      21.340725      32.280462      21325.921      5073.8066      4252.5117      4978.0107      2160.6982      799.91287     -50.4695      
 209452000   246.61374     -416.28737     -333.69321     -416.28436      0              5178.8732      30.957001      21.340725      32.305452      21342.431      4604.6112      7519.7313      3412.2772     -423.42188      1092.9659     -1660.6006    
 209454000   262.00857     -418.51197     -330.76188     -418.52095      0              6078.4327      30.957001      21.340725      32.478259      21456.594      5291.7295      4822.6733      8120.8952     -1794.8542      526.35616      457.04334    
 209456000   265.99165     -421.54159     -332.45752     -421.5344       0              5469.8674      30.957001      21.340725      32.415367      21415.045      4091.4872      6056.0441      6262.0708      176.46565      2611.3932      2020.728     
 209458000   258.7615      -419.81966     -333.15706     -419.81784      0              5201.8687      30.957001      21.340725      32.55428       21506.817      5978.0023      5505.61        4121.9938     -206.3168       1043.7215     -993.03868    
 209460000   261.49608     -418.77874     -331.20029     -418.78358      0              5851.5958      30.957001      21.340725      32.49458       21467.377      5503.398       6325.5829      5725.8066      990.66881      267.22291     -1791.9686    
 209462000   258.10153     -417.96879     -331.52723     -417.98105      0              6521.966       30.957001      21.340725      32.42925       21424.217      7463.112       5222.2416      6880.5443      679.98033      441.58203     -184.64639    
 209464000   262.09172     -417.19223     -329.41429     -417.1954       0              5177.3067      30.957001      21.340725      32.568475      21516.195      5809.6658      3813.306       5908.9482     -2032.6578      239.96582     -1488.8537    
 209466000   264.61127     -419.35576     -330.734       -419.36277      0              7615.9465      30.957001      21.340725      32.376916      21389.642      7319.1906      6305.2143      9223.4346     -1302.3626     -890.77521      1499.5076    
 209468000   265.82091     -416.76821     -327.74132     -416.77531      0              6472.793       30.957001      21.340725      32.382485      21393.322      6273.9071      6106.5922      7037.8798      1357.8929      420.77189      1085.8981    
 209470000   263.24432     -417.35777     -329.19382     -417.36996      0              6299.6555      30.957001      21.340725      32.330039      21358.674      6615.1785      6378.3615      5905.4264      580.5557       65.598995     -791.87913    
 209472000   261.13465     -419.0853      -331.6279      -419.09263      0              6878.3483      30.957001      21.340725      32.206492      21277.053      7236.902       5447.7623      7950.3806     -1026.3993     -1412.8507      534.08103    
 209474000   260.44404     -416.77966     -329.55356     -416.7889       0              6211.6938      30.957001      21.340725      32.365103      21381.839      5557.2096      5703.4997      7374.3721     -1029.8525     -238.91183      446.3406     
 209476000   262.71624     -419.69438     -331.70729     -419.69423      0              6084.853       30.957001      21.340725      32.378584      21390.745      6425.5471      4803.1457      7025.866      -203.75081      1894.9419      84.647731    
 209478000   255.29732     -419.46679     -333.96439     -419.47392      0              5527.7257      30.957001      21.340725      32.254109      21308.511      3973.6577      4145.6473      8463.872      -621.15365      340.30394      37.161609    
 209480000   262.79579     -420.94623     -332.93249     -420.95529      0              6100.8376      30.957001      21.340725      32.408633      21410.596      6204.0302      6367.8701      5730.6125     -318.99666      1826.3938      535.51168    
 209482000   262.71859     -420.69799     -332.71011     -420.69984      0              6156.7616      30.957001      21.340725      32.403105      21406.944      4058.1511      5211.0799      9201.0536      1535.3256     -315.98156     -39.739995    
 209484000   256.43393     -415.34598     -329.46291     -415.35499      0              6402.0884      30.957001      21.340725      32.523007      21486.157      8030.331       4807.6534      6368.2807      1163.328       117.72886      935.45625    
 209486000   267.86754     -419.88874     -330.17641     -419.88787      0              4798.6997      30.957001      21.340725      32.578169      21522.6        5375.103       4399.9868      4621.0094      109.15115      258.02956     -1920.117     
 209488000   268.15319     -421.2158      -331.4078      -421.2136       0              8874.6391      30.957001      21.340725      32.500185      21471.08       10742.985      9322.8301      6558.1018     -880.28122      105.3196      -771.35762    
 209490000   264.08263     -419.80029     -331.35557     -419.80358      0              6264.5274      30.957001      21.340725      32.530614      21491.182      7168.309       6613.3773      5011.8958     -331.80046      1548.2898     -2192.7739    
 209492000   260.56835     -422.8884      -335.62066     -422.9026       0              5267.0882      30.957001      21.340725      32.674337      21586.133      4628.9231      6358.9637      4813.3779      1403.7181     -798.02758      1228.3324    
 209494000   264.91139     -420.07761     -331.35534     -420.08768      0              7795.3691      30.957001      21.340725      32.589922      21530.364      7846.9078      7842.1174      7697.0821      536.2999       925.19138      757.47207    
 209496000   256.09395     -419.29195     -333.52274     -419.29863      0              5061.2333      30.957001      21.340725      32.560748      21511.09       5220.5221      5176.6861      4786.4916      1098.2403      1000.4626      512.08233    
 209498000   260.64321     -424.0234      -336.73059     -424.02546      0              4973.4197      30.957001      21.340725      32.604389      21539.922      4710.6519      4660.7535      5548.8538      565.27628      1325.0622      1151.3504    
 209500000   258.55398     -421.82537     -335.23227     -421.84334      0              5530.358       30.957001      21.340725      32.662999      21578.642      5955.1914      5809.2866      4826.596       1045.2349      185.25157     -536.73078    
 209502000   251.6254      -421.00036     -336.72773     -421.00555      0              6859.7366      30.957001      21.340725      32.512248      21479.049      5087.4258      6904.2342      8587.5496      769.7622       153.27171      1473.4457    
 209504000   260.10045     -421.54597     -334.43494     -421.55735      0              5743.07        30.957001      21.340725      32.691767      21597.648      3629.978       7154.1224      6445.1097     -678.99084      814.73454     -1239.1811    
 209506000   258.23735     -418.69051     -332.20346     -418.69339      0              7328.8994      30.957001      21.340725      32.569532      21516.893      7019.8533      7691.664       7275.1809     -1878.9574      88.663801     -265.18505    
 209508000   261.28355     -419.56072     -332.05346     -419.5652       0              4731.0758      30.957001      21.340725      32.493752      21466.83       4288.8289      5045.2808      4859.1176     -1296.4479      1040.3735     -1798.7025    
 209510000   260.13161     -421.12701     -334.00554     -421.1212       0              8511.4676      30.957001      21.340725      32.472275      21452.641      9700.97        8790.4567      7042.9761      1851.9738     -438.47031      467.14433    
 209512000   258.36381     -420.95454     -334.42513     -420.96584      0              6077.4342      30.957001      21.340725      32.704013      21605.738      6547.213       7270.9838      4414.1058      80.058846     -1034.9139     -2782.7776    
 209514000   258.20222     -419.5064      -333.03111     -419.51872      0              6675.0316      30.957001      21.340725      32.5786        21522.884      5496.4675      7551.1366      6977.4909      1110.4186      368.55004     -324.53306    
 209516000   260.40506     -421.40797     -334.19493     -421.41754      0              4910.6476      30.957001      21.340725      32.716074      21613.705      3858.8531      5821.867       5051.2226      594.60979      1283.8185     -458.40513    
 209518000   258.25831     -417.38653     -330.89245     -417.40718      0              5639.866       30.957001      21.340725      32.497318      21469.186      6186.1963      4536.8752      6196.5266      792.02046     -645.24331      108.07897    
 209520000   259.61611     -417.22379     -330.27497     -417.23276      0              6158.243       30.957001      21.340725      32.517989      21482.842      4940.9314      7315.3186      6218.479      -1223.6052     -102.87083      113.08906    
 209522000   259.10655     -418.88116     -332.103       -418.88977      0              5516.2613      30.957001      21.340725      32.448237      21436.761      5487.2041      6650.051       4411.5289     -697.08902     -16.154694     -755.02124    
 209524000   264.66062     -420.01932     -331.38103     -420.03113      0              6912.7793      30.957001      21.340725      32.552599      21505.706      4157.371       7851.9545      8729.0122      297.94419      1450.0366     -1050.226     
 209526000   262.82813     -421.15208     -333.12751     -421.15601      0              6992.8971      30.957001      21.340725      32.585637      21527.533      7340.7301      8057.3384      5580.6229     -230.85097      3.1385285     -1988.7093    
 209528000   261.20554     -420.62383     -333.14269     -420.63544      0              2578.0481      30.957001      21.340725      32.646034      21567.434      1252.2129      3515.4744      2966.4569      1098.7725      757.54829     -776.18932    
 209530000   264.8819      -419.25909     -330.54669     -419.26201      0              7470.2499      30.957001      21.340725      32.58644       21528.064      7642.9632      6388.629       8379.1575     -1915.308       586.09771      418.41825    
 209532000   261.82094     -420.98511     -333.29786     -420.99036      0              4786.2495      30.957001      21.340725      32.421933      21419.383      5412.0609      4212.9607      4733.727       84.157009     -224.51824     -792.6026     
 209534000   256.47773     -423.81047     -337.91273     -423.80773      0              6669.9939      30.957001      21.340725      32.500162      21471.064      7311.5125      7906.0668      4792.4025      204.72453      1022.9647     -1104.1933    
 209536000   264.18349     -420.65574     -332.17725     -420.66683      0              3685.1236      30.957001      21.340725      32.708639      21608.794      5636.869       3731.5865      1686.9153      104.2095       782.10388     -2856.3563    
 209538000   256.20446     -419.77365     -333.96743     -419.76906      0              8033.2942      30.957001      21.340725      32.833602      21691.35       9236.1621      7318.6339      7545.0868     -617.59275     -425.76865      1530.6625    
 209540000   260.27568     -417.73944     -330.56972     -417.76456      0              4615.7784      30.957001      21.340725      32.701774      21604.259      5196.8408      5230.189       3420.3054      418.25991      1535.4659     -1995.8111    
 209542000   251.51667     -418.22261     -333.9864      -418.23815      0              6592.1624      30.957001      21.340725      32.794677      21665.634      6485.4231      6950.2747      6340.7893      279.73998      908.45273     -483.42547    
 209544000   247.87962     -419.99994     -336.98182     -420.01865      0              3544.381       30.957001      21.340725      32.718056      21615.015      2319.1396      3760.7116      4553.2918      3207.1141     -1829.3584      228.51841    
 209546000   256.73965     -419.77166     -333.78621     -419.78191      0              6261.3902      30.957001      21.340725      32.762404      21644.313      5319.9002      5900.6335      7563.6368      658.91608     -392.44423      789.37496    
 209548000   260.51034     -420.32366     -333.07535     -420.32907      0              5575.8232      30.957001      21.340725      32.530009      21490.783      5795.4036      5418.0415      5514.0247     -874.60751      148.99517      1187.0894    
 209550000   257.74175     -420.0071      -333.68603     -420.01079      0              8487.8012      30.957001      21.340725      32.432805      21426.566      7941.7709      9203.7317      8317.9011      1507.9145     -254.343       -126.68193    
 209552000   259.65355     -418.43754     -331.47618     -418.4565       0              5658.7327      30.957001      21.340725      32.719003      21615.64       5191.4627      5192.7888      6591.9466     -664.11255     -483.7319       698.73042    
 209554000   257.90805     -421.58846     -335.21169     -421.60033      0              4273.6635      30.957001      21.340725      32.510175      21477.68       4018.0341      3341.4675      5461.4889     -1006.6116     -201.19624     -22.856592    
 209556000   257.14087     -417.98008     -331.86026     -417.9993       0              3618.5586      30.957001      21.340725      32.574631      21520.262      2627.2972      3108.7951      5119.5835      1907.013      -684.60771     -211.332      
 209558000   258.88971     -420.94675     -334.24121     -420.97235      0              4889.232       30.957001      21.340725      32.521645      21485.257      4571.4215      4401.3706      5694.9039      1241.6446      953.93429      605.43279    
 209560000   263.62664     -417.14507     -328.85307     -417.15376      0              5883.1317      30.957001      21.340725      32.374698      21388.177      5869.5897      5390.777       6389.0284      2511.0783     -2135.6071     -1440.2854    
 209562000   260.30181     -416.83651     -329.65804     -416.8546       0              7166.4643      30.957001      21.340725      32.459966      21444.509      8290.5115      6899.1954      6309.686      -280.87824      493.3919       447.73464    
 209564000   255.93426     -417.10108     -331.38536     -417.11792      0              7603.144       30.957001      21.340725      32.520945      21484.795      9289.611       7292.1858      6227.6352      494.08532     -1724.5997      446.09849    
 209566000   260.61014     -418.40414     -331.12241     -418.42125      0              5166.0462      30.957001      21.340725      32.542498      21499.033      4150.9889      7165.3349      4181.8148      819.68868     -423.64661     -700.14738    
 209568000   256.24956     -418.82337     -333.00206     -418.83642      0              5211.6619      30.957001      21.340725      32.344922      21368.506      4363.8129      6651.8723      4619.3004      249.53065     -177.41802     -1692.1804    
 209570000   257.85365     -418.25514     -331.8966      -418.2712       0              4726.625       30.957001      21.340725      32.54907       21503.375      5307.7334      5554.2306      3317.911      -718.37623      515.0353      -363.62422    
 209572000   265.06637     -421.30502     -332.53084     -421.31499      0              4395.8708      30.957001      21.340725      32.567166      21515.331      4733.3768      6727.6348      1726.6006     -428.24251      405.18231     -689.18136    
 209574000   260.46639     -419.12915     -331.89556     -419.14434      0              5144.2933      30.957001      21.340725      32.56955       21516.905      4528.2579      4571.5351      6333.0868      1072.0963     -1164.2854     -181.18714    
 209576000   265.01939     -417.56514     -328.80669     -417.5828       0              5542.7669      30.957001      21.340725      32.556124      21508.036      2549.2893      8728.3621      5350.6494      222.25108     -1111.8537      201.3059     
 209578000   254.00631     -418.3728      -333.30278     -418.38756      0              4760.5003      30.957001      21.340725      32.444177      21434.078      3505.1515      6101.7879      4674.5616     -131.67366     -174.2582      -1737.3248    
 209580000   256.36764     -415.50822     -329.64736     -415.52582      0              4400.173       30.957001      21.340725      32.249377      21305.384      4792.3424      3392.5321      5015.6446     -2001.705      -872.99091      115.24292    
 209582000   257.48536     -417.13859     -330.90339     -417.1543       0              6934.36        30.957001      21.340725      32.342626      21366.989      6075.7719      6640.7329      8086.5752     -149.72539      1763.1843      532.3577     
 209584000   259.72689     -419.0003      -332.01438     -419.01615      0              4784.1925      30.957001      21.340725      32.370248      21385.237      4032.426       6668.5401      3651.6115      584.648        1417.0682      221.90895    
 209586000   261.1752      -417.994       -330.52302     -418.01605      0              7129.1041      30.957001      21.340725      32.396415      21402.524      4484.8225      7640.9354      9261.5544     -253.88672      907.3398      -117.36812    
 209588000   257.50797     -416.94696     -330.70418     -416.96413      0              7241.6363      30.957001      21.340725      32.380579      21392.063      5132.9422      7234.7686      9357.1981      1524.5993      1300.5647      241.78908    
 209590000   259.40578     -421.44555     -334.56717     -421.4513       0              6583.5271      30.957001      21.340725      32.342044      21366.605      6032.1509      5898.3209      7820.1094      239.79947     -1088.7308      296.3698     
 209592000   258.78564     -420.44533     -333.77465     -420.45958      0              5554.7305      30.957001      21.340725      32.368203      21383.887      6023.3824      4451.679       6189.1301     -39.730684     -1169.6101      214.17024    
 209594000   257.77442     -419.58701     -333.255       -419.58983      0              6075.9438      30.957001      21.340725      32.263929      21314.998      5248.7705      7588.7088      5390.3522     -803.12169      1265.0976      1124.0038    
 209596000   260.21464     -419.70245     -332.55317     -419.71868      0              5593.0906      30.957001      21.340725      32.398559      21403.941      6250.8511      5233.9584      5294.4622     -739.07733     -1515.8904     -3461.6287    
 209598000   258.15173     -418.58343     -332.12505     -418.60078      0              6173.4527      30.957001      21.340725      32.483421      21460.004      5276.1794      5811.4939      7432.6847     -622.34697     -849.96501      1111.3762    
 209600000   260.97933     -418.26306     -330.85768     -418.279        0              5193.7016      30.957001      21.340725      32.515472      21481.179      3690.4679      7006.3559      4884.281       815.1603       1742.3203      704.91219    
 209602000   260.03761     -419.16485     -332.07487     -419.17729      0              6040.8362      30.957001      21.340725      32.337645      21363.699      6452.363       5524.9568      6145.1887      157.09656     -1133.1969     -159.50405    
 209604000   261.87698     -419.1862      -331.48019     -419.20399      0              6811.1215      30.957001      21.340725      32.434529      21427.705      6188.5557      5750.6948      8494.1138      2052.8854     -848.66947      2117.2497    
 209606000   262.68231     -419.68914     -331.71341     -419.69943      0              4117.7873      30.957001      21.340725      32.375637      21388.797      3884.9446      3588.4662      4879.951      -146.0956       1118.6834     -65.96906     
 209608000   265.92853     -417.03995     -327.97701     -417.05411      0              9138.2371      30.957001      21.340725      32.474924      21454.391      8570.9817      8933.7335      9909.996       263.64858      315.99012     -221.55128    
 209610000   262.45732     -419.26602     -331.36564     -419.27673      0              4742.6877      30.957001      21.340725      32.56091       21511.197      4964.7696      6158.6427      3104.6507     -522.58283     -69.002791      228.17827    
 209612000   257.24357     -420.8446      -334.69038     -420.86256      0              4505.3509      30.957001      21.340725      32.559699      21510.397      4516.4447      4047.5501      4952.0578     -1035.6631      568.41341      1376.4975    
 209614000   256.82172     -416.00779     -329.99485     -416.02278      0              7341.2878      30.957001      21.340725      32.279334      21325.176      7518.4315      8121.1205      6384.3115     -1124.1069     -1495.05       -64.04465     
 209616000   262.04294     -418.51365     -330.75205     -418.5303       0              6394.2849      30.957001      21.340725      32.242796      21301.037      7196.4439      6192.3455      5794.0653     -544.22994      95.340537     -634.81226    
 209618000   262.69453     -418.78383     -330.80401     -418.78875      0              6093.8176      30.957001      21.340725      32.405286      21408.385      5914.4637      7557.0993      4809.8899      552.89429      1853.9697     -422.83238    
 209620000   263.77953     -422.01987     -333.67667     -422.03412      0              4675.7917      30.957001      21.340725      32.51438       21480.457      5335.0928      4771.5238      3920.7584      1254.6446      335.93787      827.49065    
 209622000   261.40903     -419.07625     -331.52696     -419.08389      0              4594.7724      30.957001      21.340725      32.413003      21413.483      3789.4543      5058.2512      4936.6118      113.97454     -1166.315      -198.2933     
 209624000   258.88833     -418.61813     -331.91306     -418.63066      0              5983.0788      30.957001      21.340725      32.564125      21513.321      6809.73        6058.7272      5080.7791      357.97486     -84.576413      1711.7624    
 209626000   265.16802     -419.72788     -330.91966     -419.74239      0              6600.4574      30.957001      21.340725      32.473572      21453.498      7536.681       5698.9533      6565.7378     -1768.9827      1338.8704      580.87669    
 209628000   262.15259     -422.29668     -334.49836     -422.30579      0              6033.2239      30.957001      21.340725      32.513767      21480.053      6006.5294      3574.5381      8518.6042      1577.1164      245.29162      47.151951    
 209630000   265.33794     -419.59777     -330.73263     -419.60432      0              5604.0093      30.957001      21.340725      32.657081      21574.732      5919.4529      5961.8824      4930.6927      1702.3111     -1751.4871      1694.0154    
 209632000   261.07863     -418.70487     -331.26623     -418.7167       0              5650.6475      30.957001      21.340725      32.536006      21494.744      4725.3616      5015.0495      7211.5314      1305.562       760.21142      2093.7874    
 209634000   256.63819     -417.79154     -331.84006     -417.79531      0              7030.8884      30.957001      21.340725      32.316117      21349.476      6268.16        9541.2606      5283.2446      157.16171      1553.242      -42.350434    
 209636000   257.16042     -421.88746     -335.76108     -421.89117      0              4422.8665      30.957001      21.340725      32.394352      21401.162      4841.9543      3992.0192      4434.6259      25.212373      1344.8379      669.50846    
 209638000   265.16519     -421.34432     -332.53704     -421.35665      0              7594.0572      30.957001      21.340725      32.464927      21447.786      8152.2702      6992.7412      7637.1603     -580.2115       1304.2426      821.0553     
 209640000   255.48563     -422.03893     -336.47346     -422.11051      0              6195.6054      30.957001      21.340725      32.5365        21495.071      5386.7356      7958.5267      5241.554      -1764.3768     -322.53623     -274.57321    
 209642000   264.80068     -419.80784     -331.12264     -419.82267      0              5410.1396      30.957001      21.340725      32.427924      21423.341      4305.9266      6426.7249      5497.7674     -2058.9942      782.23469      604.0882     
 209644000   267.54672     -419.66486     -330.05998     -419.6773       0              5655.0944      30.957001      21.340725      32.682273      21591.375      5572.2518      6771.09        4621.9414     -35.664616      2426.6023     -1551.5135    
 209646000   260.41336     -419.00026     -331.78443     -419.01138      0              7164.5591      30.957001      21.340725      32.289478      21331.877      6304.9052      7796.0365      7392.7357      801.03155      327.98691     -1140.4479    
 209648000   265.20568     -419.41772     -330.59688     -419.4354       0              7274.7776      30.957001      21.340725      32.349108      21371.271      7960.402       7855.6487      6008.282      -803.4744      -294.382       -1301.9069    
 209650000   260.20578     -420.51803     -333.37172     -420.54731      0              6244.8273      30.957001      21.340725      32.453438      21440.197      7932.6256      5602.2662      5199.5902      922.10767     -761.48434      348.57676    
 209652000   257.22602     -422.13527     -335.98692     -422.14375      0              7148.7254      30.957001      21.340725      32.404943      21408.159      5500.6899      9228.1175      6717.3688     -1412.8415     -263.0113      -1108.5156    
 209654000   265.71259     -422.10994     -333.11934     -422.12708      0              5857.0532      30.957001      21.340725      32.418174      21416.899      4164.6166      5858.1917      7548.3512      1169.2066      429.01522      737.66359    
 209656000   262.12603     -421.31906     -333.52964     -421.32008      0              5932.3644      30.957001      21.340725      32.343862      21367.806      5797.2665      5105.3528      6894.4739     -467.44034      373.57446      806.81961    
 209658000   252.6062      -420.19417     -335.59306     -420.19598      0              4214.885       30.957001      21.340725      32.357211      21376.625      5032.191       3232.0897      4380.3741      357.49334     -427.57305     -116.77817    
 209660000   257.21959     -417.73185     -331.58566     -417.74873      0              5027.6212      30.957001      21.340725      32.581839      21525.024      4140.0465      5904.9435      5037.8736      184.8295      -313.43767     -104.81607    
 209662000   267.98173     -418.1297      -328.37912     -418.14226      0              5347.3066      30.957001      21.340725      32.432551      21426.398      4124.2403      5501.9895      6415.6899      259.18362     -1755.3639     -442.74357    
 209664000   260.84352     -419.75129     -332.3914      -419.75547      0              8302.7081      30.957001      21.340725      32.233463      21294.871      8892.9688      7015.7735      8999.382       54.489815      1072.0432     -98.349242    
 209666000   266.39308     -420.05106     -330.83255     -420.04468      0              7127.8344      30.957001      21.340725      32.180543      21259.91       6727.8804      8154.7881      6500.8346     -91.671747      1630.6501     -690.13699    
 209668000   264.10557     -416.94347     -328.49107     -416.9488       0              5696.7716      30.957001      21.340725      32.450635      21438.344      5207.5062      7591.5784      4291.2301      1562.458      -176.27884     -1519.9909    
 209670000   258.16186     -419.15748     -332.69571     -419.16363      0              5431.108       30.957001      21.340725      32.347556      21370.246      4166.8311      6544.4801      5582.0127     -527.09813      680.55287      1260.3495    
 209672000   258.80586     -421.93741     -335.25995     -421.92301      0              5309.8787      30.957001      21.340725      32.340661      21365.691      6677.0896      4724.9541      4527.5923     -53.240548      145.43512     -766.96421    
 209674000   267.04818     -420.19351     -330.75559     -420.19718      0              7596.455       30.957001      21.340725      32.266715      21316.839      6043.0134      6913.9694      9832.3823     -1926.7468      1427.494       271.36988    
 209676000   261.2117      -421.64457     -334.16137     -421.63759      0              6128.2628      30.957001      21.340725      32.291369      21333.127      4100.0578      5655.6521      8629.0784     -1006.2949      1119.6634      1025.1808    
 209678000   263.39557     -418.95248     -330.73787     -418.95498      0              6457.659       30.957001      21.340725      32.36956       21384.783      6943.171       6523.8112      5905.9947      817.95638     -111.22996     -1447.5227    
 209680000   259.58885     -422.1453      -335.2056      -422.14562      0              6840.2749      30.957001      21.340725      32.272464      21320.637      8398.6072      5956.4446      6165.7729     -948.07056     -427.63037     -46.223442    
 209682000   259.8914      -419.00716     -331.96614     -419.01351      0              5742.2603      30.957001      21.340725      32.363814      21380.987      6437.9816      5033.3489      5755.4504      1373.1364      62.913885      443.43146    
 209684000   258.18109     -418.6701      -332.20189     -418.66198      0              6328.1117      30.957001      21.340725      32.267867      21317.6        6052.4639      5807.6389      7124.2321     -485.44789     -479.27592      1152.4152    
 209686000   270.78584     -419.51694     -328.82723     -419.52275      0              5218.5544      30.957001      21.340725      32.383505      21393.996      5979.2201      5297.6746      4378.7685      346.21171     -212.82959     -915.71803    
 209688000   261.59767     -418.23457     -330.6221      -418.2413       0              6542.0513      30.957001      21.340725      32.42227       21419.606      5014.9113      8177.9108      6433.332      -1349.2258     -1241.1636      573.82432    
 209690000   261.95427     -423.00831     -335.2764      -423.00373      0              6727.3092      30.957001      21.340725      32.376113      21389.112      7356.9371      7703.9134      5121.0772      464.47262     -1427.5996      218.25313    
 209692000   254.54741     -415.89791     -330.64666     -415.91288      0              3876.2282      30.957001      21.340725      32.611875      21544.867      4508.5999      5083.8143      2036.2706      1739.2016     -1805.4227     -925.12457    
 209694000   258.82294     -419.5572      -332.87402     -419.56251      0              6696.9909      30.957001      21.340725      32.500374      21471.204      7842.9361      6307.0225      5941.0142     -1267.4319     -1356.4528      689.53747    
 209696000   258.71311     -422.02073     -335.37434     -422.00113      0              6173.1724      30.957001      21.340725      32.565509      21514.235      6405.6426      5723.7049      6390.1697      528.45032     -85.950295      712.17063    
 209698000   255.14013     -418.37261     -332.92285     -418.37356      0              7949.7427      30.957001      21.340725      32.488603      21463.428      5879.5502      9991.7426      7977.9353      717.46662      475.76477     -2085.4508    
 209700000   264.82302     -421.03352     -332.34084     -421.03975      0              6354.5533      30.957001      21.340725      32.61802       21548.927      6146.0205      6350.0985      6567.5409     -1162.4702      2099.3935     -756.16158    
 209702000   261.91955     -420.94334     -333.22307     -420.94909      0              6402.4395      30.957001      21.340725      32.523597      21486.547      5629.7872      6026.0189      7551.5123      921.39895     -1121.3235     -619.34327    
 209704000   255.80569     -420.10391     -334.43125     -420.11361      0              6822.4624      30.957001      21.340725      32.381992      21392.996      6291.5703      7777.6581      6398.159       733.81092      623.39193     -31.846445    
 209706000   255.49799     -421.61338     -336.04377     -421.61032      0              8412.7993      30.957001      21.340725      32.482436      21459.354      7427.5735      6964.5156      10846.309      976.64573      102.78978     -1612.3255    
 209708000   262.43566     -419.60558     -331.71246     -419.60155      0              8189.0838      30.957001      21.340725      32.35573       21375.646      8292.8257      7509.7034      8764.7223      1284.9346     -1151.3798      881.71979    
 209710000   257.10696     -421.5731      -335.46463     -421.58283      0              4555.9029      30.957001      21.340725      32.435183      21428.136      1259.9066      5104.1998      7303.6024      1720.0409      476.99631      218.12264    
 209712000   261.15112     -421.71809     -334.25518     -421.7164       0              5205.0736      30.957001      21.340725      32.463118      21446.591      6197.639       5588.5113      3829.0704     -1061.6693     -146.78644      536.96179    
 209714000   262.73216     -420.5         -332.50757     -420.50299      0              6263.3592      30.957001      21.340725      32.569596      21516.936      3678.8824      8435.4518      6675.7435      735.48957      600.9879       1405.8645    
 209716000   260.79057     -420.54783     -333.20567     -420.5452       0              5775.8619      30.957001      21.340725      32.482039      21459.091      6940.5594      4504.2175      5882.8087     -715.18374      446.489        550.82681    
 209718000   263.25255     -424.05486     -335.88815     -424.04696      0              3737.0345      30.957001      21.340725      32.431147      21425.47       3134.9529      4910.1418      3166.0087      1435.0275      910.19738     -730.18782    
 209720000   266.47842     -421.18691     -331.93981     -421.19967      0              4389.5208      30.957001      21.340725      32.656264      21574.192      3362.0261      4796.8518      5009.6844     -25.800571     -466.70193      420.57192    
 209722000   259.5617      -420.16194     -333.23134     -420.16116      0              8633.6044      30.957001      21.340725      32.415241      21414.962      6063.0293      8728.0342      11109.75       574.70121      320.96897      122.44227    
[...]
 210948000   253.54687     -419.01581     -334.09966     -418.98719      0              5645.515       30.957001      21.340725      32.319492      21351.706      4060.5085      4407.1249      8468.9116      1233.3239     -548.96024     -91.713016    
 210950000   259.38128     -420.69096     -333.82078     -420.66419      0              7845.6152      30.957001      21.340725      32.224473      21288.932      8936.2224      7003.0311      7597.5921      497.64912     -1794.4218      214.06184    
 210952000   260.01608     -417.75564     -330.67287     -417.74585      0              7083.6521      30.957001      21.340725      32.342919      21367.182      6042.6157      9632.5707      5575.7697      205.59292      337.34955     -150.17101    
 210954000   255.70762     -417.51456     -331.87475     -417.49253      0              5151.1244      30.957001      21.340725      32.383515      21394.002      7226.7533      4905.7138      3320.906       732.2428      -172.98156      1258.471     
 210956000   254.70153     -419.3775      -334.07464     -419.35939      0              5188.8361      30.957001      21.340725      32.463209      21446.651      2553.8004      7672.3374      5340.3704      1373.0032      1032.1969      342.28339    
 210958000   262.63558     -417.63036     -329.67028     -417.60795      0              6818.9348      30.957001      21.340725      32.460508      21444.867      5439.7047      6595.3552      8421.7446      160.36196      502.68416     -673.84531    
 210960000   262.376       -419.93568     -332.06253     -419.91646      0              7262.174       30.957001      21.340725      32.290302      21332.421      6366.2287      7735.3304      7684.9628      151.89642     -387.46526      404.16813    
 210962000   268.11182     -419.22828     -329.43414     -419.20125      0              5115.9681      30.957001      21.340725      32.482391      21459.324      4776.0028      5460.9929      5110.9087     -1084.8592      345.49606     -45.696179    
 210964000   254.87679     -420.92361     -335.56205     -420.89314      0              5272.329       30.957001      21.340725      32.392831      21400.157      5807.5806      5135.6817      4873.7248     -421.80623     -130.59227      413.75651    
 210966000   262.75041     -419.20597     -331.20744     -419.1864       0              6580.0749      30.957001      21.340725      32.522742      21485.982      7331.4966      4659.5407      7749.1873     -992.62583      92.623961     -186.14716    
 210968000   258.16584     -419.53781     -333.07471     -419.52481      0              6259.7058      30.957001      21.340725      32.502816      21472.818      5247.6656      4946.4828      8584.969      -1638.8908      134.04753      1006.0537    
 210970000   262.26672     -418.83434     -330.99779     -418.81091      0              7099.5486      30.957001      21.340725      32.579923      21523.759      7254.3345      6087.8718      7956.4396      3318.9193      1054.3045     -657.50939    
 210972000   260.88916     -416.66734     -329.29216     -416.646        0              5624.7751      30.957001      21.340725      32.499583      21470.682      5310.4918      5442.7512      6121.0824     -1604.9544      2089.9801     -725.72404    
 210974000   253.80915     -415.29231     -330.28832     -415.27664      0              6959.8358      30.957001      21.340725      32.439749      21431.153      9495.6767      4249.7988      7134.032      -1020.2652      561.50935     -1816.1095    
 210976000   255.80567     -418.01111     -332.33846     -417.97888      0              5585.6859      30.957001      21.340725      32.451489      21438.909      6091.737       5299.642       5365.6788      1288.0918     -2071.2834      1599.4345    
 210978000   267.63383     -418.93456     -329.3005      -418.91943      0              4943.3743      30.957001      21.340725      32.503028      21472.958      5830.7376      4809.0884      4190.297       82.200745     -1137.8841     -93.712519    
 210980000   255.02221     -418.14114     -332.73088     -418.1155       0              6809.5078      30.957001      21.340725      32.553543      21506.33       8466.9782      5791.4828      6170.0623     -1622.5549      587.41005     -1526.6592    
 210982000   259.623       -421.88026     -334.92913     -421.8555       0              5565.8855      30.957001      21.340725      32.67845       21588.85       5569.1356      5660.4833      5468.0376      803.7291      -1505.6446     -4.566922     
 210984000   263.45375     -419.26388     -331.02979     -419.24673      0              6537.7905      30.957001      21.340725      32.624102      21552.945      6500.3457      6286.0361      6826.9896      1217.5173      1245.4554      238.03274    
 210986000   256.08294     -420.86344     -335.09792     -420.84207      0              6144.4761      30.957001      21.340725      32.455489      21441.551      5962.0856      6756.518       5714.8246      1734.0468     -194.05695     -1155.9192    
 210988000   262.9207      -418.5605      -330.50493     -418.5397       0              7304.0902      30.957001      21.340725      32.469932      21451.093      8902.6214      7162.5908      5847.0583     -243.3613      -529.48387      648.75349    
 210990000   265.68828     -418.63296     -329.6505      -418.61349      0              5787.7612      30.957001      21.340725      32.358146      21377.242      5457.6087      6706.6531      5199.0219      612.74088     -1907.9174      1055.9529    
 210992000   265.14533     -417.42536     -328.62473     -417.40012      0              7865.0059      30.957001      21.340725      32.347832      21370.428      7991.6849      8062.8664      7540.4664     -1552.7865      809.26133     -158.33863    
 210994000   265.09516     -419.82971     -331.04589     -419.80794      0              8489.2023      30.957001      21.340725      32.340715      21365.727      8239.4647      10029.277      7198.8654     -1004.5667     -334.42991      849.35772    
 210996000   264.72833     -418.87926     -330.21829     -418.86171      0              8137.2459      30.957001      21.340725      32.303072      21340.858      5748.2769      9088.7404      9574.7204      571.43352     -234.57432      976.20797    
 210998000   259.27645     -417.82455     -330.98948     -417.80074      0              6658.9403      30.957001      21.340725      32.456954      21442.519      6600.6828      6485.7122      6890.4257     -1350.7002     -29.096266      989.69831    
 211000000   251.27322     -417.82568     -333.67101     -417.81625      0              7285.5517      30.957001      21.340725      32.530416      21491.052      5695.9484      8301.8937      7858.813       420.47918     -340.46239      1580.4288    
 211002000   262.22516     -417.90722     -330.0846      -417.88865      0              7021.0924      30.957001      21.340725      32.618926      21549.525      7981.1034      6050.4718      7031.7019      1098.4065     -247.2403       595.03619    
 211004000   263.35669     -420.90693     -332.70534     -420.88028      0              5068.2501      30.957001      21.340725      32.378632      21390.777      5346.1809      4460.7968      5397.7727     -1814.3516      192.71294      1416.2913    
 211006000   256.06597     -418.43402     -332.67419     -418.42906      0              5969.4897      30.957001      21.340725      32.429083      21424.106      4963.5183      7233.4581      5711.4927     -662.60913     -382.13664     -369.86752    
 211008000   271.24374     -417.47011     -326.62704     -417.45343      0              6361.416       30.957001      21.340725      32.347219      21370.023      5891.6423      6548.3214      6644.2844     -943.05522     -673.85242     -525.38438    
 211010000   255.81539     -417.15838     -331.48246     -417.15267      0              6033.405       30.957001      21.340725      32.505154      21474.362      5771.7783      6028.3055      6300.1313      390.38644      266.55918     -257.78493    
 211012000   266.53541     -417.94975     -328.68357     -417.94663      0              5037.4386      30.957001      21.340725      32.474177      21453.897      5782.648       4162.2544      5167.4136     -949.72631     -824.90066     -403.64234    
 211014000   256.11448     -416.50876     -330.73268     -416.52279      0              7110.8883      30.957001      21.340725      32.642247      21564.932      7877.3183      5625.0397      7830.3069      123.63022     -772.92326      526.65034    
 211016000   258.55511     -419.7946      -333.20112     -419.77391      0              5466.5752      30.957001      21.340725      32.581177      21524.586      6032.4647      7671.4568      2695.804      -693.21865     -818.20671      300.02254    
 211018000   265.3347      -419.56976     -330.70571     -419.5591       0              4463.6319      30.957001      21.340725      32.616719      21548.067      3635.3901      5574.2123      4181.2934      594.92346     -262.27737     -455.73254    
 211020000   263.18199     -417.48457     -329.34149     -417.47349      0              6308.2085      30.957001      21.340725      32.638148      21562.224      6132.149       8030.4884      4761.9882     -1061.5905     -1147.6132     -168.31343    
 211022000   254.75851     -421.28212     -335.96017     -421.26195      0              4094.3165      30.957001      21.340725      32.719045      21615.669      2930.1765      4737.896       4614.8771      346.59981      79.987577      1555.4183    
 211024000   268.1746      -415.9259      -326.11073     -415.91701      0              4799.5748      30.957001      21.340725      32.622729      21552.038      5360.1157      4707.6904      4330.9182      1722.4564     -722.01656      1563.2881    
 211026000   260.61851     -419.54812     -332.26358     -419.53679      0              6862.3592      30.957001      21.340725      32.681116      21590.611      5196.4656      7840.8294      7549.7825      503.03178     -651.08423     -541.17259    
 211028000   253.0789      -420.13421     -335.37478     -420.12296      0              3867.8673      30.957001      21.340725      32.648595      21569.126      5488.3713      2921.5529      3193.6776     -97.481241     -1495.3871      2151.0221    
 211030000   254.26922     -420.88259     -335.72451     -420.85893      0              8216.3305      30.957001      21.340725      32.639095      21562.85       7305.7132      9109.0743      8234.2039      300.88328      517.75712     -1262.9506    
 211032000   260.07392     -420.60865     -333.50651     -420.58199      0              5947.7725      30.957001      21.340725      32.54584       21501.241      6074.8831      6118.4036      5650.0309     -1289.2961     -864.32536      169.41366    
 211034000   264.99326     -417.15384     -328.40415     -417.13737      0              7618.5336      30.957001      21.340725      32.646428      21567.694      8954.589       8027.3738      5873.6381      581.10291      442.35205     -958.97196    
 211036000   263.10215     -419.33984     -331.2235      -419.33126      0              4218.5522      30.957001      21.340725      32.677565      21588.265      3308.1471      3262.7492      6084.7604      162.5263       1072.9931     -2203.2685    
 211038000   257.73787     -418.90582     -332.58604     -418.88182      0              5952.6912      30.957001      21.340725      32.471398      21452.062      3281.4715      8044.2637      6532.3383     -138.1923      -565.32894      879.3361     
 211040000   258.64053     -420.3349      -333.71281     -420.3142       0              4147.8754      30.957001      21.340725      32.542872      21499.281      6203.8749      2503.326       3736.4253     -71.857919      1169.2252     -1369.5952    
 211042000   265.49166     -419.03897     -330.12235     -419.01679      0              6409.2747      30.957001      21.340725      32.484534      21460.74       6592.6244      6444.4022      6190.7975      773.3888       1050.8375      481.23758    
 211044000   265.15516     -419.10301     -330.29909     -419.08418      0              6144.3799      30.957001      21.340725      32.513549      21479.908      3696.7936      7590.6267      7145.7193     -783.92407      1507.3693     -134.20455    
 211046000   270.77179     -419.97227     -329.28727     -419.94741      0              7681.7409      30.957001      21.340725      32.535688      21494.535      8258.4242      7658.5645      7128.234       977.68968      1027.5753     -825.95182    
 211048000   264.45133     -419.56281     -330.99461     -419.54723      0              6075.1028      30.957001      21.340725      32.591565      21531.449      6171.0024      4693.096       7361.2101     -1029.5905      1188.3533     -428.18145    
 211050000   260.21089     -421.82893     -334.68091     -421.79718      0              6183.5573      30.957001      21.340725      32.522503      21485.824      4611.8518      6094.9734      7843.8467     -242.30368      922.61916      889.63467    
 211052000   252.03434     -421.39812     -336.98853     -421.38477      0              6597.1334      30.957001      21.340725      32.549297      21503.525      7562.7126      6497.7851      5730.9025     -50.736287     -1615.2436     -21.220628    
 211054000   260.42713     -419.01864     -331.7982      -418.99632      0              5210.5512      30.957001      21.340725      32.493642      21466.757      4296.2426      6816.7671      4518.644       311.21494      2150.5841      1791.0566    
 211056000   257.11825     -420.04638     -333.93413     -420.01815      0              6205.4718      30.957001      21.340725      32.341113      21365.99       5845.1061      6941.1212      5830.1881     -572.60254     -143.04023     -1491.7382    
 211058000   259.76417     -421.5787      -334.58029     -421.54654      0              6581.9776      30.957001      21.340725      32.5684        21516.146      6405.2542      5617.0222      7723.6563     -258.64555      149.53683      406.91066    
 211060000   254.32267     -421.91388     -336.7379      -421.88402      0              5713.7879      30.957001      21.340725      32.512679      21479.334      5185.0827      5561.6088      6394.6721     -327.58003      514.11972     -848.19083    
 211062000   262.84882     -421.49514     -333.46365     -421.47267      0              6395.9696      30.957001      21.340725      32.458992      21443.866      4503.8611      6652.4398      8031.6079     -696.83931      900.55476      553.14442    
 211064000   256.45373     -422.30544     -336.41575     -422.27986      0              6024.4257      30.957001      21.340725      32.430953      21425.342      4682.7545      5552.4476      7838.0749      55.405751     -200.09096      674.67528    
 211066000   251.16156     -420.54369     -336.42641     -420.51712      0              5254.1914      30.957001      21.340725      32.444809      21434.496      5414.3301      5011.3582      5336.886      -124.83933     -1056.1188      512.584      
 211068000   260.87137     -420.26263     -332.89341     -420.23149      0              6966.0781      30.957001      21.340725      32.527322      21489.008      5914.1977      8925.0488      6058.9877      215.87194      1508.5467      26.731693    
 211070000   254.73937     -420.55273     -335.23719     -420.5265       0              5414.5817      30.957001      21.340725      32.595126      21533.802      6971.9718      6145.317       3126.4563      693.18832     -612.56765     -248.88667    
 211072000   250.26396     -421.57248     -337.75582     -421.54491      0              6258.6212      30.957001      21.340725      32.548365      21502.909      4943.2173      6299.5212      7533.125      -345.06968      1445.7462     -361.54059    
 211074000   264.60189     -419.96114     -331.34252     -419.93547      0              5047.7215      30.957001      21.340725      32.626208      21554.336      7405.562       2967.528       4770.0744      185.44524     -1469.7502     -1244.4475    
 211076000   251.5536      -420.588       -336.33942     -420.55548      0              5214.9274      30.957001      21.340725      32.66858       21582.329      7191.509       3415.2625      5038.0106     -768.49229     -15.630396      281.6065     
 211078000   260.79808     -421.09447     -333.74979     -421.0662       0              6652.01        30.957001      21.340725      32.581848      21525.03       7933.8224      4230.3946      7791.8129     -411.62237      80.303926     -1097.9193    
 211080000   263.27958     -419.26609     -331.09033     -419.23511      0              5205.4382      30.957001      21.340725      32.542836      21499.257      6763.7132      4606.8668      4245.7347      671.98722      2.6477015      1104.2214    
 211082000   263.85462     -423.46411     -335.09576     -423.42813      0              4911.8597      30.957001      21.340725      32.595714      21534.191      3503.9072      4918.7884      6312.8837      289.79209     -1632.9256     -1135.929     
 211084000   268.48224     -420.06297     -330.14477     -420.0326       0              6431.5195      30.957001      21.340725      32.636495      21561.132      5812.6659      8590.1237      4891.7689      2056.483      -532.85944     -1435.0319    
 211086000   255.46293     -422.16114     -336.60327     -422.12878      0              7444.4748      30.957001      21.340725      32.733088      21624.946      7175.4811      7806.9442      7350.9989      889.88941      1273.3507      499.58769    
 211088000   259.3747      -422.49521     -335.62724     -422.45467      0              5424.0488      30.957001      21.340725      32.462266      21446.029      6246.8271      4564.7445      5460.5749      729.05508      931.77547     -1323.4207    
 211090000   248.22683     -421.22468     -338.09028     -421.18429      0              6800.7896      30.957001      21.340725      32.297825      21337.392      6666.9636      8131.5997      5603.8055      361.19096      400.99949     -15.543301    
 211092000   266.77437     -422.14509     -332.79888     -422.10847      0              7150.5582      30.957001      21.340725      32.480605      21458.144      8241.5401      8464.6586      4745.4758     -364.7839       1978.9304     -2488.4684    
 211094000   259.76721     -423.83064     -336.83121     -423.79062      0              6057.2185      30.957001      21.340725      32.616804      21548.124      7461.4615      5566.8154      5143.3787     -959.85924      732.71121     -1093.7907    
 211096000   262.70921     -421.56521     -333.58047     -421.52887      0              6122.7326      30.957001      21.340725      32.735985      21626.86       4883.1491      7838.1677      5646.8809      481.641        1217.4823      593.63348    
 211098000   260.67677     -422.61104     -335.307       -422.57798      0              5609.4862      30.957001      21.340725      32.682768      21591.702      3682.9131      8765.6036      4379.942       1222.3474     -830.13458     -2326.2333    
 211100000   267.1948      -424.11043     -334.62341     -424.07056      0              3972.2718      30.957001      21.340725      32.726238      21620.42       3439.3292      3505.5744      4971.9117      824.86145     -844.88003      343.0862     
 211102000   263.15904     -419.77924     -331.64384     -419.73989      0              5950.9246      30.957001      21.340725      32.668091      21582.006      7151.179       6820.0619      3881.5328     -115.86963     -155.98916     -1192.0323    
 211104000   252.9517      -421.34649     -336.62967     -421.30599      0              7061.7739      30.957001      21.340725      32.565288     