LAMMPS (23 Jun 2022)
include procedure.lmp
echo both
include		in.partitions
variable        pid world 0
include		in.temp
variable	temperature equal 260
variable        tempDamp equal 0.100 # this is 0.1 ps
include		in.pressure
variable        pressure equal 6079.5
variable        pressureDamp equal 1.0 #this is 1ps

variable	barostat string	   tri
variable	direction string   z
variable	direction_x_bool equal 0
variable	direction_y_bool equal 0
variable	direction_z_bool equal 1

include		in.seed
variable        seed world 745823

units           metal
atom_style	full
box tilt large
read_restart 	restart.lmp.${pid}
read_restart 	restart.lmp.0
Reading restart file ...
  restart file = 23 Jun 2022, LAMMPS = 23 Jun 2022
  restoring atom style full from restart
  triclinic box = (0 0 -0.7924061) to (30.957001 21.340725 31.65757) with tilt (-9.151055 1.0562918 -10.742422)
WARNING: Triclinic box skew is large (../domain.cpp:224)
  2 by 1 by 2 MPI processor grid
Summary of lammps deepmd module ...
  >>> Info of deepmd-kit:
  installed to:       /u/sigbjobo/software/DEEPMD_FROM_SOURCE/deepmd-kit/install
  source:             v2.1.3
  source branch:       master
  source commit:      5a32c49
  source commit at:   2022-07-01 09:52:58 +0800
  surpport model ver.:1.1 
  build float prec:   double
  build with tf inc:  /u/sigbjobo/software/DEEPMD_FROM_SOURCE/tensorflow/install/include;/u/sigbjobo/software/DEEPMD_FROM_SOURCE/tensorflow/install/include
  build with tf lib:  /u/sigbjobo/software/DEEPMD_FROM_SOURCE/tensorflow/install/lib/libtensorflow_cc.so;/u/sigbjobo/software/DEEPMD_FROM_SOURCE/tensorflow/install/lib/libtensorflow_framework.so
  set tf intra_op_parallelism_threads: 0
  set tf inter_op_parallelism_threads: 0
  >>> Info of lammps module:
  use deepmd-kit at:  /u/sigbjobo/software/DEEPMD_FROM_SOURCE/deepmd-kit/install
  source:             v2.1.3
  source branch:      master
  source commit:      5a32c49
  source commit at:   2022-07-01 09:52:58 +0800
  build float prec:   double
  build with tf inc:  /u/sigbjobo/software/DEEPMD_FROM_SOURCE/tensorflow/install/include;/u/sigbjobo/software/DEEPMD_FROM_SOURCE/tensorflow/install/include
  build with tf lib:  /u/sigbjobo/software/DEEPMD_FROM_SOURCE/tensorflow/install/lib/libtensorflow_cc.so;/u/sigbjobo/software/DEEPMD_FROM_SOURCE/tensorflow/install/lib/libtensorflow_framework.so
  restoring pair style deepmd from restart
  2592 atoms
Finding 1-2 1-3 1-4 neighbors ...
  special bond factors lj:    0        0        0       
  special bond factors coul:  0        0        0       
     0 = max # of 1-2 neighbors
     0 = max # of 1-3 neighbors
     0 = max # of 1-4 neighbors
     1 = max # of special neighbors
  special bonds CPU = 0.000 seconds
  read_restart CPU = 0.039 seconds
include 	in.setup
variable	out_freq equal 2000
variable	out_freq2 equal 2000

timestep        0.0005

neigh_modify    delay 7 every 1

include         in.deepmd
# This is deepMD model

# create groups ###
#group ox type 2
#group hy type 1

mass 2 15.999
mass 1 1.008

pair_style      deepmd ../graph.pb
pair_coeff      * *

bond_style      none
angle_style     none
dihedral_style  none
improper_style  none
neigh_modify exclude none


neighbor        2.0 bin
neigh_modify    every 50 delay 0 check no

thermo          ${out_freq}
thermo          2000
thermo_style 	custom step temp pe etotal epair emol press lx ly lz vol pxx pyy pzz pxy pxz pyz

restart 	${out_freq} restart.lmp.${pid} restart2.lmp.${pid}
restart 	2000 restart.lmp.${pid} restart2.lmp.${pid}
restart 	2000 restart.lmp.0 restart2.lmp.${pid}
restart 	2000 restart.lmp.0 restart2.lmp.0


timer           timeout 23:50:00 every 1000
New timer settings: style=normal  mode=nosync  timeout=23:50:00


# Set number of time steps
variable 	nsteps_wall		equal	 6000000
variable 	nsteps_enhanced_coex    equal	60000000

variable     nsteps_enhanced_coex_upto equal (${nsteps_wall}+${nsteps_enhanced_coex})
variable     nsteps_enhanced_coex_upto equal (6000000+${nsteps_enhanced_coex})
variable     nsteps_enhanced_coex_upto equal (6000000+60000000)


# Set temperature for first step
if "$(step) < 1  " then    "velocity 	all create ${temperature} ${seed} dist gaussian"


# Always run thermo and barostat


######################################
# Run simulation with wall potential #
######################################
if " $(step) < ${nsteps_wall} " then    "fix             3 all plumed plumedfile plumed.equil.dat outfile plumed.equil.out"   "fix             1 all nph ${direction} ${pressure} ${pressure} ${pressureDamp}"   "fix             2 all temp/csvr ${temperature} ${temperature} ${tempDamp} ${seed}"   "run             ${nsteps_wall} upto"
if " $(step) == ${nsteps_wall} " then    "unfix 3"   "unfix 1"   "unfix 2"


############################
# Run enhanced coesistence #
############################
if "$(step) == ${nsteps_wall}" then    "fix             3 all plumed plumedfile plumed.start.dat outfile plumed.out" else    "fix             3 all plumed plumedfile plumed.dat outfile plumed.out"
fix             3 all plumed plumedfile plumed.dat outfile plumed.out

if "$(step) < ${nsteps_enhanced_coex_upto} && $(step) >= ${nsteps_wall} " then    "include         in.dump"    "fix             1 all nph ${direction} ${pressure} ${pressure} ${pressureDamp}"   "fix             2 all temp/csvr ${temperature} ${temperature} ${tempDamp} ${seed}"   "run             ${nsteps_enhanced_coex_upto} upto"    "unfix 3"   "unfix 1"   "unfix 2"
include         in.dump
dump            myDump all atom ${out_freq2} dump.water.${pid}
dump            myDump all atom 2000 dump.water.${pid}
dump            myDump all atom 2000 dump.water.0
dump            myDump2 all dcd ${out_freq2} dump.${pid}.dcd
dump            myDump2 all dcd 2000 dump.${pid}.dcd
dump            myDump2 all dcd 2000 dump.0.dcd
dump_modify     myDump append yes
dump_modify     myDump2 append yes

fix             1 all nph ${direction} ${pressure} ${pressure} ${pressureDamp}
fix             1 all nph z ${pressure} ${pressure} ${pressureDamp}
fix             1 all nph z 6079.5 ${pressure} ${pressureDamp}
fix             1 all nph z 6079.5 6079.5 ${pressureDamp}
fix             1 all nph z 6079.5 6079.5 1
Resetting global fix info from restart file:
  fix style: nph, fix ID: 1
fix             2 all temp/csvr ${temperature} ${temperature} ${tempDamp} ${seed}
fix             2 all temp/csvr 260 ${temperature} ${tempDamp} ${seed}
fix             2 all temp/csvr 260 260 ${tempDamp} ${seed}
fix             2 all temp/csvr 260 260 0.1 ${seed}
fix             2 all temp/csvr 260 260 0.1 745823
Resetting global fix info from restart file:
  fix style: temp/csvr, fix ID: 2
run             ${nsteps_enhanced_coex_upto} upto
run             66000000 upto

CITE-CITE-CITE-CITE-CITE-CITE-CITE-CITE-CITE-CITE-CITE-CITE-CITE

Your simulation uses code contributions which should be cited:

- USER-DEEPMD package:

@article{Wang_ComputPhysCommun_2018_v228_p178,
  author = {Wang, Han and Zhang, Linfeng and Han, Jiequn and E, Weinan},
  doi = {10.1016/j.cpc.2018.03.016},
  url = {https://doi.org/10.1016/j.cpc.2018.03.016},
  year = 2018,
  month = {jul},
  publisher = {Elsevier {BV}},
  volume = 228,
  journal = {Comput. Phys. Commun.},
  title = {{DeePMD-kit: A deep learning package for many-body potential energy representation and molecular dynamics}},
  pages = {178--184}
}

CITE-CITE-CITE-CITE-CITE-CITE-CITE-CITE-CITE-CITE-CITE-CITE-CITE

Generated 0 of 1 mixed pair_coeff terms from geometric mixing rule
All restart file global fix info was re-assigned
Neighbor list info ...
  update every 50 steps, delay 0 steps, check no
  max neighbors/atom: 2000, page size: 100000
  master list distance cutoff = 8
  ghost atom cutoff = 8
  binsize = 4, bins = 11 9 9
  1 neighbor lists, perpetual/occasional/extra = 1 0 0
  (1) pair deepmd, perpetual
      attributes: full, newton on
      pair build: full/bin
      stencil: full/bin/3d
      bin: standard
Per MPI rank memory allocation (min/avg/max) = 7.309 | 7.311 | 7.313 Mbytes
   Step          Temp          PotEng         TotEng         E_pair         E_mol          Press            Lx             Ly             Lz           Volume          Pxx            Pyy            Pzz            Pxy            Pxz            Pyz      
  32038000   266.46233     -419.09509     -329.85338     -419.09509      0              7615.2423      30.957001      21.340725      32.449976      21437.909      7051.2929      9531.3847      6263.0493      2749.4109     -323.2943      -281.34008    
  32040000   263.83575     -418.88413     -330.5221      -418.8679       0              6505.268       30.957001      21.340725      32.499195      21470.425      8014.9987      6075.8259      5424.9794     -2479.5491     -1858.8815      402.38995    
  32042000   265.85572     -416.58354     -327.54499     -416.56703      0              6808.7036      30.957001      21.340725      32.388678      21397.413      8903.3937      6711.0897      4811.6274     -1385.9318     -694.97795     -1397.6272    
  32044000   256.35044     -418.39471     -332.53961     -418.38345      0              8134.5501      30.957001      21.340725      32.384674      21394.768      7354.0999      7353.4844      9696.0662     -364.38415     -888.43215      602.18443    
  32046000   250.20725     -420.67375     -336.87608     -420.66834      0              7276.8065      30.957001      21.340725      32.518724      21483.327      7737.8119      8375.3809      5717.2266      1334.905       517.88071     -73.091832    
  32048000   267.53087     -418.74397     -329.1444      -418.72782      0              5236.5584      30.957001      21.340725      32.437412      21429.609      5298.1955      5697.1666      4714.3132      583.45497     -1315.8384     -486.64653    
  32050000   257.53146     -417.26227     -331.01163     -417.25793      0              6051.8542      30.957001      21.340725      32.646856      21567.977      6659.9924      5329.4051      6166.1652     -648.85399      538.44528      398.96782    
  32052000   260.58729     -419.54583     -332.27175     -419.53039      0              6837.4463      30.957001      21.340725      32.601636      21538.103      7245.0885      7116.528       6150.7223      133.21807     -794.66611     -2211.1544    
  32054000   262.29362     -417.88062     -330.03506     -417.86653      0              6327.9274      30.957001      21.340725      32.477073      21455.811      6286.4713      5215.6137      7481.6973     -1326.7991     -1255.2733      290.65057    
  32056000   261.77518     -419.79425     -332.12233     -419.78644      0              5990.8925      30.957001      21.340725      32.668366      21582.188      6159.3977      4764.2301      7049.0497      122.39518     -355.71621      706.74286    
  32058000   259.30113     -420.09753     -333.25421     -420.10449      0              6476.2087      30.957001      21.340725      32.55977       21510.444      6226.7237      6733.4193      6468.483      -643.87001      1717.1434     -1935.4793    
  32060000   262.53318     -421.41866     -333.49288     -421.4123       0              7781.2292      30.957001      21.340725      32.670743      21583.758      6981.0367      9106.8219      7255.829       309.36355      903.26364     -188.73182    
  32062000   257.92651     -419.54338     -333.16043     -419.54472      0              6664.9212      30.957001      21.340725      32.626367      21554.441      7231.6798      6431.9364      6331.1475      1714.3904     -777.55371      312.81614    
  32064000   260.78409     -419.28794     -331.94795     -419.27485      0              6308.3335      30.957001      21.340725      32.665454      21580.264      8868.6051      7204.3635      2852.0319     -2045.5407     -683.85329     -851.08189    
  32066000   257.48284     -421.69873     -335.46437     -421.68365      0              4673.2295      30.957001      21.340725      32.856848      21706.707      4584.0062      3346.2206      6089.4616      340.75683     -10.401003      1482.5929    
  32068000   252.84609     -416.32572     -331.64427     -416.33108      0              6804.806       30.957001      21.340725      32.619356      21549.809      7769.4906      5905.5406      6739.3869     -1356.3125      981.86001      921.64958    
  32070000   257.43257     -419.01314     -332.79562     -419.00639      0              6216.9304      30.957001      21.340725      32.602067      21538.388      5013.693       7027.4353      6609.6629      66.643906      1274.7227     -1616.8318    
  32072000   263.48221     -423.23961     -334.99598     -423.22209      0              7575.0937      30.957001      21.340725      32.59712       21535.12       6838.5031      7398.4791      8488.299       569.64787     -1094.6119      427.99881    
  32074000   258.48942     -421.06559     -334.49412     -421.04477      0              8457.4261      30.957001      21.340725      32.424558      21421.117      7522.3317      8938.8711      8911.0753     -121.76439     -323.48023      75.009063    
  32076000   262.31293     -420.30019     -332.44817     -420.30117      0              6541.0771      30.957001      21.340725      32.503633      21473.358      5313.8266      5830.8411      8478.5636      755.62894      917.68889      1270.7828    
  32078000   260.2756      -421.38408     -334.21439     -421.36832      0              5659.3197      30.957001      21.340725      32.495156      21467.757      5103.495       4111.0573      7763.4069     -203.72568      646.3746       483.37473    
  32080000   264.75014     -416.62726     -327.95899     -416.6147       0              5204.4188      30.957001      21.340725      32.491554      21465.378      4363.1788      6711.4215      4538.656       1172.8587      757.47624     -507.75345    
  32082000   267.11595     -419.68684     -330.22622     -419.6712       0              6970.2886      30.957001      21.340725      32.513765      21480.051      7679.8659      6220.9252      7010.0747      179.18452     -209.55493     -782.74914    
  32084000   257.25961     -424.1967      -338.0371      -424.17686      0              8476.0653      30.957001      21.340725      32.59209       21531.796      7784.5966      8855.0894      8788.51       -299.26311      1683.6749     -656.71317    
  32086000   263.69212     -418.2721      -329.95817     -418.2704       0              7898.6787      30.957001      21.340725      32.566172      21514.674      6761.1987      9406.3948      7528.4427     -655.03317      434.52949     -980.78627    
  32088000   258.79807     -420.71907     -334.04423     -420.70024      0              3610.1873      30.957001      21.340725      32.624934      21553.495      2399.4648      4752.1661      3678.931      -417.91195      1468.2727      406.55725    
  32090000   263.40299     -418.82674     -330.60964     -418.81117      0              6802.061       30.957001      21.340725      32.552483      21505.63       6376.0648      6756.5062      7273.6119     -324.53404      1690.9437      1293.8042    
  32092000   259.80286     -418.43498     -331.42362     -418.41989      0              5533.3523      30.957001      21.340725      32.667887      21581.871      3763.9864      6879.5553      5956.5153      544.10821      1036.4028     -287.21233    
  32094000   261.67629     -418.69273     -331.05393     -418.6752       0              6227.5745      30.957001      21.340725      32.552311      21505.516      7039.2516      4871.3291      6772.143      -654.20501     -661.43151      658.45766    
  32096000   263.45551     -423.17556     -334.94087     -423.15434      0              6413.8071      30.957001      21.340725      32.651232      21570.868      6755.6271      7013.674       5472.1204      1839.1002      513.7033       1622.5595    
  32098000   265.15865     -417.70604     -328.90095     -417.6849       0              3685.9316      30.957001      21.340725      32.752223      21637.588      3160.5559      4640.3693      3256.8696      904.58362      214.92642     -247.82855    
  32100000   255.59556     -419.58575     -333.98347     -419.5662       0              4278.5453      30.957001      21.340725      32.836249      21693.099      4752.5411      3627.2931      4455.8017      1086.147      -383.12522      864.16969    
  32102000   256.11956     -421.60286     -335.82508     -421.58208      0              4903.6063      30.957001      21.340725      32.814567      21678.774      3544.3449      7506.9087      3659.5654      823.06469     -511.79155     -1600.7282    
  32104000   263.37319     -420.10841     -331.9013      -420.08718      0              5154.7078      30.957001      21.340725      32.706699      21607.512      5772.7494      5460.9197      4230.4542     -1985.3211      848.64366     -1115.3507    
  32106000   265.64893     -421.69645     -332.72716     -421.67394      0              6780.5559      30.957001      21.340725      32.698644      21602.191      6011.5182      7279.6078      7050.5417      704.21417      1917.3309     -1893.4016    
  32108000   264.60792     -419.94248     -331.32183     -419.92859      0              5488.013       30.957001      21.340725      32.747064      21634.179      4153.7879      6035.0988      6275.1524      1524.5642     -2025.4411      43.676301    
  32110000   265.98868     -419.22985     -330.14678     -419.22466      0              7871.6155      30.957001      21.340725      32.72497       21619.583      7912.5345      10161.233      5541.079      -242.54228     -740.54037      450.66918    
  32112000   263.0924      -420.9158      -332.80273     -420.89537      0              5467.1912      30.957001      21.340725      32.586637      21528.194      5563.2897      6048.7736      4789.5104      1788.4993      300.89523      444.40007    
  32114000   265.0236      -420.24885     -331.48899     -420.229        0              6041.7904      30.957001      21.340725      32.600346      21537.25       5187.0416      7951.7975      4986.5321      324.08065     -676.76976      734.46257    
  32116000   253.89836     -421.80554     -336.77167     -421.79079      0              6026.2607      30.957001      21.340725      32.524565      21487.186      5610.4777      6493.305       5974.9995     -193.57012     -911.41212     -604.32771    
  32118000   268.32703     -419.0986      -329.23237     -419.07825      0              5303.9294      30.957001      21.340725      32.597414      21535.313      6410.2421      5165.4599      4336.0862      877.37421     -1119.9455      109.71006    
  32120000   259.60637     -421.26638     -334.32082     -421.25088      0              6277.1484      30.957001      21.340725      32.7373        21627.728      6675.0372      6475.5361      5680.8717      391.61118     -1727.2639      803.25089    
  32122000   261.29131     -419.85251     -332.34264     -419.83729      0              7145.9593      30.957001      21.340725      32.668834      21582.497      7950.3857      7075.2856      6412.2065     -721.6144       1251.0738      862.5614     
  32124000   261.23203     -421.22226     -333.73225     -421.20584      0              4669.5768      30.957001      21.340725      32.762353      21644.279      5860.4741      3819.2412      4329.0151      813.20054     -349.3945      -110.61383    
  32126000   257.41933     -417.80716     -331.59407     -417.79385      0              5293.8403      30.957001      21.340725      32.679473      21589.525      5674.4958      3855.854       6351.1711      768.90641     -99.575135     -683.96409    
  32128000   265.31824     -417.29597     -328.43743     -417.28127      0              5739.6847      30.957001      21.340725      32.833629      21691.367      4530.5598      6077.3659      6611.1282     -1146.0473      434.5665       993.2989     
  32130000   259.25198     -423.65674     -336.82987     -423.63723      0              6837.1602      30.957001      21.340725      32.695775      21600.295      7033.8138      5841.7425      7635.9242     -284.38496     -482.64907     -1019.6022    
  32132000   260.34283     -416.49519     -329.30298     -416.47511      0              6887.5101      30.957001      21.340725      32.588703      21529.559      7663.5068      4065.2547      8933.769      -1697.1594      1366.8225     -172.10321    
  32134000   256.91183     -417.15345     -331.11033     -417.1386       0              7677.3395      30.957001      21.340725      32.81587       21679.635      6431.3575      8162.2098      8438.4511      2092.7769      73.934575      1131.1413    
  32136000   263.4685      -416.66107     -328.42204     -416.65684      0              5423.8492      30.957001      21.340725      32.873437      21717.667      6345.7152      4265.4627      5660.3697     -1477.8948     -330.65677     -126.57709    
  32138000   254.94786     -418.03434     -332.64897     -418.02955      0              5400.8431      30.957001      21.340725      32.576957      21521.799      5381.3527      5996.6388      4824.5379     -672.98275      380.88185     -143.49782    
  32140000   269.48608     -420.10096     -329.84656     -420.08454      0              7128.6141      30.957001      21.340725      32.620577      21550.616      6121.0369      8694.4395      6570.366      -360.01968      850.9367      -58.368002    
  32142000   254.45155     -421.01279     -335.79365     -420.99359      0              5881.7583      30.957001      21.340725      32.667095      21581.348      4887.5345      7171.686       5586.0543     -1632.8394      2118.0489      364.26559    
  32144000   260.38591     -419.13941     -331.93277     -419.12047      0              6413.9625      30.957001      21.340725      32.415209      21414.94       5664.4458      3316.1173      10261.324     -1117.3825     -212.95962     -373.70813    
  32146000   263.33778     -417.91157     -329.71631     -417.89081      0              6851.2992      30.957001      21.340725      32.489074      21463.739      7715.4121      6577.2513      6261.2341      38.10287      -350.91183     -675.71706    
  32148000   259.88483     -417.81127     -330.77246     -417.79075      0              6667.4296      30.957001      21.340725      32.653752      21572.533      6961.3202      6481.1015      6559.8672      1231.6216     -365.18016     -353.32032    
  32150000   274.12795     -420.8986      -329.08957     -420.86478      0              8505.0757      30.957001      21.340725      32.603426      21539.285      8822.344       9214.3365      7478.5466      1901.5753      1160.4375     -125.57598    
  32152000   259.18734     -421.13845     -334.33323     -421.10143      0              6048.6715      30.957001      21.340725      32.542952      21499.334      6462.9298      7391.0362      4292.0484      267.93914     -902.07909     -2065.4381    
  32154000   264.06615     -420.74313     -332.30393     -420.68975      0              7113.478       30.957001      21.340725      32.363413      21380.722      7733.1707      6757.4747      6849.7885      931.92142      1201.7201      621.16798    
  32156000   267.31613     -418.8303      -329.30264     -418.80413      0              4144.3298      30.957001      21.340725      32.552513      21505.65       3321.6258      5259.062       3852.3015     -353.68991      1840.6551     -625.72839    
  32158000   258.96548     -418.81636     -332.08544     -418.78546      0              7473.559       30.957001      21.340725      32.589068      21529.8        7547.3627      8428.9746      6444.3398     -977.83157     -2389.2926     -2127.5411    
  32160000   255.40125     -420.591       -335.05379     -420.57181      0              8041.923       30.957001      21.340725      32.630863      21557.411      6117.1632      9940.2933      8068.3123      441.48393     -112.88578     -380.41093    
  32162000   263.70305     -421.01194     -332.69435     -420.96368      0              5061.0545      30.957001      21.340725      32.818721      21681.519      5019.2835      5327.6935      4836.1864      1905.6891      190.2715      -1622.701     
  32164000   261.965       -421.13227     -333.39678     -421.11246      0              6599.7389      30.957001      21.340725      32.768729      21648.492      8239.3272      6016.7061      5543.1834      1084.5451      77.772597     -980.81284    
  32166000   259.11617     -418.07299     -331.29161     -418.06085      0              5862.5671      30.957001      21.340725      32.895148      21732.01       5733.9511      7465.6042      4388.146       88.175187      1242.2891     -1481.2974    
  32168000   264.23413     -419.69146     -331.19601     -419.67666      0              6535.5462      30.957001      21.340725      32.782508      21657.595      6605.245       6601.511       6399.8824      1888.4389      396.751       -15.588196    
  32170000   258.01065     -421.30965     -334.89852     -421.29822      0              7793.5385      30.957001      21.340725      32.617014      21548.262      6226.466       8598.1553      8555.9941     -663.70574      1545.8935     -991.29306    
  32172000   254.15628     -419.60054     -334.48029     -419.57206      0              5449.4418      30.957001      21.340725      32.736904      21627.467      6986.1964      4238.3668      5123.7621      631.76079     -84.728848     -893.36173    
  32174000   264.20228     -419.04567     -330.56089     -419.00177      0              3626.0088      30.957001      21.340725      32.782801      21657.788      2128.5563      5184.3408      3565.1293     -1273.0224      914.11826     -1054.3721    
  32176000   260.54265     -417.86777     -330.60864     -417.85554      0              6590.2247      30.957001      21.340725      32.65869       21575.795      5156.895       8503.4483      6110.3308     -1186.7303      884.53773     -2166.8282    
  32178000   263.19794     -420.42228     -332.27386     -420.40238      0              5481.1084      30.957001      21.340725      32.660867      21577.233      7627.2122      4970.7794      3845.3338     -1062.7356      1377.1739      694.53468    
  32180000   253.59339     -417.02418     -332.09245     -417.00273      0              6292.2969      30.957001      21.340725      32.76578       21646.543      6129.316       6685.497       6062.0777     -728.24848     -109.92112      689.26541    
  32182000   263.00062     -419.40401     -331.32167     -419.3836       0              5691.0254      30.957001      21.340725      32.662972      21578.624      6367.209       4363.1341      6342.7331      21.454017      296.49752      1618.9534    
  32184000   261.59775     -420.14369     -332.53119     -420.11592      0              5936.7875      30.957001      21.340725      32.773414      21651.587      4523.6845      6330.5514      6956.1268      698.44306      1025.268       547.0375     
  32186000   260.42119     -419.98352     -332.76507     -419.96446      0              7361.9765      30.957001      21.340725      32.795811      21666.383      7661.4724      6928.2447      7496.2123      692.12571      49.143758      1261.219     
  32188000   262.85506     -421.782       -333.74841     -421.76174      0              5426.5546      30.957001      21.340725      32.804433      21672.08       4962.2862      5537.4513      5779.9263      1674.3025     -1534.7987     -1038.0181    
  32190000   261.01495     -420.31628     -332.89897     -420.29679      0              5731.025       30.957001      21.340725      32.853017      21704.176      6514.2677      5367.6512      5311.1561      777.71258     -1173.3148      564.07104    
  32192000   259.63653     -417.99819     -331.04254     -417.9795       0              5434.2128      30.957001      21.340725      32.746924      21634.087      2922.6519      7203.8649      6176.1216     -593.34589      385.16565     -279.70243    
  32194000   258.00386     -421.21473     -334.80587     -421.19456      0              5649.3032      30.957001      21.340725      32.735627      21626.623      5787.1862      5711.382       5449.3414      1382.3521      712.27353      799.64863    
  32196000   262.82318     -417.69805     -329.67514     -417.67977      0              6162.6629      30.957001      21.340725      32.59891       21536.302      6524.0163      5723.5049      6240.4675      1859.4221     -1047.658       185.05401    
  32198000   260.80358     -416.61443     -329.26791     -416.59516      0              6693.4486      30.957001      21.340725      32.661135      21577.411      4225.2334      9485.5641      6369.5484      167.66047      951.48176     -69.546987    
  32200000   261.67046     -420.00334     -332.36649     -419.9763       0              3709.5183      30.957001      21.340725      32.781872      21657.175      2930.6998      4667.3691      3530.486       343.84413      504.86486     -2253.146     
  32202000   258.41611     -418.26103     -331.7141      -418.24644      0              5121.8286      30.957001      21.340725      32.713935      21612.292      4917.706       2842.3255      7605.4542      452.29488      1584.8782      905.91174    
  32204000   257.80517     -419.52616     -333.18385     -419.49547      0              5753.0125      30.957001      21.340725      32.500981      21471.605      4674.7347      6707.8502      5876.4527     -2236.0878      1341.0189     -58.245228    
  32206000   261.09245     -421.40386     -333.9606      -421.37739      0              2910.0697      30.957001      21.340725      32.510812      21478.101      3294.419       2254.9978      3180.7923     -815.49241     -1843.4153     -1376.3606    
  32208000   258.98058     -420.53724     -333.80127     -420.51881      0              8260.2636      30.957001      21.340725      32.674499      21586.239      8566.335       8539.2619      7675.194       1218.4051      764.47501     -970.28872    
  32210000   258.47809     -420.83017     -334.26249     -420.81494      0              4226.2815      30.957001      21.340725      32.770141      21649.425      3266.8487      5029.7299      4382.266      -1371.9599      775.52918     -1502.0003    
  32212000   260.27374     -417.46814     -330.29907     -417.44845      0              4839.4327      30.957001      21.340725      32.689076      21595.87       3975.0431      6358.648       4184.6071     -707.76621      505.97207      313.57588    
  32214000   260.36133     -418.31407     -331.11567     -418.27943      0              4651.3443      30.957001      21.340725      32.536954      21495.371      5110.9398      5102.2498      3740.8432      1041.5815      583.52221      428.59291    
  32216000   259.91647     -419.29737     -332.24796     -419.28394      0              3205.78        30.957001      21.340725      32.691795      21597.666      3362.4689      3251.7216      3003.1495      945.3268      -933.53853      458.91089    
  32218000   264.14137     -418.81489     -330.3505      -418.79618      0              7967.0322      30.957001      21.340725      32.686973      21594.481      8927.0464      8686.3995      6287.6507      544.4621      -1880.6947      1197.6755    
  32220000   266.40208     -419.8813      -330.65977     -419.856        0              6147.8733      30.957001      21.340725      32.745104      21632.884      5388.717       7327.9862      5726.9165     -742.21326     -793.32517      297.06726    
  32222000   263.43701     -420.77602     -332.54753     -420.75997      0              4413.9687      30.957001      21.340725      32.707127      21607.795      3526.0678      4730.978       4984.8603     -1419.1277      369.31206      363.62       
  32224000   256.19944     -419.91525     -334.11071     -419.87872      0              5616.1631      30.957001      21.340725      32.767489      21647.673      5745.9002      5734.1963      5368.3927      597.92013     -26.485209     -591.46737    
  32226000   260.22315     -419.4812      -332.32907     -419.4529       0              7634.8345      30.957001      21.340725      32.671655      21584.36       7355.254       8766.0642      6783.1852      1023.1717     -1748.5311     -96.631301    
  32228000   259.67127     -422.21443     -335.24714     -422.18633      0              5925.8337      30.957001      21.340725      32.733677      21625.335      7319.0475      5526.1407      4932.3129      80.014891     -982.24124     -1015.858     
  32230000   260.47107     -421.7003      -334.46515     -421.65218      0              4588.5558      30.957001      21.340725      32.664053      21579.338      4548.3918      4647.2439      4570.0317      1437.8355     -1030.1693      203.6494     
  32232000   250.78937     -419.18984     -335.19721     -419.16118      0              7494.4823      30.957001      21.340725      32.508421      21476.521      6600.3802      6060.5956      9822.4712      1002.6374      649.88462      1456.9543    
  32234000   264.42736     -423.45586     -334.89569     -423.40825      0              4037.9676      30.957001      21.340725      32.673051      21585.283      2844.3768      4373.7094      4895.8167     -448.8028       414.52413     -943.75755    
  32236000   257.70572     -421.60285     -335.29384     -421.57477      0              5329.277       30.957001      21.340725      32.594913      21533.662      4297.7622      5276.8697      6413.199       305.51693      2051.2325     -606.76741    
  32238000   266.06904     -421.17176     -332.06177     -421.14416      0              6960.1117      30.957001      21.340725      32.647961      21568.707      5383.2847      10230.55       5266.5001     -1311.3396      946.61118     -450.8085     
  32240000   262.06038     -421.80282     -334.03539     -421.78448      0              7401.0697      30.957001      21.340725      32.586829      21528.32       6309.6973      9879.9354      6013.5764      2463.2859      311.94712      1135.1823    
  32242000   258.71564     -422.43762     -335.79038     -422.41946      0              6678.522       30.957001      21.340725      32.508834      21476.794      3893.0057      7126.1673      9016.393       788.40912     -1086.2205     -935.66497    
  32244000   255.42088     -419.26382     -333.72004     -419.24845      0              4643.2326      30.957001      21.340725      32.511035      21478.248      4288.8118      5349.5479      4291.3381     -831.56205     -463.99255     -1599.0991    
  32246000   255.57038     -416.91799     -331.32414     -416.90693      0              5803.2381      30.957001      21.340725      32.817868      21680.955      5333.3364      7736.1758      4340.2021     -485.09224     -33.057073     -51.269627    
  32248000   255.5563      -418.0387      -332.44956     -418.02046      0              7498.7619      30.957001      21.340725      32.629843      21556.738      8977.1371      6899.8161      6619.3326     -363.97979      1567.9235      758.17844    
  32250000   258.89436     -420.96897     -334.26188     -420.91821      0              6779.2183      30.957001      21.340725      32.553613      21506.377      8138.6425      5716.6765      6482.336      -195.53815      270.94238      559.16032    
  32252000   261.69191     -422.68574     -335.04171     -422.63022      0              6683.0619      30.957001      21.340725      32.593578      21532.779      6521.9942      6282.1187      7245.0728      218.07361     -602.19         257.31929    
  32254000   258.07943     -418.60702     -332.17285     -418.57922      0              4254.0861      30.957001      21.340725      32.748056      21634.834      3491.242       3630.5434      5640.4728      171.78141      435.29293      724.96032    
  32256000   265.58897     -420.85845     -331.90924     -420.8256       0              6944.9292      30.957001      21.340725      32.66325       21578.808      8647.8442      5088.8797      7098.0637     -22.382678     -197.95179      50.205736    
  32258000   263.40391     -421.26165     -333.04425     -421.19536      0              8811.0022      30.957001      21.340725      32.461852      21445.755      8278.2594      10919.595      7235.1526      1531.2136      887.7476      -1384.4012    
  32260000   259.4964      -422.51675     -335.60802     -422.46326      0              6771.5692      30.957001      21.340725      32.641706      21564.575      7333.5238      6613.9062      6367.2776     -2229.7923     -50.087674      516.94282    
  32262000   262.34657     -420.18104     -332.31775     -420.1259       0              6804.8649      30.957001      21.340725      32.601488      21538.005      7147.3198      5903.9429      7363.332       996.78559      1360.7398      2663.6828    
  32264000   259.01115     -420.71122     -333.96501     -420.6302       0              6155.178       30.957001      21.340725      32.496503      21468.647      8829.1192      4079.8946      5556.5204     -1286.8335      1064.8312      163.16814    
  32266000   256.49864     -419.88465     -333.97992     -419.83145      0              6074.3915      30.957001      21.340725      32.443179      21433.419      5213.8923      5381.093       7628.1891     -2272.724       480.19945     -1138.3515    
  32268000   262.39405     -421.4526      -333.57341     -421.38254      0              5752.5585      30.957001      21.340725      32.3872        21396.437      7654.3305      5498.721       4104.624      -10.074224     -152.37093      288.65452    
  32270000   266.90316     -419.99546     -330.60611     -419.95823      0              6553.2479      30.957001      21.340725      32.411563      21412.532      6183.2089      6081.6891      7394.8458     -644.60396      1681.2321     -86.300519    
  32272000   262.54684     -420.92473     -332.99438     -420.84195      0              7047.7097      30.957001      21.340725      32.374827      21388.263      7137.4543      6678.271       7327.4037     -1898.056       467.48874     -897.92003    
  32274000   255.11673     -420.81535     -335.37343     -420.74804      0              6146.0508      30.957001      21.340725      32.50204       21472.305      4533.6664      6508.9019      7395.5843      1334.4731      810.92534     -750.97593    
  32276000   254.81388     -424.14867     -338.80818     -424.089        0              5518.8445      30.957001      21.340725      32.541156      21498.147      5894.1712      7110.4967      3551.8657     -27.178131      725.78413      433.66742    
  32278000   262.70552     -418.97795     -330.99445     -418.92706      0              5236.8004      30.957001      21.340725      32.542749      21499.199      3793.3685      5669.9478      6247.085       383.66059     -654.69133     -232.77928    
  32280000   261.63158     -420.20017     -332.57635     -420.13872      0              7326.4672      30.957001      21.340725      32.572719      21518.999      6673.6413      8497.5977      6808.1626      504.86254     -1862.4684     -703.26388    
  32282000   258.49829     -419.16992     -332.59547     -419.14284      0              3804.0405      30.957001      21.340725      32.714482      21612.654      4917.0619      3454.5539      3040.5059      1956.1524      1006.9248      1682.4826    
  32284000   259.77039     -417.69031     -330.68982     -417.67316      0              6121.3701      30.957001      21.340725      32.732279      21624.411      6945.6398      5888.2207      5530.2499     -647.65902      371.63651     -44.225676    
  32286000   261.18855     -420.49281     -333.01735     -420.46458      0              5464.7272      30.957001      21.340725      32.797771      21667.678      6289.1911      5617.6352      4487.3554     -598.23444      748.99056     -636.16698    
  32288000   259.09452     -420.96704     -334.19291     -420.89787      0              4341.6539      30.957001      21.340725      32.773681      21651.764      3986.3652      3828.673       5209.9234      643.05021      286.10428      916.12489    
  32290000   262.49119     -420.25484     -332.34312     -420.19313      0              6831.2815      30.957001      21.340725      32.674103      21585.978      7917.4897      6161.4077      6414.9472     -707.9973      -959.94255     -1401.0801    
  32292000   253.53305     -419.5258      -334.61428     -419.46573      0              5716.1663      30.957001      21.340725      32.56007       21510.642      7046.5974      2881.0024      7220.8992      249.33674     -1284.5737     -1035.5793    
  32294000   259.65851     -422.21706     -335.25404     -422.13472      0              8098.1226      30.957001      21.340725      32.654732      21573.18       5626.4472      9700.7074      8967.2131      1442.9727      629.65427     -2242.9593    
  32296000   256.76996     -420.17278     -334.17717     -420.14136      0              5784.1825      30.957001      21.340725      32.58603       21527.793      3840.1824      5190.5846      8321.7806      277.04656     -658.82504      418.28606    
  32298000   263.60732     -422.82735     -334.54182     -422.7557       0              7491.9371      30.957001      21.340725      32.628619      21555.929      7212.2683      4896.268       10367.275     -69.910254      215.89005      1044.2037    
  32300000   254.78379     -419.57038     -334.23996     -419.52091      0              5345.7193      30.957001      21.340725      32.623654      21552.649      6169.5851      4805.3007      5062.2721     -986.23441     -1525.9519      126.91716    
  32302000   262.8029      -422.82528     -334.80916     -422.74297      0              4585.2512      30.957001      21.340725      32.509451      21477.202      6965.2982      3648.4203      3142.0351      1229.9568     -1510.3718     -728.31861    
  32304000   249.89704     -421.79238     -338.0986      -421.7208       0              5027.9775      30.957001      21.340725      32.623296      21552.412      6741.8396      4249.2817      4092.8112     -607.47141     -36.964451     -2093.8855    
  32306000   257.88869     -419.54643     -333.17615     -419.48065      0              5347.6702      30.957001      21.340725      32.691714      21597.612      5217.3856      6111.32        4714.305       1359.5383      1024.8538      78.851079    
  32308000   258.41663     -423.43201     -336.88492     -423.36471      0              6534.099       30.957001      21.340725      32.733605      21625.287      7156.8033      6291.5564      6153.9371      732.65753     -1354.1891     -1079.1296    
  32310000   260.35748     -420.84416     -333.64705     -420.78514      0              6035.6369      30.957001      21.340725      32.560603      21510.994      5689.0582      6100.247       6317.6054      202.78405     -920.63486     -651.13552    
  32312000   258.8541      -419.06462     -332.37101     -419.01338      0              5016.564       30.957001      21.340725      32.470203      21451.272      3900.2653      6140.7439      5008.6827     -144.59601      473.11979     -431.01019    
  32314000   257.01189     -425.23939     -339.16276     -425.15815      0              7928.5869      30.957001      21.340725      32.435106      21428.086      7543.1102      8590.3414      7652.3091     -681.74809      134.76621      771.48949    
  32316000   258.80408     -418.71076     -332.0339      -418.68309      0              5323.7095      30.957001      21.340725      32.515716      21481.34       3803.187       6617.5842      5550.3574     -568.88948      1670.9007     -798.34358    
  32318000   258.70813     -421.66772     -335.02299     -421.60919      0              6698.5351      30.957001      21.340725      32.489123      21463.772      6801.8285      5654.9652      7638.8114     -1271.0155     -234.10663      502.14925    
  32320000   262.49573     -421.63422     -333.72098     -421.56817      0              7003.7322      30.957001      21.340725      32.460644      21444.957      5935.6816      6779.5371      8295.9777     -1480.4206      151.52418     -1220.7473    
  32322000   260.55678     -417.89662     -330.63276     -417.81862      0              6663.6337      30.957001      21.340725      32.421187      21418.89       5790.1769      7200.1373      7000.5869     -546.32745     -844.37438      97.356979    
  32324000   252.74763     -422.01965     -337.37118     -421.93961      0              6069.1399      30.957001      21.340725      32.566324      21514.774      4319.3871      7015.406       6872.6267      2827.6489     -724.79279      1923.4742    
  32326000   258.98498     -418.04181     -331.30436     -418.00402      0              6416.6215      30.957001      21.340725      32.693026      21598.479      6056.6706      6073.9959      7119.1981      842.74986      144.31287      146.82459    
  32328000   250.9822      -420.55297     -336.49576     -420.52536      0              5950.1664      30.957001      21.340725      32.70371       21605.537      4759.4536      5292.7195      7798.326       400.90495     -659.82753      1113.0959    
  32330000   256.71915     -419.74933     -333.77074     -419.73486      0              4563.7887      30.957001      21.340725      32.6352        21560.277      3393.8116      6084.5831      4212.9714     -1633.9424     -47.073178     -311.92324    
  32332000   260.07274     -420.32251     -333.22076     -420.25955      0              6273.3731      30.957001      21.340725      32.525692      21487.931      7970.0323      6516.8511      4333.2359     -369.60291      69.646782     -802.52019    
  32334000   254.6361      -420.15519     -334.87425     -420.12671      0              7028.0046      30.957001      21.340725      32.431167      21425.483      5663.1893      8596.9517      6823.8728      752.05702     -148.224       -686.6987     
  32336000   261.22063     -422.2394      -334.75321     -422.22171      0              6289.4926      30.957001      21.340725      32.670038      21583.292      5831.8596      7512.6838      5523.9343     -118.82861      1454.7399      912.06153    
  32338000   253.16039     -421.64371     -336.85699     -421.60872      0              5899.0227      30.957001      21.340725      32.573664      21519.623      6535.1381      3924.4841      7237.4459      173.46239      51.992419     -782.70869    
  32340000   263.609       -418.74578     -330.45969     -418.72234      0              6328.1831      30.957001      21.340725      32.571229      21518.014      4416.9581      7770.6995      6796.8916      1157.6894      844.57206     -720.65586    
  32342000   254.26511     -420.21757     -335.06087     -420.18052      0              6574.407       30.957001      21.340725      32.594189      21533.183      6349.4973      6574.7033      6799.0205      3.1249064      1557.5977     -356.37198    
  32344000   258.61109     -418.69272     -332.08049     -418.67384      0              4025.295       30.957001      21.340725      32.556751      21508.45       4163.7717      2908.5824      5003.531       873.65101      906.74319     -636.98825    
  32346000   260.89465     -422.39953     -335.02252     -422.35692      0              6073.7239      30.957001      21.340725      32.664128      21579.388      7025.3415      5501.1162      5694.7141      685.29846      468.99778     -1193.9014    
  32348000   259.21661     -418.05187     -331.23685     -418.03236      0              6795.6186      30.957001      21.340725      32.704848      21606.289      8195.2793      6949.4689      5242.1076     -1092.627      -783.35378     -1179.2582    
  32350000   248.52679     -421.06392     -337.82905     -421.0364       0              4563.618       30.957001      21.340725      32.813521      21678.084      4762.205       3427.5943      5501.0548      1552.1574      367.61659     -858.74345    
  32352000   262.12036     -422.44132     -334.6538      -422.35954      0              4352.0973      30.957001      21.340725      32.772359      21650.89       5844.5356      2827.391       4384.3653     -1022.8113      1283.0917      165.13148    
  32354000   265.32243     -421.3181      -332.45816     -421.24141      0              4144.8472      30.957001      21.340725      32.722714      21618.092      4831.3605      3020.1889      4582.9923     -1066.7549      2362.8631     -1057.8927    
  32356000   253.00922     -421.26447     -336.52839     -421.20064      0              7352.4071      30.957001      21.340725      32.523571      21486.53       7639.4341      6567.0693      7850.718       460.06182      2199.0677      983.71479    
  32358000   255.51968     -421.54913     -335.97226     -421.46754      0              8209.4166      30.957001      21.340725      32.508143      21476.337      7948.4001      7102.8021      9577.0475     -1312.5398     -964.49322      1345.6758    
  32360000   255.61705     -423.23799     -337.6285      -423.15739      0              7423.328       30.957001      21.340725      32.384587      21394.71       6461.21        7604.2377      8204.5364      1030.1651      328.3627      -652.07033    
  32362000   259.02908     -422.51267     -335.76045     -422.44897      0              6436.245       30.957001      21.340725      32.499907      21470.896      4225.2583      7367.1022      7716.3745      1798.6235     -554.24774     -449.67768    
  32364000   261.20562     -420.45969     -332.97852     -420.38322      0              6412.8404      30.957001      21.340725      32.633345      21559.051      7144.8045      6033.0418      6060.6748      45.852198      2028.3462     -846.10198    
  32366000   265.81286     -424.85191     -335.82772     -424.77846      0              5899.4105      30.957001      21.340725      32.521851      21485.393      5476.6938      4426.4546      7795.0831      1347.2095      762.10603      2656.2292    
  32368000   268.0562      -423.4704      -333.69489     -423.40042      0              4356.192       30.957001      21.340725      32.612921      21545.558      3584.8792      4896.7536      4586.9432     -466.57035      1158.0578      1698.8735    
  32370000   262.5319      -421.55513     -333.62978     -421.48746      0              5146.4198      30.957001      21.340725      32.575893      21521.096      811.33879      7624.2861      7003.6346      1326.3191     -159.73584      982.82513    
  32372000   258.65581     -418.98985     -332.36265     -418.96329      0              4296.5788      30.957001      21.340725      32.487617      21462.777      3959.957       4781.3956      4148.3839     -586.53039     -213.60615     -1180.5738    
  32374000   267.02059     -422.0895      -332.66082     -422.02318      0              7158.5549      30.957001      21.340725      32.594042      21533.086      7375.5738      7142.2466      6957.8442     -804.4407       863.91331      512.13152    
  32376000   253.56534     -421.08456     -336.16222     -421.00395      0              5465.2336      30.957001      21.340725      32.446567      21435.657      7119.2437      5675.4919      3600.9653     -210.50021      1108.9123     -1335.3421    
  32378000   260.13863     -422.91497     -335.79115     -422.83577      0              4219.8777      30.957001      21.340725      32.623043      21552.245      4375.6316      4610.6548      3673.3468     -947.68819     -461.89643      902.49124    
  32380000   255.36302     -421.80133     -336.27693     -421.77403      0              5704.1534      30.957001      21.340725      32.581943      21525.093      4009.4827      8328.6378      4774.3397     -1311.513       1299.5537     -28.023326    
  32382000   263.9882      -421.56022     -333.14713     -421.51079      0              6027.8669      30.957001      21.340725      32.336633      21363.03       6753.4764      5419.0542      5911.0702      1213.1987      310.92637      507.91463    
  32384000   261.66682     -422.03242     -334.39679     -422.00559      0              4520.2801      30.957001      21.340725      32.553158      21506.076      2882.3719      5191.7968      5486.6716      96.113801     -1630.4494      559.45451    
  32386000   262.55809     -421.58735     -333.65322     -421.56024      0              5201.7772      30.957001      21.340725      32.733859      21625.455      4080.5404      4909.6713      6615.1198      1023.607       1950.5144      1618.9218    
  32388000   262.62035     -417.85104     -329.89606     -417.81481      0              5396.9211      30.957001      21.340725      32.659545      21576.36       3756.3639      7433.4752      5000.9242      2778.7628     -1088.9816     -1101.4437    
  32390000   264.02685     -421.84106     -333.41503     -421.77519      0              4908.076       30.957001      21.340725      32.623783      21552.734      4770.2861      5473.5215      4480.4204      709.62357      627.79373     -946.85736    
  32392000   259.19958     -418.15609     -331.34677     -418.14072      0              6124.8766      30.957001      21.340725      32.744106      21632.225      6291.2021      6584.9916      5498.436      -1723.3997      1030.642       398.30657    
  32394000   258.38552     -421.82924     -335.29257     -421.80224      0              7035.932       30.957001      21.340725      32.499512      21470.635      6797.4101      8418.1419      5892.244      -860.73464     -1162.104       692.72871    
  32396000   266.83409     -423.92534     -334.55912     -423.85517      0              3031.0026      30.957001      21.340725      32.516326      21481.743      4425.5748      1574.1515      3093.2814     -1510.0478     -986.83327     -911.03949    
  32398000   261.56479     -419.2185      -331.61704     -419.18518      0              6260.0356      30.957001      21.340725      32.52664       21488.557      6709.96        6044.3498      6025.7968      1053.5316     -635.18638     -89.237686    
  32400000   260.68662     -418.74817     -331.44082     -418.7216       0              5301.6162      30.957001      21.340725      32.601564      21538.055      4122.1104      4728.4408      7054.2975      1339.3295     -302.4633      -494.97992    
  32402000   267.01452     -421.10291     -331.67626     -421.07974      0              3802.3749      30.957001      21.340725      32.509462      21477.209      2795.3145      4291.7637      4320.0465      606.10506      576.92385     -524.61723    
  32404000   266.67946     -419.27816     -329.96373     -419.25087      0              8472.7543      30.957001      21.340725      32.521596      21485.225      8348.0746      8370.4167      8699.7714     -508.85911     -1662.447      -712.29355    
  32406000   253.9952      -418.78755     -333.72124     -418.76919      0              5029.962       30.957001      21.340725      32.62974       21556.67       4077.5551      4979.4052      6032.9256     -1395.2753      640.95328     -938.05296    
  32408000   259.0091      -420.00589     -333.26036     -419.97251      0              5303.4951      30.957001      21.340725      32.791873      21663.782      5696.4038      7977.9778      2236.1038     -632.07539      163.10329     -961.79531    
  32410000   263.7215      -420.11166     -331.78789     -420.08442      0              6045.056       30.957001      21.340725      32.674685      21586.363      6473.0659      6078.3227      5583.7794     -403.29412     -754.70507      1648.2285    
  32412000   261.6477      -420.7621      -333.13287     -420.73055      0              5191.8766      30.957001      21.340725      32.563088      21512.636      5327.237       6021.4603      4226.9324      381.2906       1787.9332     -426.45401    
  32414000   260.21461     -423.50293     -336.35367     -423.47634      0              6473.1683      30.957001      21.340725      32.75754       21641.1        6045.6431      6849.162       6524.6997     -2006.8297      748.12761      395.10667    
  32416000   254.06345     -420.30523     -335.21606     -420.25129      0              3845.5567      30.957001      21.340725      32.607195      21541.775      4630.6434      3877.2835      3028.7432      656.48023     -114.7544       653.16023    
  32418000   259.85196     -420.38041     -333.3526      -420.3045       0              6417.693       30.957001      21.340725      32.51206       21478.925      6501.7685      5847.9621      6903.3484     -1466.828       1661.6611     -820.9694     
  32420000   261.10604     -423.46865     -336.02083     -423.39035      0              5581.9205      30.957001      21.340725      32.399422      21404.511      4394.8868      6550.7661      5800.1086      782.73435     -316.71006     -1278.2961    
  32422000   250.91278     -420.97995     -336.94599     -420.90472      0              3709.8351      30.957001      21.340725      32.506242      21475.081      3102.1441      3760.2001      4267.161       1259.6751     -108.31366     -2068.2054    
  32424000   262.06671     -420.63412     -332.86457     -420.57032      0              6170.4217      30.957001      21.340725      32.441448      21432.276      4844.5798      5860.7272      7805.958       720.9103       104.49388     -529.60745    
  32426000   264.35396     -422.32601     -333.79043     -422.24614      0              7367.1677      30.957001      21.340725      32.243336      21301.394      6200.809       6553.7083      9346.9857     -63.10839       2718.3453     -449.10045    
  32428000   257.70437     -417.56702     -331.25847     -417.49068      0              5108.5401      30.957001      21.340725      32.436895      21429.268      4772.6108      3539.6         7013.4095     -795.35489      1133.9275     -1090.6317    
  32430000   269.35509     -422.37736     -332.16683     -422.29689      0              6877.9774      30.957001      21.340725      32.297315      21337.054      7636.1655      5824.3957      7173.3711     -1326.3386     -1008.762      -449.1442     
  32432000   261.29431     -421.69724     -334.18637     -421.63776      0              6210.9649      30.957001      21.340725      32.258166      21311.191      7092.9372      6122.7388      5417.2187      1800.8391      630.84176      109.03281    
  32434000   261.37176     -421.44023     -333.90342     -421.38378      0              6843.8958      30.957001      21.340725      32.35713       21376.571      7867.3145      8232.088       4432.285       1429.7258     -525.508        740.2787     
  32436000   259.0181      -424.26864     -337.5201      -424.23031      0              6311.476       30.957001      21.340725      32.336785      21363.13       5120.2945      5649.8009      8164.3327     -1383.6903     -188.94175     -1509.4483    
  32438000   268.42259     -419.07471     -329.17649     -419.03219      0              5337.9679      30.957001      21.340725      32.39796       21403.545      4006.0539      6232.2146      5775.6352     -1206.4377      855.8999      -565.80354    
  32440000   261.31763     -422.67849     -335.15981     -422.62614      0              5601.7652      30.957001      21.340725      32.650989      21570.707      5458.1266      5249.2338      6097.9352     -664.33388      1297.7723      425.78144    
  32442000   269.1714      -418.92379     -328.77478     -418.88036      0              6347.7108      30.957001      21.340725      32.637237      21561.622      4319.3851      6625.8629      8097.8844      610.19266     -13.895367      341.72644    
  32444000   256.12216     -421.50046     -335.72181     -421.45731      0              5250.6787      30.957001      21.340725      32.567158      21515.325      6148.2454      5213.7603      4390.0303     -179.78333     -184.85688      111.69344    
  32446000   260.44952     -420.9196      -333.69166     -420.86805      0              5617.143       30.957001      21.340725      32.619665      21550.014      7274.7489      4239.54        5337.1401      404.80051     -135.07238      709.67666    
  32448000   257.94831     -422.17264     -335.78239     -422.09852      0              5309.6096      30.957001      21.340725      32.57598       21521.153      5822.6567      3223.6076      6882.5645     -321.95121     -151.5886       1554.2835    
  32450000   261.35804     -418.40382     -330.8716      -418.35011      0              4815.1831      30.957001      21.340725      32.498893      21470.226      3838.1069      3881.1333      6726.3092     -1346.5912     -1085.5044      477.48585    
  32452000   267.56684     -422.17872     -332.5671      -422.11551      0              7759.9693      30.957001      21.340725      32.520164      21484.279      8105.8215      7201.4354      7972.6509      1522.4726     -1614.9151     -369.73852    
  32454000   256.34749     -424.83593     -338.98181     -424.79753      0              4200.6034      30.957001      21.340725      32.504772      21474.11       3351.2703      5938.5744      3311.9656      375.0879      -287.0678      -1546.028     
  32456000   263.06972     -422.24005     -334.13457     -422.17235      0              5973.6733      30.957001      21.340725      32.601951      21538.311      8374.6058      4092.6559      5453.7581      133.37797      648.17539      453.6223     
  32458000   256.39482     -422.5069      -336.63693     -422.43811      0              5403.1166      30.957001      21.340725      32.57079       21517.725      2976.8821      7218.0692      6014.3984     -962.81412      2475.1606      513.65924    
  32460000   258.5725      -422.23363     -335.63433     -422.21953      0              6221.0457      30.957001      21.340725      32.683737      21592.342      6683.6984      5976.5242      6002.9143      306.71222      140.26368      469.96251    
  32462000   265.95692     -423.48313     -334.41069     -423.45028      0              6904.604       30.957001      21.340725      32.48067       21458.187      7208.9582      6430.1372      7074.7166     -398.64616      1581.8174     -702.72183    
  32464000   266.39018     -423.09321     -333.87566     -423.04931      0              4525.3699      30.957001      21.340725      32.626284      21554.387      4726.9464      4577.5925      4271.5707     -620.46299      144.09721     -604.34414    
  32466000   258.94865     -421.76027     -335.03499     -421.68501      0              5247.0371      30.957001      21.340725      32.54273       21499.187      4508.1328      6134.1655      5098.8129      2143.493       66.842356     -209.58011    
  32468000   261.23719     -417.75459     -330.26285     -417.72535      0              8312.3033      30.957001      21.340725      32.342153      21366.676      7833.9334      7969.5776      9133.3989     -172.05712      27.53917       755.0712     
  32470000   259.19336     -421.86808     -335.06085     -421.78988      0              8655.3216      30.957001      21.340725      32.407463      21409.823      8981.0469      8401.2659      8583.6521      309.18377     -1073.2259      519.59272    
  32472000   255.52992     -421.64104     -336.06073     -421.62176      0              7362.4508      30.957001      21.340725      32.456741      21442.378      5913.6207      7893.5286      8280.2033      549.22726     -871.83294      733.60132    
  32474000   262.8336      -423.37747     -335.35107     -423.35427      0              2809.7693      30.957001      21.340725      32.534928      21494.032      4619.135       627.59413      3182.5788     -192.06041     -370.16831     -70.93867     
  32476000   260.70321     -422.89677     -335.58387     -422.86982      0              7033.2102      30.957001      21.340725      32.552007      21505.316      5802.0569      7603.712       7693.8618     -502.25849      919.99344     -761.30989    
  32478000   254.73143     -420.33453     -335.02165     -420.31035      0              7317.2096      30.957001      21.340725      32.601824      21538.227      8226.3268      5373.8894      8351.4125     -1009.1542     -942.93735      1356.1153    
  32480000   263.42187     -420.46825     -332.24483     -420.44174      0              7911.5618      30.957001      21.340725      32.654795      21573.222      8797.2631      7215.8912      7721.5312      1567.6245     -2369.0419     -456.04382    
  32482000   261.69772     -419.37978     -331.7338      -419.35385      0              7160.3626      30.957001      21.340725      32.669627      21583.02       7330.9692      7541.974       6608.1448     -874.14869      983.35854      267.48073    
  32484000   260.67358     -421.05087     -333.74789     -420.99394      0              4282.4066      30.957001      21.340725      32.721066      21617.003      4261.8369      3409.9105      5175.4725      620.89248     -1686.4114      1282.2712    
  32486000   262.0527      -419.06578     -331.30092     -419.0389       0              6607.8715      30.957001      21.340725      32.593657      21532.832      5266.1696      7716.8734      6840.5714      1352.4463     -1124.3816      542.33949    
  32488000   265.99192     -420.87422     -331.79005     -420.81744      0              7933.3235      30.957001      21.340725      32.656935      21574.636      7363.7264      7030.4482      9405.796       459.81432     -136.3615       825.6282     
  32490000   266.80739     -419.07176     -329.71449     -419.04606      0              7263.5333      30.957001      21.340725      32.491626      21465.425      6893.5751      7190.5334      7706.4913     -498.85966      2154.5043     -1779.2085    
  32492000   258.09876     -419.78242     -333.34178     -419.76371      0              4234.6088      30.957001      21.340725      32.648109      21568.805      4132.6451      5018.8585      3552.3228      424.14366     -68.466302      797.31784    
  32494000   259.99183     -417.67824     -330.60359     -417.647        0              5546.8514      30.957001      21.340725      32.550682      21504.44       5133.9386      6014.2161      5492.3994      549.26124      107.14789      889.79615    
  32496000   258.41428     -420.71393     -334.16762     -420.68785      0              6175.0329      30.957001      21.340725      32.627154      21554.961      6402.5404      6848.3614      5274.1967      2478.5524      1743.5299      355.31447    
  32498000   263.21468     -421.20435     -333.05032     -421.17176      0              4635.9603      30.957001      21.340725      32.530565      21491.15       4719.5196      5008.5953      4179.7659     -467.52052      514.09474     -344.45614    
  32500000   264.04052     -419.72385     -331.29324     -419.68009      0              7305.6829      30.957001      21.340725      32.478589      21456.812      7472.5741      6984.088       7460.3867     -235.21822      990.19232     -828.51798    
  32502000   266.25944     -420.26197     -331.08821     -420.21558      0              6579.4741      30.957001      21.340725      32.574552      21520.21       7668.1213      5038.2014      7032.0995      1922.4187     -696.17472     -664.68106    
  32504000   259.73129     -418.03188     -331.04449     -417.97957      0              6051.0464      30.957001      21.340725      32.514095      21480.269      7355.3123      5488.5768      5309.2502     -1248.8301     -75.082886     -497.24598    
  32506000   262.70914     -419.7618      -331.77709     -419.70777      0              8089.1653      30.957001      21.340725      32.470435      21451.425      8624.2757      8717.2801      6925.94       -1080.0421     -665.97967     -690.30188    
  32508000   262.89538     -420.55777     -332.51068     -420.50627      0              5694.2488      30.957001      21.340725      32.502047      21472.31       5372.9222      6247.3291      5462.4951      47.191781      1387.4882     -343.70479    
  32510000   258.15711     -421.59516     -335.13498     -421.56251      0              4394.0547      30.957001      21.340725      32.417509      21416.46       4118.173       4322.361       4741.6301     -661.56786      340.6334       55.754597    
  32512000   257.1086      -421.23351     -335.12449     -421.2155       0              5374.0873      30.957001      21.340725      32.6308        21557.37       7247.8723      4590.8838      4283.5057     -1960.2488     -836.87584     -1171.2721    
  32514000   253.15048     -419.29839     -334.51499     -419.22911      0              5149.5596      30.957001      21.340725      32.501327      21471.834      5698.9068      4495.7256      5254.0465     -150.56398     -384.6817       464.68373    
  32516000   263.84916     -416.45978     -328.09325     -416.43137      0              5537.7336      30.957001      21.340725      32.411048      21412.192      6744.2156      5310.8859      4558.0994      1227.2231     -204.64394      1113.3319    
  32518000   265.71791     -420.94547     -331.95308     -420.87927      0              6644.8504      30.957001      21.340725      32.237872      21297.784      5239.9745      8318.4443      6376.1324     -1015.8311     -974.46555     -1141.9884    
  32520000   263.70782     -421.41202     -333.09284     -421.35758      0              6317.6547      30.957001      21.340725      32.481342      21458.631      7925.0635      5694.2533      5333.6471     -1009.4841     -2362.2381     -966.46662    
  32522000   260.40326     -418.08298     -330.87053     -418.04428      0              6724.49        30.957001      21.340725      32.350695      21372.32       6429.985       6499.0685      7244.4163     -1174.2216     -287.6026       643.0808     
  32524000   259.95022     -421.77202     -334.7113      -421.71424      0              6373.3175      30.957001      21.340725      32.341685      21366.368      7359.3652      5829.011       5931.5765     -1042.1616     -759.11012     -989.97778    
  32526000   262.68364     -421.03977     -333.06359     -421.01575      0              6201.1615      30.957001      21.340725      32.437535      21429.691      6058.2309      5389.3242      7155.9295      1264.5131     -1422.9592     -889.59437    
  32528000   255.65602     -419.12045     -333.49791     -419.10046      0              5780.8897      30.957001      21.340725      32.41833       21417.003      6396.5865      5977.0504      4969.0321      934.44386     -1192.9086     -211.40511    
  32530000   262.46562     -417.96558     -330.06242     -417.94446      0              7661.2784      30.957001      21.340725      32.505751      21474.757      8450.0701      6963.1404      7570.6247     -600.81494      860.61867      1130.3643    
  32532000   256.42254     -417.58548     -331.70623     -417.55962      0              5907.2061      30.957001      21.340725      32.51428       21480.391      5628.1304      4977.7826      7115.7054      781.89578      627.4442       1155.4416    
  32534000   257.4162      -418.34435     -332.1323      -418.27335      0              6674.4687      30.957001      21.340725      32.450389      21438.182      6885.4658      6105.4418      7032.4984      64.443218     -573.08885     -80.184151    
  32536000   256.20813     -418.06078     -332.25333     -418.0414       0              4672.6656      30.957001      21.340725      32.552001      21505.312      4680.9119      2665.0086      6672.0761      807.29176      352.42394      1192.7853    
  32538000   259.75259     -415.6072      -328.61267     -415.53581      0              7498.4163      30.957001      21.340725      32.539849      21497.284      5657.7725      9726.0878      7111.3887     -909.48366     -1042.1756      626.33703    
  32540000   258.46895     -420.92976     -334.36514     -420.90208      0              5961.5311      30.957001      21.340725      32.537855      21495.966      6185.2063      6800.1394      4899.2475      1795.9636      1242.8831      2747.7542    
  32542000   272.21569     -418.69909     -327.53051     -418.65323      0              8093.5272      30.957001      21.340725      32.470975      21451.782      9121.6123      8098.1473      7060.8219      588.25744     -657.19518     -249.25522    
  32544000   261.39196     -418.54964     -331.00606     -418.47041      0              3614.1765      30.957001      21.340725      32.437802      21429.867      3856.9388      2696.3405      4289.2501      234.02535     -240.32729      66.724075    
  32546000   251.05891     -420.07806     -335.99516     -419.99856      0              6620.9171      30.957001      21.340725      32.276162      21323.08       7235.7575      5762.2403      6864.7534      1112.3772     -787.70516      22.318843    
  32548000   269.89226     -419.85284     -329.46241     -419.78623      0              6344.3569      30.957001      21.340725      32.265396      21315.967      6004.5321      5933.182       7095.3568     -307.5249       1242.9117      1398.3156    
  32550000   259.21931     -421.42861     -334.61268     -421.40237      0              7210.3246      30.957001      21.340725      32.462905      21446.451      7707.983       7337.2805      6585.7102     -117.22057     -1102.3624     -2431.5228    
  32552000   256.19759     -418.31317     -332.50925     -418.26573      0              4907.1496      30.957001      21.340725      32.423343      21420.314      5045.394       4503.3447      5172.7102     -775.6763       526.90191     -1921.6952    
  32554000   259.15362     -419.53176     -332.73783     -419.45509      0              6338.938       30.957001      21.340725      32.497993      21469.631      7980.8692      5739.4838      5296.4611     -1667.1946     -450.99518      169.57572    
  32556000   260.09612     -419.31626     -332.20668     -419.2378       0              4049.9324      30.957001      21.340725      32.635995      21560.802      6786.143       1474.3007      3889.3533      678.74244     -1716.9697      1407.1779    
  32558000   264.46581     -419.56047     -330.98742     -419.53202      0              5034.34        30.957001      21.340725      32.632713      21558.634      4176.1248      4951.793       5975.1023      216.00836      564.13269     -434.60345    
  32560000   260.03425     -418.09703     -331.00817     -418.06314      0              5639.7245      30.957001      21.340725      32.671902      21584.524      8249.2067      3854.7429      4815.2238     -658.44228     -1446.2714      799.72567    
  32562000   259.94302     -416.81636     -329.75805     -416.78949      0              8158.331       30.957001      21.340725      32.605733      21540.809      8916.7314      6725.9387      8832.323      -17.863783     -435.18795      117.62441    
  32564000   263.70642     -417.18841     -328.86969     -417.1703       0              5270.5942      30.957001      21.340725      32.57256       21518.894      5033.0798      6253.3604      4525.3425     -621.63705     -107.10544     -265.5185     
  32566000   254.75562     -416.61794     -331.29696     -416.59241      0              6540.6387      30.957001      21.340725      32.639099      21562.853      8746.6633      6470.4609      4404.7917     -923.11411     -777.73069      765.4506     
  32568000   249.91046     -418.20009     -334.50182     -418.14823      0              6080.2146      30.957001      21.340725      32.548268      21502.845      7795.761       6586.697       3858.1857     -571.00515      854.45599     -363.79814    
  32570000   260.11889     -421.14794     -334.03073     -421.10694      0              6815.7902      30.957001      21.340725      32.429294      21424.246      7882.6185      5094.5575      7470.1945     -646.96328     -1010.6219      409.87503    
  32572000   254.92786     -420.78065     -335.40199     -420.75296      0              5747.3543      30.957001      21.340725      32.529415      21490.39       7255.7577      4940.1604      5046.1449     -654.56039      743.23557     -2325.4166    
  32574000   260.68333     -422.8699      -335.56365     -422.79238      0              7994.8827      30.957001      21.340725      32.27807       21324.341      9031.6097      6073.9477      8879.0906     -365.49564      44.960333      831.40361    
  32576000   268.14317     -418.36621     -328.56157     -418.29972      0              6226.1577      30.957001      21.340725      32.320049      21352.073      5803.8462      5751.0808      7123.5462      849.14882      480.97709     -655.85858    
  32578000   253.89854     -419.50532     -334.47138     -419.47972      0              5211.3439      30.957001      21.340725      32.473127      21453.204      4200.2059      6567.0867      4866.7392      1346.5994     -972.49005     -1730.9125    
  32580000   251.90742     -420.12264     -335.75556     -420.09733      0              5301.6463      30.957001      21.340725      32.487318      21462.579      6438.5864      4881.5102      4584.8423     -105.69645      1446.5232     -166.16799    
  32582000   259.09369     -421.17943     -334.40557     -421.15362      0              6624.2065      30.957001      21.340725      32.355511      21375.502      7353.1367      6580.8828      5938.6        -455.2244      -463.31358     -436.09289    
  32584000   263.2708      -418.84039     -330.66756     -418.81524      0              4085.7263      30.957001      21.340725      32.46562       21448.245      2200.2063      5830.8403      4226.1323      797.20637      982.9163       675.71313    
  32586000   257.82221     -418.3133      -331.96529     -418.2939       0              5827.6357      30.957001      21.340725      32.433099      21426.76       5848.8651      6631.5681      5002.474       311.8713       225.47797     -1687.4969    
  32588000   260.84822     -419.82609     -332.46462     -419.8006       0              6198.5102      30.957001      21.340725      32.591325      21531.291      5312.6475      6233.3951      7049.4879      633.97999      1141.3283     -707.98677    
  32590000   257.05481     -420.33775     -334.24674     -420.30956      0              4628.478       30.957001      21.340725      32.346873      21369.795      4047.3368      5090.5685      4747.5286      391.37138     -2160.9093      1067.4931    
  32592000   260.23399     -420.20068     -333.04492     -420.18358      0              8514.8216      30.957001      21.340725      32.345345      21368.785      8448.3866      7997.8583      9098.2199      1501.4094      564.46089      43.065865    
  32594000   259.8906      -420.4977      -333.45695     -420.47908      0              5861.4911      30.957001      21.340725      32.385946      21395.608      7327.2542      3880.7405      6376.4786      1045.8005      229.52287     -202.12995    
  32596000   260.1685      -417.19813     -330.0643      -417.17304      0              5922.3329      30.957001      21.340725      32.451607      21438.987      4901.8817      6720.319       6144.798      -400.37991      788.31259      229.34863    
  32598000   267.0717      -422.20307     -332.75728     -422.14738      0              5063.9418      30.957001      21.340725      32.464494      21447.501      5240.0565      5820.2595      4131.5092      146.99771      774.48272      118.3897     
  32600000   260.09858     -422.49645     -335.38605     -422.43755      0              5832.3694      30.957001      21.340725      32.452911      21439.848      4600.5759      5156.6264      7739.9061     -886.91659      1334.3999      891.62803    
  32602000   263.99634     -421.33474     -332.91893     -421.28251      0              6986.8921      30.957001      21.340725      32.363148      21380.547      7639.4646      6426.6556      6894.556      -170.88091      3.2288695     -79.151999    
  32604000   260.95454     -417.5051      -330.10803     -417.48001      0              7650.412       30.957001      21.340725      32.251109      21306.529      8778.3698      8634.1374      5538.7288     -143.46302     -437.55896      1010.4239    
[...]
  33238000   262.6963      -419.5147      -331.53429     -419.50538      0              7241.4542      30.957001      21.340725      32.58913       21529.841      5693.9527      8441.0605      7589.3493     -886.87368      976.05591      1478.1056    
  33240000   258.76726     -419.9956      -333.33107     -419.97867      0              5323.4772      30.957001      21.340725      32.484322      21460.6        6330.9118      4620.9187      5018.6011     -614.65191     -912.54128     -1285.2666    
  33242000   255.90483     -419.77478     -334.06892     -419.76559      0              6533.1615      30.957001      21.340725      32.533507      21493.094      6351.4617      6191.4571      7056.5656      94.803403     -1078.1258     -1101.3492    
  33244000   252.37367     -421.436       -336.91277     -421.4195       0              5223.176       30.957001      21.340725      32.592303      21531.937      5257.0216      5997.072       4415.4344     -839.3804       710.40404     -1287.587     
  33246000   254.25422     -419.78147     -334.62841     -419.7694       0              6363.0933      30.957001      21.340725      32.519379      21483.76       6909.0872      5466.0869      6714.1058      939.00846      744.44602      837.74505    
  33248000   263.10693     -420.66756     -332.54961     -420.65078      0              6344.4628      30.957001      21.340725      32.412344      21413.048      7169.5878      6036.3011      5827.4996     -346.01714      933.45772     -427.36356    
  33250000   256.75        -418.95467     -332.96575     -418.94602      0              7563.7378      30.957001      21.340725      32.635774      21560.656      5991.8965      8308.0849      8391.2321     -697.85579      153.71108      169.8769     
  33252000   269.1206      -418.12798     -327.99598     -418.11666      0              5805.4097      30.957001      21.340725      32.649545      21569.753      5444.1179      5874.6642      6097.4469     -603.3536      -1631.5569     -876.09601    
  33254000   259.65226     -419.82227     -332.86134     -419.81074      0              3957.1956      30.957001      21.340725      32.651235      21570.87       5103.8517      3789.671       2978.0641      558.6463      -999.23277     -591.60382    
  33256000   258.31365     -420.91287     -334.40026     -420.90282      0              10025.899      30.957001      21.340725      32.594234      21533.213      10889.55       9335.0811      9853.0657      1972.4556     -1421.3633     -350.95368    
  33258000   260.83843     -420.07563     -332.71744     -420.0634       0              6316.6559      30.957001      21.340725      32.587061      21528.474      8477.6042      4941.6721      5530.6915     -282.09523      726.19228     -31.502741    
  33260000   260.68152     -419.52741     -332.22177     -419.51843      0              7321.132       30.957001      21.340725      32.562756      21512.417      8102.3209      5954.9585      7906.1166     -369.16691     -435.54591     -421.43228    
  33262000   259.90804     -415.30502     -328.25843     -415.29426      0              9064.7213      30.957001      21.340725      32.545582      21501.071      10284.922      7881.6897      9027.5519     -2334.412       188.60775     -573.39774    
  33264000   264.2518      -420.05366     -331.55229     -420.05212      0              6203.5377      30.957001      21.340725      32.660906      21577.259      8566.3092      5262.5761      4781.7278      420.31566      175.97845     -1994.3873    
  33266000   254.43249     -418.61405     -333.40129     -418.60533      0              6615.8884      30.957001      21.340725      32.632304      21558.364      7337.7432      6570.4844      5939.4377      699.32162      397.53276      519.18752    
  33268000   256.18869     -419.04444     -333.24351     -419.03411      0              5901.7083      30.957001      21.340725      32.653244      21572.197      6603.5573      4744.0479      6357.5197      949.55519     -305.16804      510.67013    
  33270000   260.79718     -418.46687     -331.1225      -418.46598      0              6263.9194      30.957001      21.340725      32.676376      21587.48       6759.308       7148.042       4884.4081      500.53422      402.60367     -360.20951    
  33272000   262.71214     -419.3929      -331.40718     -419.38447      0              5029.9581      30.957001      21.340725      32.496498      21468.644      3275.4212      5713.4462      6101.0069      811.52768      552.20339     -353.39187    
  33274000   266.27781     -420.65622     -331.47631     -420.64836      0              6339.3327      30.957001      21.340725      32.553666      21506.412      5266.1493      6716.4596      7035.3891      428.25206      690.183        194.40896    
  33276000   255.9229      -418.32602     -332.61411     -418.31723      0              4781.8267      30.957001      21.340725      32.476921      21455.71       5581.6564      4527.7284      4236.0952      103.36985     -1840.6282      215.97505    
  33278000   269.09919     -418.06639     -327.94156     -418.04969      0              6892.7619      30.957001      21.340725      32.677936      21588.51       5472.6528      6566.7007      8638.9322      984.58909     -453.67462      2303.9846    
  33280000   255.51117     -416.03243     -330.45841     -416.03234      0              4951.1158      30.957001      21.340725      32.56258       21512.3        5167.5407      4391.1717      5294.6351      978.15663      116.41749     -40.049112    
  33282000   258.5413      -420.97617     -334.38732     -420.96767      0              6097.3395      30.957001      21.340725      32.627966      21555.498      7328.339       6590.9458      4372.7337     -38.549772     -781.18591     -508.54685    
  33284000   265.96829     -416.74737     -327.67112     -416.74232      0              6826.523       30.957001      21.340725      32.697556      21601.472      5580.1753      8283.1969      6616.1966     -940.18625     -2243.4674     -1518.1702    
  33286000   257.63433     -418.04573     -331.76063     -418.03518      0              6200.0032      30.957001      21.340725      32.603225      21539.153      8667.9673      6401.1345      3530.9079     -723.50458     -1246.3167     -872.5889     
  33288000   263.33652     -419.8941      -331.69926     -419.89457      0              5913.7276      30.957001      21.340725      32.658476      21575.654      3412.8721      6348.8675      7979.4431      640.75377     -13.391843     -132.44397    
  33290000   258.97094     -418.58144     -331.8487      -418.56642      0              5638.7676      30.957001      21.340725      32.574718      21520.32       7324.5528      4064.5009      5527.2491     -231.16239     -696.2348      -780.13162    
  33292000   264.11494     -417.93502     -329.47948     -417.93261      0              6850.335       30.957001      21.340725      32.664174      21579.418      10058.989      6967.6816      3524.3345      734.27497      182.90312     -193.52919    
  33294000   270.37697     -421.43152     -330.87875     -421.42109      0              4470.2909      30.957001      21.340725      32.667579      21581.668      4828.1856      3784.6149      4798.072       377.14183      592.10215      306.26771    
  33296000   261.10334     -419.13591     -331.689       -419.12688      0              5952.8517      30.957001      21.340725      32.648989      21569.386      7193.8299      4559.0228      6105.7024      1025.0307      3368.0139      1631.8106    
  33298000   265.88776     -419.34873     -330.29946     -419.34047      0              4349.2335      30.957001      21.340725      32.631064      21557.544      5453.6053      4432.998       3161.0971      1545.7159     -1524.826       212.93981    
  33300000   264.69276     -416.90832     -328.25926     -416.92174      0              4806.5695      30.957001      21.340725      32.569443      21516.835      4370.1315      5089.0765      4960.5006      259.77959     -20.899875      183.06348    
  33302000   256.23414     -418.34795     -332.53179     -418.3338       0              6732.3733      30.957001      21.340725      32.500061      21470.998      6480.5263      5466.1207      8250.4728      488.17614      519.37431      845.87597    
  33304000   257.79052     -421.47306     -335.13565     -421.46486      0              7292.2046      30.957001      21.340725      32.458726      21443.69       7871.4123      6436.6382      7568.5632      744.36031      477.24686      261.20355    
  33306000   263.0539      -418.17618     -330.076       -418.16809      0              9044.6093      30.957001      21.340725      32.498474      21469.949      8473.3046      7866.3192      10794.204     -286.40357      763.41695     -77.647157    
  33308000   265.39063     -420.25658     -331.37379     -420.25008      0              5060.971       30.957001      21.340725      32.445752      21435.119      3546.6686      4814.5435      6821.7009      1760.2139     -2222.4861      524.9778     
  33310000   264.84792     -418.98896     -330.28794     -418.98095      0              6757.4642      30.957001      21.340725      32.542464      21499.011      7738.4857      5302.3291      7231.5778     -1944.7908     -1060.2113      92.130974    
  33312000   254.7279      -419.68495     -334.37326     -419.68578      0              6357.3966      30.957001      21.340725      32.520507      21484.505      6046.5462      5586.4334      7439.2101      157.88782     -1249.788       1739.8185    
  33314000   257.97413     -418.10038     -331.70148     -418.10064      0              7693.4661      30.957001      21.340725      32.487846      21462.928      7916.1963      5364.8921      9799.3099     -560.71186      2848.9021      609.92099    
  33316000   259.40378     -418.53504     -331.65733     -418.53507      0              4645.5939      30.957001      21.340725      32.573511      21519.522      8184.2326      1899.0173      3853.5319     -3143.3336     -484.28581      1505.3011    
  33318000   258.91658     -419.58616     -332.87162     -419.58651      0              6415.9848      30.957001      21.340725      32.503111      21473.013      4687.4438      6291.4576      8269.053      -827.08212      596.77675      2460.2811    
  33320000   252.72503     -419.49891     -334.858       -419.49116      0              5538.1436      30.957001      21.340725      32.632938      21558.783      7016.3376      4360.9351      5237.1581      1133.5549     -1443.3813      459.49765    
  33322000   266.13212     -420.00679     -330.87568     -420.00535      0              5968.7608      30.957001      21.340725      32.608226      21542.456      7042.1391      7195.7907      3668.3527     -467.7919      -2335.0574     -602.48752    
  33324000   252.74682     -417.97777     -333.32957     -417.98366      0              4622.2657      30.957001      21.340725      32.476123      21455.183      4552.7059      4087.7929      5226.2982      1124.3785     -296.82896      774.12894    
  33326000   256.01723     -418.24163     -332.49813     -418.25328      0              7044.5518      30.957001      21.340725      32.499685      21470.75       6209.4         6067.278       8856.9774     -401.63504      3.6953204      2282.0845    
  33328000   257.23155     -418.4062      -332.256       -418.40106      0              6038.6143      30.957001      21.340725      32.408754      21410.677      5968.796       5280.6511      6866.3959      955.70432     -269.87826     -286.44984    
  33330000   256.71913     -419.43666     -333.45808     -419.43757      0              3869.4628      30.957001      21.340725      32.498969      21470.276      3031.2342      4596.4107      3980.7435      84.299198      632.79756      806.4124     
  33332000   266.87562     -418.3941      -329.01398     -418.38698      0              7320.0645      30.957001      21.340725      32.499501      21470.628      7980.8592      8366.1256      5613.2088     -180.4259       558.0253      -535.19969    
  33334000   257.00722     -418.91766     -332.84259     -418.9082       0              7352.6359      30.957001      21.340725      32.481343      21458.632      6877.5375      6669.8808      8510.4895      1086.8967     -914.93816      254.71835    
  33336000   260.99549     -420.64694     -333.23615     -420.63091      0              6457.6337      30.957001      21.340725      32.398227      21403.722      9058.9358      3282.3331      7031.6323     -2308.5005      131.10379      214.01264    
  33338000   261.42187     -417.74232     -330.18873     -417.73459      0              6561.1252      30.957001      21.340725      32.411624      21412.572      6648.7244      6676.7208      6357.9304     -904.21925      717.72355      1596.9445    
  33340000   257.60996     -418.61692     -332.33999     -418.60027      0              5989.6663      30.957001      21.340725      32.508072      21476.29       6674.892       6189.2503      5104.8566      714.03916      402.95833     -200.07561    
  33342000   253.55561     -419.88665     -334.96757     -419.87832      0              6974.5293      30.957001      21.340725      32.385652      21395.414      6073.6373      9591.0174      5258.933      -1084.2523      32.722891     -416.32175    
  33344000   262.461       -417.28936     -329.38775     -417.27609      0              7673.6298      30.957001      21.340725      32.562651      21512.347      5891.7349      9624.1569      7504.9977     -305.98468     -1886.6214      844.01722    
  33346000   260.80776     -418.54633     -331.19841     -418.52876      0              5528.5322      30.957001      21.340725      32.524821      21487.355      7900.477       3852.4534      4832.6663     -1355.8115      316.29122      2463.7755    
  33348000   257.28035     -420.15125     -333.9847      -420.14355      0              4844.2308      30.957001      21.340725      32.524578      21487.195      4504.0022      4289.498       5739.1921      272.40842      32.823405      384.05217    
  33350000   259.47864     -419.16232     -332.25954     -419.1501       0              3024.8009      30.957001      21.340725      32.712074      21611.063      3751.5137      3320.1486      2002.7404      1524.9628      162.67781     -297.91617    
  33352000   254.95283     -417.77853     -332.3915      -417.77467      0              6267.1243      30.957001      21.340725      32.617495      21548.58       8314.5774      4781.2474      5705.5481      1260.2066     -1168.1581      373.5964     
  33354000   257.95594     -420.12064     -333.72783     -420.11321      0              3516.8719      30.957001      21.340725      32.609607      21543.369      3489.7495      3190.2264      3870.6397      1053.6742      934.81505      698.89653    
  33356000   256.12323     -417.12275     -331.34374     -417.10737      0              5581.1918      30.957001      21.340725      32.517047      21482.219      4814.2186      6260.3239      5669.0328      1195.0728     -839.5259       1742.5981    
  33358000   257.81487     -422.95815     -336.61259     -422.94065      0              4086.2683      30.957001      21.340725      32.718029      21614.997      4024.6745      3451.7028      4782.4276      598.87698     -113.64123      1444.9012    
  33360000   252.28512     -419.96211     -335.46854     -419.95162      0              6466.6072      30.957001      21.340725      32.455439      21441.519      6871.2967      4850.8564      7677.6684      1405.0766      1139.7925     -162.64942    
  33362000   262.0849      -421.72698     -333.95133     -421.72549      0              5588.8097      30.957001      21.340725      32.399496      21404.56       6098.45        4367.9135      6300.0655      358.87372      1262.3297      841.41456    
  33364000   261.92086     -418.35298     -330.63227     -418.35194      0              7278.065       30.957001      21.340725      32.549645      21503.755      8374.5035      5317.9204      8141.7713      1121.2118     -281.29948      426.92978    
  33366000   266.48214     -420.24033     -330.99199     -420.24887      0              5051.7296      30.957001      21.340725      32.606101      21541.053      7050.6307      4817.7124      3286.8455      586.94722      78.425607      2668.7514    
  33368000   253.63406     -417.50486     -332.55951     -417.51444      0              6782.1053      30.957001      21.340725      32.45831       21443.415      5151.7734      5728.6313      9465.9111     -115.65125     -885.92726      1475.2748    
  33370000   258.65979     -418.43652     -331.80798     -418.43597      0              7414.7997      30.957001      21.340725      32.568084      21515.937      8811.4952      5809.3938      7623.51        565.70169     -329.57235      204.55722    
  33372000   254.02867     -421.14637     -336.06886     -421.14105      0              4171.8701      30.957001      21.340725      32.606977      21541.632      3001.8604      5035.3363      4478.4136     -61.516603      1177.4632     -884.36318    
  33374000   261.03616     -421.94701     -334.5226      -421.93113      0              5742.3578      30.957001      21.340725      32.483438      21460.016      4960.4817      5876.3734      6390.2183     -275.2708       803.73507      1138.1931    
  33376000   261.19183     -418.63551     -331.15896     -418.63155      0              6961.6742      30.957001      21.340725      32.457233      21442.703      5916.3084      8205.7402      6762.9741      2478.1769     -959.51263     -473.70641    
  33378000   258.90461     -422.10277     -335.39224     -422.08762      0              5979.6901      30.957001      21.340725      32.494473      21467.306      6920.0697      5933.4048      5085.5958      1181.7583     -2169.8717      1066.7855    
  33380000   258.905       -421.42908     -334.71842     -421.42234      0              6467.7576      30.957001      21.340725      32.610156      21543.732      8651.4708      5544.5942      5207.2079      196.94564      596.52288     -19.470602    
  33382000   257.83691     -424.10667     -337.75373     -424.09085      0              3878.0701      30.957001      21.340725      32.683126      21591.938      5233.6168      3306.1547      3094.4387      1102.6494     -176.57648      61.574419    
  33384000   260.39254     -420.49664     -333.28778     -420.48911      0              4119.8653      30.957001      21.340725      32.737498      21627.859      2127.3905      5464.7117      4767.4939     -427.63679      363.27833      443.10439    
  33386000   259.45617     -416.8348      -329.93954     -416.8251       0              6704.2364      30.957001      21.340725      32.651145      21570.811      5788.2676      8085.6535      6238.7881     -1793.751       1116.9973     -342.58922    
  33388000   261.98406     -418.81247     -331.07059     -418.79939      0              4754.4538      30.957001      21.340725      32.628804      21556.051      3831.3688      5112.4572      5319.5355      138.71914     -559.54402      1136.4375    
  33390000   264.82147     -416.90107     -328.20891     -416.89615      0              5044.5261      30.957001      21.340725      32.688325      21595.373      5091.7019      5139.3571      4902.5194     -206.03848     -344.01114      147.92746    
  33392000   254.82826     -418.73023     -333.38492     -418.72744      0              5759.6783      30.957001      21.340725      32.626133      21554.287      4525.3717      6067.5496      6686.1135      726.88493      1044.5817     -605.71183    
ERROR on proc 0: Cannot open restart file restart2.lmp.0: Permission denied (../write_restart.cpp:233)
Last command: run             ${nsteps_enhanced_coex_upto} upto
