LAMMPS (23 Jun 2022)
include procedure.lmp
echo both
include		in.partitions
variable        pid world 0
include		in.temp
variable	temperature equal 260
variable        tempDamp equal 0.100 # this is 0.1 ps
include		in.pressure
variable        pressure equal 6079.5
variable        pressureDamp equal 1.0 #this is 1ps

variable	barostat string	   tri
variable	direction string   z
variable	direction_x_bool equal 0
variable	direction_y_bool equal 0
variable	direction_z_bool equal 1

include		in.seed
variable        seed world 745823

units           metal
atom_style	full
box tilt large
read_restart 	restart.lmp.${pid}
read_restart 	restart.lmp.0
Reading restart file ...
  restart file = 23 Jun 2022, LAMMPS = 23 Jun 2022
  restoring atom style full from restart
  triclinic box = (0 0 -0.88961411) to (30.957001 21.340725 31.754778) with tilt (-9.151055 1.0626204 -10.806783)
WARNING: Triclinic box skew is large (../domain.cpp:224)
  2 by 1 by 2 MPI processor grid
Summary of lammps deepmd module ...
  >>> Info of deepmd-kit:
  installed to:       /u/sigbjobo/software/DEEPMD_FROM_SOURCE/deepmd-kit/install
  source:             v2.1.3
  source branch:       master
  source commit:      5a32c49
  source commit at:   2022-07-01 09:52:58 +0800
  surpport model ver.:1.1 
  build float prec:   double
  build with tf inc:  /u/sigbjobo/software/DEEPMD_FROM_SOURCE/tensorflow/install/include;/u/sigbjobo/software/DEEPMD_FROM_SOURCE/tensorflow/install/include
  build with tf lib:  /u/sigbjobo/software/DEEPMD_FROM_SOURCE/tensorflow/install/lib/libtensorflow_cc.so;/u/sigbjobo/software/DEEPMD_FROM_SOURCE/tensorflow/install/lib/libtensorflow_framework.so
  set tf intra_op_parallelism_threads: 0
  set tf inter_op_parallelism_threads: 0
  >>> Info of lammps module:
  use deepmd-kit at:  /u/sigbjobo/software/DEEPMD_FROM_SOURCE/deepmd-kit/install
  source:             v2.1.3
  source branch:      master
  source commit:      5a32c49
  source commit at:   2022-07-01 09:52:58 +0800
  build float prec:   double
  build with tf inc:  /u/sigbjobo/software/DEEPMD_FROM_SOURCE/tensorflow/install/include;/u/sigbjobo/software/DEEPMD_FROM_SOURCE/tensorflow/install/include
  build with tf lib:  /u/sigbjobo/software/DEEPMD_FROM_SOURCE/tensorflow/install/lib/libtensorflow_cc.so;/u/sigbjobo/software/DEEPMD_FROM_SOURCE/tensorflow/install/lib/libtensorflow_framework.so
  restoring pair style deepmd from restart
  2592 atoms
Finding 1-2 1-3 1-4 neighbors ...
  special bond factors lj:    0        0        0       
  special bond factors coul:  0        0        0       
     0 = max # of 1-2 neighbors
     0 = max # of 1-3 neighbors
     0 = max # of 1-4 neighbors
     1 = max # of special neighbors
  special bonds CPU = 0.000 seconds
  read_restart CPU = 0.097 seconds
include 	in.setup
variable	out_freq equal 2000
variable	out_freq2 equal 2000

timestep        0.0005

neigh_modify    delay 7 every 1

include         in.deepmd
# This is deepMD model

# create groups ###
#group ox type 2
#group hy type 1

mass 2 15.999
mass 1 1.008

pair_style      deepmd ../graph.pb
pair_coeff      * *

bond_style      none
angle_style     none
dihedral_style  none
improper_style  none
neigh_modify exclude none


neighbor        2.0 bin
neigh_modify    every 50 delay 0 check no

thermo          ${out_freq}
thermo          2000
thermo_style 	custom step temp pe etotal epair emol press lx ly lz vol pxx pyy pzz pxy pxz pyz

restart 	${out_freq} restart.lmp.${pid} restart2.lmp.${pid}
restart 	2000 restart.lmp.${pid} restart2.lmp.${pid}
restart 	2000 restart.lmp.0 restart2.lmp.${pid}
restart 	2000 restart.lmp.0 restart2.lmp.0


timer           timeout 23:50:00 every 1000
New timer settings: style=normal  mode=nosync  timeout=23:50:00


# Set number of time steps
variable 	nsteps_wall		equal	 6000000
variable 	nsteps_enhanced_coex    equal	150000000

variable     nsteps_enhanced_coex_upto equal (${nsteps_wall}+${nsteps_enhanced_coex})
variable     nsteps_enhanced_coex_upto equal (6000000+${nsteps_enhanced_coex})
variable     nsteps_enhanced_coex_upto equal (6000000+150000000)


# Set temperature for first step
if "$(step) < 1  " then    "velocity 	all create ${temperature} ${seed} dist gaussian"


# Always run thermo and barostat


######################################
# Run simulation with wall potential #
######################################
if " $(step) < ${nsteps_wall} " then    "fix             3 all plumed plumedfile plumed.equil.dat outfile plumed.equil.out"   "fix             1 all nph ${direction} ${pressure} ${pressure} ${pressureDamp}"   "fix             2 all temp/csvr ${temperature} ${temperature} ${tempDamp} ${seed}"   "run             ${nsteps_wall} upto"
if " $(step) == ${nsteps_wall} " then    "unfix 3"   "unfix 1"   "unfix 2"


############################
# Run enhanced coesistence #
############################
if "$(step) == ${nsteps_wall}" then    "fix             3 all plumed plumedfile plumed.start.dat outfile plumed.out" else    "fix             3 all plumed plumedfile plumed.dat outfile plumed.out"
fix             3 all plumed plumedfile plumed.dat outfile plumed.out

if "$(step) < ${nsteps_enhanced_coex_upto} && $(step) >= ${nsteps_wall} " then    "include         in.dump"    "fix             1 all nph ${direction} ${pressure} ${pressure} ${pressureDamp}"   "fix             2 all temp/csvr ${temperature} ${temperature} ${tempDamp} ${seed}"   "run             ${nsteps_enhanced_coex_upto} upto"    "unfix 3"   "unfix 1"   "unfix 2"
include         in.dump
dump            myDump all atom ${out_freq2} dump.water.${pid}
dump            myDump all atom 2000 dump.water.${pid}
dump            myDump all atom 2000 dump.water.0
dump            myDump2 all dcd ${out_freq2} dump.${pid}.dcd
dump            myDump2 all dcd 2000 dump.${pid}.dcd
dump            myDump2 all dcd 2000 dump.0.dcd
dump_modify     myDump append yes
dump_modify     myDump2 append yes

fix             1 all nph ${direction} ${pressure} ${pressure} ${pressureDamp}
fix             1 all nph z ${pressure} ${pressure} ${pressureDamp}
fix             1 all nph z 6079.5 ${pressure} ${pressureDamp}
fix             1 all nph z 6079.5 6079.5 ${pressureDamp}
fix             1 all nph z 6079.5 6079.5 1
fix             2 all temp/csvr ${temperature} ${temperature} ${tempDamp} ${seed}
fix             2 all temp/csvr 260 ${temperature} ${tempDamp} ${seed}
fix             2 all temp/csvr 260 260 ${tempDamp} ${seed}
fix             2 all temp/csvr 260 260 0.1 ${seed}
fix             2 all temp/csvr 260 260 0.1 745823
run             ${nsteps_enhanced_coex_upto} upto
run             156000000 upto

CITE-CITE-CITE-CITE-CITE-CITE-CITE-CITE-CITE-CITE-CITE-CITE-CITE

Your simulation uses code contributions which should be cited:

- USER-DEEPMD package:

@article{Wang_ComputPhysCommun_2018_v228_p178,
  author = {Wang, Han and Zhang, Linfeng and Han, Jiequn and E, Weinan},
  doi = {10.1016/j.cpc.2018.03.016},
  url = {https://doi.org/10.1016/j.cpc.2018.03.016},
  year = 2018,
  month = {jul},
  publisher = {Elsevier {BV}},
  volume = 228,
  journal = {Comput. Phys. Commun.},
  title = {{DeePMD-kit: A deep learning package for many-body potential energy representation and molecular dynamics}},
  pages = {178--184}
}

CITE-CITE-CITE-CITE-CITE-CITE-CITE-CITE-CITE-CITE-CITE-CITE-CITE

Generated 0 of 1 mixed pair_coeff terms from geometric mixing rule
Neighbor list info ...
  update every 50 steps, delay 0 steps, check no
  max neighbors/atom: 2000, page size: 100000
  master list distance cutoff = 8
  ghost atom cutoff = 8
  binsize = 4, bins = 11 9 9
  1 neighbor lists, perpetual/occasional/extra = 1 0 0
  (1) pair deepmd, perpetual
      attributes: full, newton on
      pair build: full/bin
      stencil: full/bin/3d
      bin: standard
Per MPI rank memory allocation (min/avg/max) = 6.238 | 6.239 | 6.239 Mbytes
   Step          Temp          PotEng         TotEng         E_pair         E_mol          Press            Lx             Ly             Lz           Volume          Pxx            Pyy            Pzz            Pxy            Pxz            Pyz      
 113395000   265.86888     -418.35715     -329.31419     -418.35715      0              6111.3244      30.957001      21.340725      32.644392      21566.349      7010.9452      6726.7074      4596.3207     -1112.8228     -398.69276      1021.5139    
 113396000   262.78825     -417.67501     -329.6638      -417.63732      0              5905.6254      30.957001      21.340725      32.378744      21390.851      5839.1537      4992.9849      6884.7376     -1049.5334     -774.03282      2192.6427    
 113398000   261.16292     -416.49045     -329.02358     -416.47223      0              4129.2101      30.957001      21.340725      32.599226      21536.511      2541.9777      4678.3181      5167.3346     -1071.2207      1153.2021      395.0513     
 113400000   260.86782     -418.92466     -331.55663     -418.88709      0              6329.8949      30.957001      21.340725      32.606496      21541.314      7985.1037      6857.3989      4147.1819      994.3702      -779.77091      278.16521    
 113402000   262.26366     -417.77064     -329.93512     -417.73962      0              5520.8032      30.957001      21.340725      32.589023      21529.77       5750.0592      6356.3366      4456.0136      806.52855     -1341.8695      845.63234    
 113404000   260.6349      -415.86905     -328.57902     -415.84147      0              8444.2859      30.957001      21.340725      32.658538      21575.695      9260.4823      7708.8766      8363.4987      1212.4801     -2602.5425      738.19814    
 113406000   259.56172     -416.72141     -329.7908      -416.68386      0              5967.322       30.957001      21.340725      32.703557      21605.437      5590.2901      5718.9223      6592.7535      1152.0034      526.25971     -1165.1292    
 113408000   265.94702     -416.93603     -327.86691     -416.91076      0              2816.6446      30.957001      21.340725      32.680445      21590.167      3827.7964      2703.2697      1918.8678      101.18903     -139.49215      1018.1399    
 113410000   267.08602     -419.47684     -330.02625     -419.41116      0              3829.4622      30.957001      21.340725      32.486235      21461.864      4089.4002      4018.8605      3380.1259      693.66266     -753.54881      928.90071    
 113412000   263.34534     -418.72717     -330.52938     -418.6983       0              6184.3318      30.957001      21.340725      32.512268      21479.062      6973.4881      6831.0605      4748.4468      479.68609      521.14641     -2858.5932    
 113414000   262.84986     -419.60685     -331.575       -419.53361      0              5206.8323      30.957001      21.340725      32.51363       21479.962      5567.8184      4474.4492      5578.2293     -1615.2919     -1754.3877      770.46328    
 113416000   252.50502     -419.96028     -335.39306     -419.89196      0              6146.5897      30.957001      21.340725      32.645875      21567.329      4453.0686      7176.566       6810.1345      638.16106      755.27618      1066.4068    
 113418000   260.49308     -422.0514      -334.80887     -421.97375      0              6945.628       30.957001      21.340725      32.741171      21630.286      8055.7817      6724.778       6056.3243     -1227.3475     -1336.996      -792.17322    
 113420000   271.36093     -418.57886     -327.69655     -418.53916      0              5297.3474      30.957001      21.340725      32.841457      21696.539      7900.4305      4630.7024      3360.9092     -630.57424     -1068.3877     -1194.0338    
 113422000   265.69329     -419.10449     -330.12034     -419.05715      0              7827.8537      30.957001      21.340725      32.684507      21592.851      9119.7686      6069.1115      8294.6811     -246.40025      154.09608     -641.42001    
 113424000   254.46184     -419.24282     -334.02023     -419.22901      0              5148.6231      30.957001      21.340725      32.860527      21709.138      4793.5979      5207.9802      5444.2911      992.94947      79.387619      1712.3815    
 113426000   263.61055     -415.78038     -327.49377     -415.7392       0              7694.8574      30.957001      21.340725      32.691166      21597.25       6299.6054      8646.9424      8138.0243     -576.30697      772.63107      1477.3953    
 113428000   263.29265     -418.97477     -330.79463     -418.93331      0              7015.8825      30.957001      21.340725      32.749318      21635.668      6555.1397      7548.1052      6944.4026     -184.94137     -1830.4647      475.37339    
 113430000   260.17309     -421.32093     -334.18557     -421.28186      0              7847.1412      30.957001      21.340725      32.512555      21479.252      5997.3756      9078.1994      8465.8484     -977.65813      807.85343      155.95799    
 113432000   260.14973     -420.32696     -333.19943     -420.29188      0              6534.4263      30.957001      21.340725      32.608592      21542.698      7070.1705      5328.0841      7205.0243     -1954.276       1414.1276      611.85017    
 113434000   261.09375     -419.94249     -332.49879     -419.91614      0              5837.167       30.957001      21.340725      32.774805      21652.506      5097.4004      6982.7427      5431.3578      167.03499      1278.2358      1136.8711    
 113436000   256.12992     -419.84264     -334.06139     -419.79593      0              6545.2356      30.957001      21.340725      32.683682      21592.306      7219.3838      7125.5547      5290.7683     -2711.8278      1657.0474      897.62141    
 113438000   256.05075     -417.54064     -331.7859      -417.50331      0              4070.2415      30.957001      21.340725      32.70341       21605.339      2914.2914      4308.6333      4987.7997     -367.06906     -442.87352      2216.2726    
 113440000   257.34913     -419.66113     -333.47155     -419.62012      0              8530.619       30.957001      21.340725      32.62512       21553.617      7980.1764      9593.163       8018.5178      327.12013     -242.76994     -1022.2838    
 113442000   257.70226     -417.72135     -331.4135      -417.6867       0              6093.4299      30.957001      21.340725      32.856087      21706.205      8583.4297      6414.4377      3282.4222     -44.732506      402.42229     -826.55654    
 113444000   260.62136     -415.61055     -328.32506     -415.57567      0              6198.3075      30.957001      21.340725      32.884521      21724.989      9645.745       5420.9522      3528.2254     -399.10876     -1627.7459      899.37308    
 113446000   270.4883      -418.34178     -327.75172     -418.31559      0              5733.395       30.957001      21.340725      32.754756      21639.261      6986.1834      7469.5123      2744.4893      293.37008     -464.15238     -1771.6357    
 113448000   261.09888     -420.13835     -332.69293     -420.08307      0              7431.8664      30.957001      21.340725      32.728691      21622.041      9327.7271      7301.3461      5666.5259     -50.846226     -698.02852      791.02991    
 113450000   264.55659     -419.54291     -330.93945     -419.50029      0              5419.6936      30.957001      21.340725      32.773965      21651.951      3953.3101      4807.4399      7498.3308      581.37377      8.8243003      969.65453    
 113452000   252.76676     -419.49917     -334.84429     -419.46426      0              6585.3743      30.957001      21.340725      32.764365      21645.609      5195.583       6192.1399      8368.4         363.70488     -71.429172      670.44199    
 113454000   261.49532     -420.26888     -332.69069     -420.21222      0              4492.2635      30.957001      21.340725      33.01958       21814.216      5191.5443      4743.1675      3542.0788      192.94858      9.2211405     -325.47552    
 113456000   257.51018     -419.93647     -333.69295     -419.86752      0              6292.7039      30.957001      21.340725      32.86645       21713.05       7403.8036      5503.3616      5970.9464     -1131.7275     -2662.2326      796.47374    
 113458000   259.4595      -414.44377     -327.5474      -414.38974      0              5424.5454      30.957001      21.340725      32.837488      21693.917      5430.1449      6862.6426      3980.8486      711.18854      243.42599     -1860.8234    
 113460000   253.39497     -420.63568     -335.77041     -420.57696      0              4839.5796      30.957001      21.340725      32.667959      21581.919      4841.8683      4252.5822      5424.2883     -415.10626      168.25945     -432.75811    
 113462000   263.44148     -420.57001     -332.34003     -420.52802      0              6416.9358      30.957001      21.340725      32.843464      21697.865      6086.5008      8576.5849      4587.7218     -103.96169      643.33077      704.54076    
 113464000   253.37502     -420.19932     -335.34072     -420.13942      0              4185.2211      30.957001      21.340725      32.824819      21685.547      4139.9439      6154.1247      2261.5947     -72.66523       1058.1448     -386.73978    
 113466000   258.17655     -421.98218     -335.51548     -421.93338      0              7614.263       30.957001      21.340725      32.9848        21791.238      6998.3734      8381.8501      7462.5655     -389.60962      1079.8709      1313.373     
 113468000   266.22604     -423.30614     -334.14356     -423.22205      0              5269.0982      30.957001      21.340725      32.64692       21568.02       4770.7248      5538.151       5498.4187     -436.89082     -85.631124     -329.53836    
 113470000   258.9429      -418.18782     -331.46447     -418.15702      0              6915.1713      30.957001      21.340725      32.772796      21651.179      5799.136       5347.5037      9598.8742     -1364.7274      690.97275      557.82797    
 113472000   254.41373     -420.97659     -335.77011     -420.90061      0              7345.9744      30.957001      21.340725      32.673905      21585.847      6382.7223      8090.0936      7565.1073      1413.6083     -825.947       -989.25378    
 113474000   256.0575      -422.47509     -336.71809     -422.4334       0              6958.0032      30.957001      21.340725      32.838913      21694.859      6989.5177      6781.2293      7103.2626      530.91032      485.74644     -753.68361    
 113476000   258.41036     -421.49099     -334.94599     -421.43213      0              7785.8979      30.957001      21.340725      32.763413      21644.98       7348.0406      7028.6866      8980.9664     -742.8616       30.351648      113.48254    
 113478000   262.41421     -420.31164     -332.4257      -420.27036      0              5230.5299      30.957001      21.340725      32.841713      21696.709      5170.0425      4982.3986      5539.1486      900.90716      1026.7661     -876.51245    
 113480000   258.35301     -420.36544     -333.83965     -420.32601      0              5706.6856      30.957001      21.340725      32.783061      21657.96       5530.8354      6576.8894      5012.3321      298.39905      1432.3291      202.17697    
 113482000   260.32104     -420.13179     -332.94688     -420.07871      0              6488.0688      30.957001      21.340725      32.714339      21612.56       6085.5921      7354.6489      6023.9654     -712.92217      269.87676      414.80034    
 113484000   252.47435     -421.85195     -337.295       -421.79969      0              6606.792       30.957001      21.340725      32.571717      21518.337      6549.4278      7170.1558      6100.7925     -360.41034      42.732542     -781.92777    
 113486000   254.86148     -418.71196     -333.35553     -418.67451      0              4934.3092      30.957001      21.340725      32.849159      21701.628      6450.6734      3887.1336      4465.1206      366.4409       407.17437     -1149.2089    
 113488000   256.56366     -416.18415     -330.25764     -416.13927      0              5484.1761      30.957001      21.340725      32.814141      21678.493      6212.5428      3845.9869      6393.9986     -931.7333      -477.28669     -443.41603    
 113490000   256.2633      -419.76482     -333.9389      -419.73166      0              3359.7751      30.957001      21.340725      32.840282      21695.763      1599.7069      3602.9098      4876.7088      798.79837      700.04318     -1551.0571    
 113492000   256.52376     -419.51015     -333.597       -419.45512      0              4770.2821      30.957001      21.340725      32.859666      21708.569      5160.6369      3067.9387      6082.2708     -1356.6883     -86.170679      1777.5415    
 113494000   262.64347     -420.69921     -332.73648     -420.63723      0              5798.6169      30.957001      21.340725      32.913311      21744.009      4706.1833      7377.3321      5312.3352      81.211261     -668.32579     -1713.3725    
 113496000   258.42633     -418.96836     -332.41802     -418.90119      0              7450.7154      30.957001      21.340725      32.715559      21613.366      6662.4905      6201.7485      9487.9071      1307.9622      1713.6917      557.34361    
 113498000   264.54422     -420.45622     -331.85691     -420.41148      0              3780.0864      30.957001      21.340725      32.758187      21641.527      2761.547       3257.6717      5321.0405     -63.281461      501.26277      527.99666    
 113500000   258.09428     -417.96621     -331.52707     -417.9159       0              5722.3411      30.957001      21.340725      32.668394      21582.206      6496.9474      3842.8299      6827.2459     -789.92625      887.56964     -18.927155    
 113502000   253.73564     -415.19497     -330.2156      -415.13835      0              4199.6511      30.957001      21.340725      32.758008      21641.409      3864.6055      2844.52        5889.8278     -59.858346      807.45117     -1005.7178    
 113504000   260.83312     -416.65321     -329.2968      -416.60004      0              6191.8326      30.957001      21.340725      32.633088      21558.881      5562.9826      6376.9427      6635.5725     -252.19734      902.10282      628.34721    
 113506000   255.18116     -416.6288      -331.16531     -416.57761      0              7569.9566      30.957001      21.340725      32.584272      21526.632      6372.0305      7214.9546      9122.8847     -1876.317      -130.9585       527.13436    
 113508000   259.96877     -419.12185     -332.05492     -419.07744      0              7071.9791      30.957001      21.340725      32.604926      21540.276      7192.6245      6491.6165      7531.6963      163.71793      859.50787      282.86251    
 113510000   265.84813     -419.30611     -330.2701      -419.25216      0              5437.0378      30.957001      21.340725      32.608744      21542.799      3465.6637      5513.1795      7332.2701     -109.03757      530.5311       1937.755     
 113512000   259.78918     -421.31608     -334.3093      -421.26394      0              5021.937       30.957001      21.340725      32.773043      21651.342      7143.0743      5829.4563      2093.2805     -400.73156     -610.42533      899.81869    
 113514000   263.16337     -418.04712     -329.91027     -417.99642      0              4193.7182      30.957001      21.340725      32.694265      21599.297      4914.6416      4170.971       3495.5421     -252.66994      1104.0684      599.87575    
 113516000   265.78203     -421.15878     -332.14491     -421.11768      0              4422.7808      30.957001      21.340725      32.601102      21537.75       5883.9033      4139.8388      3244.6001      2071.1778     -926.26472      935.62664    
 113518000   256.20915     -420.46013     -334.65235     -420.4089       0              5998.5703      30.957001      21.340725      32.766585      21647.076      5027.3648      5021.8325      7946.5135     -257.35459     -713.67407      2118.6701    
 113520000   260.43332     -414.98964     -327.76712     -414.95251      0              6213.9726      30.957001      21.340725      32.764729      21645.849      7423.2261      6837.6773      4381.0144      635.02447     -2344.6924     -1686.2333    
 113522000   254.89623     -417.25367     -331.8856      -417.2039       0              4887.9215      30.957001      21.340725      32.692961      21598.436      4775.9984      5363.7219      4524.0442     -238.64473     -1339.9079     -1430.1109    
 113524000   258.38319     -418.70607     -332.17017     -418.65595      0              6706.5535      30.957001      21.340725      32.637543      21561.825      6231.8511      6394.834       7492.9753     -212.17836     -21.799853      340.98337    
 113526000   251.12788     -421.41466     -337.30866     -421.37968      0              6705.9278      30.957001      21.340725      32.672511      21584.926      7790.617       4262.6459      8064.5205      304.82066      69.103975      24.500579    
 113528000   262.44458     -418.63208     -330.73597     -418.57538      0              7015.4435      30.957001      21.340725      32.607178      21541.764      7564.476       7159.9451      6321.9096      104.99342     -2178.0516     -503.69239    
 113530000   262.6936      -423.22093     -335.24142     -423.14389      0              5752.3376      30.957001      21.340725      32.509352      21477.136      4323.8559      7068.773       5864.3838      1530.1462     -1182.7728     -214.73925    
 113532000   259.60207     -419.39947     -332.45535     -419.31917      0              6780.9868      30.957001      21.340725      32.486276      21461.891      7225.4804      6409.1245      6708.3555     -1515.7014      213.84383      813.18198    
 113534000   252.27271     -422.9453      -338.45588     -422.86452      0              7048.241       30.957001      21.340725      32.504452      21473.899      7317.9289      4765.0559      9061.7382     -769.42702      481.18368     -1307.3077    
 113536000   257.54293     -419.41288     -333.1584      -419.36515      0              5133.7898      30.957001      21.340725      32.745336      21633.037      5159.5982      4374.718       5867.0533      923.089       -201.88561      530.39099    
 113538000   259.68294     -420.31724     -333.34603     -420.27138      0              5854.1307      30.957001      21.340725      32.899239      21734.713      6759.1358      5467.3435      5335.9128      1135.673      -1248.3216      942.57096    
 113540000   258.27272     -421.32197     -334.82307     -421.27772      0              3914.0345      30.957001      21.340725      32.702252      21604.574      5219.8548      5140.1225      1382.1263     -635.64636      371.85472      334.16852    
 113542000   260.68424     -422.90485     -335.5983      -422.85262      0              6200.1127      30.957001      21.340725      32.762716      21644.519      7932.5393      4760.8124      5906.9865      1503.4456     -2559.7801     -191.68127    
 113544000   270.22281     -420.85694     -330.3558      -420.78273      0              5426.5021      30.957001      21.340725      32.655334      21573.578      4332.8563      5692.6282      6254.022       470.40647      636.21039     -753.38628    
 113546000   260.65828     -421.00951     -333.71166     -420.97957      0              5223.0362      30.957001      21.340725      32.709954      21609.663      2993.0089      6441.1654      6234.9344     -807.95781     -183.27164      786.63505    
 113548000   254.75748     -420.86708     -335.54548     -420.82192      0              7567.4634      30.957001      21.340725      32.828868      21688.222      6230.6282      7018.2656      9453.4962      1205.398      -855.42012      50.358494    
 113550000   256.6536      -420.47313     -334.51649     -420.4113       0              4494.631       30.957001      21.340725      32.862619      21710.52       4035.2804      5387.173       4061.4395      662.55472     -639.72602      1174.6702    
 113552000   255.74914     -422.50023     -336.84651     -422.43113      0              6051.1458      30.957001      21.340725      32.764358      21645.604      5137.7115      5209.635       7806.091      -1172.6121     -297.06323      385.10006    
 113554000   263.9401      -422.74885     -334.35186     -422.68008      0              7304.9846      30.957001      21.340725      32.751453      21637.079      8198.9691      7617.4037      6098.5811      25.767307     -1254.5809     -181.55725    
 113556000   259.99668     -422.68888     -335.6126      -422.61804      0              6035.3663      30.957001      21.340725      32.60163       21538.099      6969.2049      6576.5093      4560.3849     -798.60277     -715.61048      339.73165    
 113558000   254.78798     -420.70349     -335.37167     -420.64415      0              5476.8274      30.957001      21.340725      32.650328      21570.271      6896.7381      4359.9388      5173.8053     -342.75704     -1420.7258     -1862.8896    
 113560000   262.50304     -419.68066     -331.76497     -419.61548      0              4958.6009      30.957001      21.340725      32.869444      21715.029      4475.231       6684.6424      3715.9291      562.35346     -414.73326     -851.74018    
 113562000   250.47855     -421.52588     -337.63735     -421.45136      0              7270.0021      30.957001      21.340725      32.766359      21646.926      8194.1939      7944.607       5671.2052      414.80908      351.88749      1674.0912    
 113564000   264.63378     -422.25084     -333.62153     -422.18345      0              7136.798       30.957001      21.340725      32.665848      21580.524      6750.6729      6917.3572      7742.3639     -713.71715      1040.6397      1328.1118    
 113566000   257.26984     -423.40015     -337.23712     -423.3167       0              5524.5356      30.957001      21.340725      32.763442      21644.999      3679.9282      6390.4703      6503.2085      583.21681      551.81115      1076.1901    
 113568000   258.76964     -419.59516     -332.92984     -419.53424      0              5559.767       30.957001      21.340725      32.653753      21572.533      4719.7755      4690.506       7269.0197     -1061.3105      908.19775     -475.0427     
 113570000   263.1831      -422.25415     -334.1107      -422.19112      0              7206.5783      30.957001      21.340725      32.595399      21533.982      6380.774       7019.5941      8219.3667      525.92305      761.12921     -1271.5263    
 113572000   258.34029     -422.52838     -336.00685     -422.44546      0              6869.1389      30.957001      21.340725      32.752323      21637.654      6537.3668      5853.4488      8216.6013     -384.5978       158.41223      436.25329    
 113574000   255.04965     -422.33356     -336.9141      -422.25618      0              4940.2593      30.957001      21.340725      32.715343      21613.223      6105.3537      2944.6261      5770.7982      1002.1965     -356.28982      710.43053    
 113576000   253.30823     -420.8333      -335.99707     -420.75815      0              4052.2076      30.957001      21.340725      32.717614      21614.723      4513.7891      3722.1124      3920.7213      839.86039     -205.85756      623.29876    
 113578000   262.83324     -421.56556     -333.53929     -421.50121      0              5074.7302      30.957001      21.340725      32.723919      21618.889      5923.3793      5049.192       4251.6192     -200.79678     -648.43615      660.1349     
 113580000   254.10873     -420.84604     -335.74172     -420.78094      0              4875.9395      30.957001      21.340725      32.794305      21665.389      4456.8972      3983.4518      6187.4695      211.17849     -818.52914      607.35487    
 113582000   256.38923     -420.95054     -335.08245     -420.8678       0              8313.7268      30.957001      21.340725      32.661708      21577.789      8236.5763      8676.2274      8028.3767     -1302.8489      986.7963      -706.73661    
 113584000   259.75005     -424.53615     -337.54247     -424.4544       0              4318.7288      30.957001      21.340725      32.814721      21678.876      5352.6381      2798.0512      4805.4973     -3.3290919      294.13545     -1646.7285    
 113586000   264.65493     -421.01925     -332.38286     -420.93594      0              4495.3578      30.957001      21.340725      32.828408      21687.919      3042.7224      7484.297       2959.054       1428.7002     -1348.5545      457.98874    
 113588000   262.18187     -421.36707     -333.55894     -421.28342      0              8168.8177      30.957001      21.340725      32.753406      21638.369      7260.4533      7134.2542      10111.746      2490.8542     -27.011746      1272.7503    
 113590000   257.39788     -419.11841     -332.91251     -419.05505      0              4930.5469      30.957001      21.340725      32.755521      21639.766      6907.3125      4824.6722      3059.656      -423.47134     -232.46488     -969.68198    
 113592000   262.12029     -420.93978     -333.15228     -420.86643      0              5694.2713      30.957001      21.340725      32.787309      21660.767      4826.948       5420.8699      6834.9961      55.971955     -584.64978      561.20914    
 113594000   263.95147     -420.46975     -332.06896     -420.38671      0              6211.1406      30.957001      21.340725      32.596539      21534.736      6696.7204      6669.8284      5266.8729      131.67344     -365.71284     -1246.3339    
 113596000   262.69787     -422.16666     -334.18571     -422.12745      0              6264.9152      30.957001      21.340725      32.698939      21602.386      6713.3434      6496.0576      5585.3447      423.87016     -699.25373     -326.54093    
 113598000   254.97573     -425.2875      -339.8928      -425.20412      0              5719.4849      30.957001      21.340725      32.649319      21569.604      7564.2037      5013.6138      4580.6374      166.0178      -744.46438     -623.63253    
 113600000   257.77258     -423.7884      -337.457       -423.70452      0              3695.817       30.957001      21.340725      32.632556      21558.53       1397.4751      4630.6569      5059.3191      289.89396      897.33112      414.51472    
 113602000   258.61928     -420.69817     -334.0832      -420.61658      0              7083.7384      30.957001      21.340725      32.588969      21529.734      5847.4314      6926.9856      8476.7981     -906.35805     -231.00619      1091.7509    
 113604000   261.75273     -423.09052     -335.42612     -423.00757      0              4243.5383      30.957001      21.340725      32.6341        21559.55       6064.9657      3002.1542      3663.4949      189.30248      206.9839       1769.3757    
 113606000   257.80987     -421.7251      -335.38121     -421.64131      0              6652.6406      30.957001      21.340725      32.814732      21678.884      4484.1641      9069.7944      6403.9633      206.14222     -348.37041      457.16446    
 113608000   260.25057     -421.3657      -334.20439     -421.30174      0              6030.9678      30.957001      21.340725      32.650489      21570.377      6811.7427      4985.3055      6295.8553      220.70344     -275.25969      743.60449    
 113610000   247.42564     -422.3418      -339.47573     -422.27172      0              6601.7043      30.957001      21.340725      32.783056      21657.957      6660.9741      6663.9301      6480.2088      531.43604     -617.75191     -363.8891     
 113612000   260.04273     -419.62289     -332.53118     -419.53934      0              3683.7604      30.957001      21.340725      32.672068      21584.633      3217.5221      5971.3645      1862.3945     -2366.9705     -1030.3927      1063.7039    
 113614000   265.39517     -422.84885     -333.96454     -422.77603      0              8664.2164      30.957001      21.340725      32.4318        21425.901      8567.0085      9108.9817      8316.6588     -1084.081      -566.2636       812.49231    
 113616000   264.15306     -422.81876     -334.35046     -422.74091      0              5920.5459      30.957001      21.340725      32.552799      21505.839      5957.0434      5372.6991      6431.8951      799.80164     -1731.5279     -86.730865    
 113618000   260.16138     -420.76555     -333.63411     -420.68247      0              8388.6662      30.957001      21.340725      32.520068      21484.216      9103.7415      8394.4191      7667.8379     -898.54951     -118.16271     -1504.2211    
 113620000   256.9823      -420.5216      -334.45488     -420.44348      0              5373.6779      30.957001      21.340725      32.641356      21564.343      5149.0575      5110.2362      5861.7401     -1118.6413      394.94558     -453.67193    
 113622000   259.36353     -421.37156     -334.50733     -421.30261      0              6493.0797      30.957001      21.340725      32.746441      21633.767      7698.0166      6114.2936      5666.9288      1364.8797      148.53082     -1022.6285    
 113624000   258.11686     -420.00426     -333.55756     -419.93422      0              4304.3691      30.957001      21.340725      32.522141      21485.585      6318.3561      3876.908       2717.8431      1145.5543     -1385.8857     -796.34238    
 113626000   268.31633     -422.05317     -332.19053     -421.98596      0              5272.5937      30.957001      21.340725      32.540416      21497.658      3336.8699      4891.7722      7589.139       36.339982     -1229.7979     -701.8605     
 113628000   263.93984     -422.40731     -334.01042     -422.32372      0              7549.6495      30.957001      21.340725      32.568782      21516.398      9896.8279      7112.0354      5640.0853     -16.869551      287.26336      213.45863    
 113630000   253.39372     -421.75013     -336.88527     -421.66623      0              6095.093       30.957001      21.340725      32.720393      21616.559      6825.2159      5180.9146      6279.1486      669.72884     -1954.6751      388.09637    
 113632000   256.02912     -421.98531     -336.23782     -421.90854      0              5309.4989      30.957001      21.340725      32.679418      21589.489      6071.2393      2975.0802      6882.1772      713.35        -3.9625368     -149.41167    
 113634000   259.39075     -423.5256      -336.65225     -423.44784      0              7695.1343      30.957001      21.340725      32.49112       21465.091      8946.6077      8096.7041      6042.0913     -1600.4534     -518.55302      1429.4131    
 113636000   259.41967     -420.726       -333.84297     -420.64304      0              6357.4803      30.957001      21.340725      32.443711      21433.771      6248.3899      6664.3005      6159.7507     -1081.033      -1065.7909     -1056.7123    
 113638000   264.70942     -421.47788     -332.82325     -421.394        0              6538.2989      30.957001      21.340725      32.699392      21602.685      7764.1622      4731.1759      7119.5584     -202.07462     -921.6968       1148.3605    
 113640000   268.88799     -421.73945     -331.68536     -421.70772      0              5136.5686      30.957001      21.340725      32.944354      21764.518      4432.6792      4258.9919      6718.0347      850.60945     -1267.1736      192.54242    
 113642000   261.52965     -422.05552     -334.46583     -421.97567      0              7483.0292      30.957001      21.340725      32.621522      21551.24       6872.1522      8511.9774      7064.9581     -774.63319      1275.7372     -646.29591    
 113644000   262.89043     -424.44787     -336.40243     -424.42923      0              6189.0332      30.957001      21.340725      32.472872      21453.036      7208.3202      6686.8249      4671.9545     -799.4426       1115.6808      542.13658    
 113646000   261.78912     -418.96882     -331.29223     -418.90959      0              7565.1632      30.957001      21.340725      32.660067      21576.705      6725.888       9078.7825      6890.8192     -1768.4649      593.83754     -1371.6111    
 113648000   259.60581     -422.44006     -335.49469     -422.36215      0              4965.6079      30.957001      21.340725      32.725013      21619.611      6178.0177      6589.565       2129.2409     -1444.8707      2011.3517     -2480.5302    
 113650000   264.14494     -422.75519     -334.28961     -422.67282      0              4572.6496      30.957001      21.340725      32.679945      21589.837      3176.3021      5628.443       4913.2035     -523.5585      -1435.4959      536.67407    
 113652000   261.10757     -422.35103     -334.9027      -422.27225      0              5646.2417      30.957001      21.340725      32.521848      21485.392      4888.4762      5212.0541      6838.1946     -97.887742      124.75847      218.13327    
 113654000   252.89206     -421.46524     -336.76839     -421.38553      0              6750.6412      30.957001      21.340725      32.668759      21582.447      8608.6722      6640.8816      5002.3699      215.34424      1914.447      -42.05923     
 113656000   252.17488     -419.74277     -335.28612     -419.66371      0              4689.8479      30.957001      21.340725      32.687222      21594.645      5687.749       4274.3274      4107.4673      266.01047      311.52625      38.772083    
 113658000   263.1836      -416.8766      -328.73298     -416.80521      0              8851.3016      30.957001      21.340725      32.395367      21401.832      10135.318      8337.5996      8080.9871      440.52083     -141.67339     -666.94242    
 113660000   262.91208     -422.11426     -334.06158     -422.03204      0              7768.4485      30.957001      21.340725      32.472528      21452.808      8027.073       7155.5373      8122.7354     -461.29156      1472.7799     -73.601713    
 113662000   264.64562     -419.19366     -330.56039     -419.11092      0              5582.858       30.957001      21.340725      32.53818       21496.181      6088.1163      5748.3918      4912.0658     -481.3604       272.40283      1077.6588    
 113664000   256.21916     -421.33587     -335.52473     -421.25243      0              4851.8185      30.957001      21.340725      32.682494      21591.521      5726.0919      3247.7413      5581.6223      407.88179      106.05537      959.62525    
 113666000   252.97413     -420.6516      -335.92727     -420.59539      0              5782.3411      30.957001      21.340725      32.445778      21435.136      6942.6735      5759.6605      4644.6894     -616.27724     -548.9642      -266.27829    
 113668000   257.39684     -417.80854     -331.60298     -417.73172      0              5651.859       30.957001      21.340725      32.573611      21519.588      5499.5268      8075.761       3380.2893      249.21843      721.1126      -737.65171    
 113670000   263.90057     -420.26952     -331.88578     -420.19481      0              7866.864       30.957001      21.340725      32.551333      21504.871      8062.7379      8569.4395      6968.4147     -2990.3566     -575.77809      19.166729    
 113672000   263.55495     -421.00166     -332.73367     -420.93512      0              5048.2423      30.957001      21.340725      32.522464      21485.798      4869.8667      4238.5884      6036.2719     -252.42563      935.99392      1675.1168    
 113674000   261.54189     -418.979       -331.38521     -418.91126      0              4252.1469      30.957001      21.340725      32.769421      21648.949      4923.2356      5437.2639      2395.9414      963.1095       1067.8359      983.41009    
 113676000   260.77521     -420.6102      -333.27318     -420.52817      0              5275.458       30.957001      21.340725      32.703144      21605.163      5703.0676      5473.0387      4650.2677     -2318.3275     -1107.2345     -1030.791     
 113678000   261.27586     -419.14985     -331.64516     -419.08046      0              7817.4347      30.957001      21.340725      32.615638      21547.353      8869.422       6985.7177      7597.1643      1555.7673      1266.8055      1075.9651    
 113680000   259.42775     -420.29539     -333.40965     -420.21219      0              4532.9968      30.957001      21.340725      32.702189      21604.533      3791.4434      5155.7544      4651.7926     -650.85726      658.00944     -1416.0123    
 113682000   260.71292     -423.14974     -335.83359     -423.07002      0              6615.1341      30.957001      21.340725      32.746725      21633.955      7690.4674      5851.3175      6303.6173      98.240491      614.58063      388.95561    
 113684000   263.19849     -419.25529     -331.10668     -419.17818      0              4367.5404      30.957001      21.340725      32.638675      21562.572      6424.691       3093.1797      3584.7506     -1394.9099     -398.87652     -1042.5427    
 113686000   264.57316     -419.15724     -330.54824     -419.07399      0              7641.845       30.957001      21.340725      32.590589      21530.805      7417.2772      8607.449       6900.8087      897.56594     -534.48465      117.68789    
 113688000   258.42376     -422.5519      -336.00241     -422.47529      0              6261.5593      30.957001      21.340725      32.488223      21463.177      7271.485       5130.2802      6382.9126      487.41559      1744.9866     -320.82282    
 113690000   260.4711      -417.19202     -329.95686     -417.10935      0              6370.0376      30.957001      21.340725      32.553304      21506.172      4230.4553      8557.3918      6322.2659     -32.325642     -1173.5039     -673.10556    
 113692000   255.11786     -421.59307     -336.15077     -421.52416      0              5280.0585      30.957001      21.340725      32.631667      21557.943      5647.4431      4999.9716      5192.7608      575.04337     -1442.0463      858.01148    
 113694000   255.96556     -422.65354     -336.92734     -422.58213      0              5390.9354      30.957001      21.340725      32.658383      21575.592      6322.8559      5160.4213      4689.5291     -2294.8721      358.61297     -208.08847    
 113696000   259.84632     -421.23495     -334.20903     -421.15922      0              4443.29        30.957001      21.340725      32.787763      21661.067      4777.9252      6779.5294      1772.4154     -26.751914     -518.73706     -1418.8619    
 113698000   259.67529     -420.80815     -333.83951     -420.72437      0              6087.7668      30.957001      21.340725      32.644888      21566.677      7269.9801      5780.0081      5213.3122      1607.8082     -496.98691     -322.9232     
 113700000   257.66965     -419.02665     -332.72972     -418.95288      0              6065.5129      30.957001      21.340725      32.613044      21545.639      7507.5063      5437.1473      5251.8851     -1049.3474      1138.2631     -1750.0823    
 113702000   261.08083     -418.6709      -331.23153     -418.5953       0              6173.8139      30.957001      21.340725      32.717958      21614.951      6396.2677      5280.8314      6844.3426     -313.81003      871.87506     -11.225547    
 113704000   264.17605     -421.09246     -332.61646     -421.0244       0              5814.6813      30.957001      21.340725      32.770595      21649.725      6877.9067      4682.8788      5883.2585     -716.59881     -496.69413      579.1879     
 113706000   268.81481     -421.49342     -331.46384     -421.42065      0              5950.1266      30.957001      21.340725      32.565785      21514.418      4654.5713      7948.4368      5247.3717     -309.46653     -1070.8489     -1725.9626    
 113708000   256.10553     -419.79816     -334.02507     -419.7449       0              2046.6203      30.957001      21.340725      32.724008      21618.947      2856.7023      1038.7922      2244.3666      939.31617      385.71838     -867.0654     
 113710000   267.05234     -422.44975     -333.01044     -422.36605      0              7996.8542      30.957001      21.340725      32.53624       21494.9        6296.8818      7645.126       10048.555      518.24201     -138.86568      324.85355    
 113712000   260.62902     -420.86609     -333.57804     -420.78851      0              6529.0968      30.957001      21.340725      32.499499      21470.626      7196.6316      5655.5826      6735.0762      61.043675     -293.31929      670.74125    
 113714000   262.11964     -418.5515      -330.76421     -418.49012      0              5877.2104      30.957001      21.340725      32.582337      21525.353      5445.48        4256.3249      7929.8264      1447.2784     -214.16114     -46.99296     
 113716000   255.97405     -421.55336     -335.82432     -421.47934      0              5529.939       30.957001      21.340725      32.727378      21621.174      6517.5095      5712.2309      4360.0766     -2700.9015      425.46502     -271.85228    
 113718000   261.01449     -420.90767     -333.49052     -420.82617      0              7204.3157      30.957001      21.340725      32.752001      21637.44       6562.0035      7777.9403      7273.0034     -212.07194     -430.93287     -688.08462    
 113720000   263.48393     -420.03138     -331.78718     -419.96692      0              5826.858       30.957001      21.340725      32.708694      21608.83       5724.0717      3417.342       8339.1603      399.85618      928.8435       1133.4676    
 113722000   260.98546     -422.04409     -334.63666     -421.97287      0              4228.6258      30.957001      21.340725      32.637676      21561.912      4882.562       4912.1376      2891.1778      767.35602      516.68172      493.65354    
 113724000   261.46831     -422.38727     -334.81813     -422.30699      0              5001.3154      30.957001      21.340725      32.73977       21629.36       4922.4346      4187.8999      5893.6117      417.52332      1296.1588      897.6238     
 113726000   263.1497      -423.2197      -335.08743     -423.14312      0              7060.7115      30.957001      21.340725      32.702788      21604.928      5456.9199      8971.8212      6753.3932      1449.0608      595.57865     -311.86742    
 113728000   264.11087     -419.7873      -331.33312     -419.73406      0              5823.0068      30.957001      21.340725      32.64369       21565.885      6210.1256      7381.3457      3877.5491     -723.45168     -227.29044      1318.2364    
 113730000   257.77367     -423.16354     -336.83178     -423.08031      0              7156.5505      30.957001      21.340725      32.518919      21483.456      8737.2094      5806.078       6926.3642      355.3176      -662.52387     -288.31422    
 113732000   260.28278     -419.54236     -332.37027     -419.47469      0              6976.8586      30.957001      21.340725      32.431568      21425.748      8073.6005      4887.1403      7969.8349      1093.2086     -199.83682      1029.1551    
 113734000   264.62921     -420.57747     -331.9497      -420.5066       0              7403.1922      30.957001      21.340725      32.549605      21503.729      8580.5394      7302.2441      6326.7931     -1110.3424      164.75826     -446.18765    
 113736000   258.60809     -419.84511     -333.23389     -419.7616       0              7335.1186      30.957001      21.340725      32.617272      21548.432      7099.3902      7201.2296      7704.7359     -1443.3444      724.46199      1364.0195    
 113738000   259.59894     -421.89888     -334.95581     -421.81518      0              7091.8198      30.957001      21.340725      32.635133      21560.233      5173.3389      7918.0235      8184.0971     -342.28902      1503.9551      467.73366    
 113740000   256.60327     -420.32466     -334.38488     -420.25662      0              6383.2659      30.957001      21.340725      32.596479      21534.696      6283.9612      7200.56        5665.2766     -1712.51        1717.9531      142.99025    
 113742000   257.41092     -420.57446     -334.36418     -420.52325      0              5364.3859      30.957001      21.340725      32.76524       21646.187      4302.9608      7020.1059      4770.091      -431.79058      92.919734     -527.13886    
 113744000   256.56539     -421.93156     -336.00447     -421.85066      0              8543.2057      30.957001      21.340725      32.782812      21657.796      9075.8663      10670.248      5883.5028     -1634.9319      136.80902     -517.74335    
 113746000   258.5819      -420.38609     -333.78364     -420.31763      0              4608.1646      30.957001      21.340725      32.741584      21630.559      4766.07        4708.6886      4349.7353      1398.5954      20.378383     -832.02879    
 113748000   259.55492     -423.18216     -336.25383     -423.12452      0              6164.3555      30.957001      21.340725      32.523117      21486.229      4880.3437      7501.4181      6111.3045      1524.2501     -920.6414      -2136.0778    
 113750000   260.81551     -417.97783     -330.62732     -417.94108      0              6416.3648      30.957001      21.340725      32.579612      21523.553      5161.8654      6467.6008      7619.6282     -1360.0831     -574.65735     -1549.7034    
 113752000   258.00615     -417.67622     -331.2666      -417.6067       0              4865.5448      30.957001      21.340725      32.619393      21549.834      5300.758       3321.7262      5974.1501     -771.90822     -1273.5829      1018.3233    
 113754000   258.13621     -417.93589     -331.48271     -417.86293      0              6441.2287      30.957001      21.340725      32.563445      21512.872      5359.8492      6650.9652      7312.8716      1173.9798     -542.87868     -627.96315    
 113756000   258.90683     -419.65216     -332.94089     -419.57924      0              5895.0273      30.957001      21.340725      32.537345      21495.629      6965.258       5978.9315      4740.8925     -1453.2182      469.86067      95.740411    
 113758000   262.82131     -419.59562     -331.57334     -419.51354      0              5155.512       30.957001      21.340725      32.50852       21476.586      4158.8353      6762.3967      4545.304       726.77346     -1013.6618      2471.0567    
 113760000   264.42884     -419.2982      -330.73754     -419.21655      0              8300.2753      30.957001      21.340725      32.431137      21425.463      9042.3298      7130.1009      8728.3953      749.55229     -1887.3478     -764.20767    
 113762000   259.2619      -421.67885     -334.84866     -421.59643      0              6271.7706      30.957001      21.340725      32.527176      21488.911      5726.986       5986.2208      7102.1051      899.39963     -326.15226     -1223.0978    
 113764000   266.91789     -423.78213     -334.38785     -423.69901      0              2353.3278      30.957001      21.340725      32.571268      21518.04       3290.7281      2017.3961      1751.8592      870.13653      261.07573     -943.38038    
 113766000   253.94194     -422.94871     -337.90024     -422.88453      0              7196.6057      30.957001      21.340725      32.57901       21523.155      6609.8081      7426.6422      7553.3669      778.84622     -1127.245      -433.83125    
 113768000   253.60889     -424.78167     -339.84474     -424.69981      0              5614.4547      30.957001      21.340725      32.542201      21498.837      6211.6879      5787.1221      4844.5542      1875.8575      781.66876      743.88818    
 113770000   262.67819     -422.14236     -334.16801     -422.06517      0              5423.7998      30.957001      21.340725      32.638254      21562.294      4833.8311      5765.7534      5671.8148      1308.8995      295.05901      1618.0559    
 113772000   254.93303     -422.14413     -336.76373     -422.0646       0              6090.5175      30.957001      21.340725      32.482696      21459.526      7079.9923      5517.869       5673.6913     -242.46635      1301.3394     -1004.1577    
 113774000   259.89741     -422.10525     -335.06222     -422.02434      0              7224.1207      30.957001      21.340725      32.460424      21444.812      6942.43        8076.7541      6653.1781      1178.9395     -1031.2597     -969.2694     
 113776000   260.16992     -421.57306     -334.43877     -421.49606      0              7252.0282      30.957001      21.340725      32.608496      21542.635      6849.1978      7084.8604      7822.0264      287.42822      443.24003     -1499.5084    
 113778000   266.09828     -420.2191      -331.09932     -420.15001      0              6545.3329      30.957001      21.340725      32.440442      21431.611      6587.2683      5909.1427      7139.5877     -1441.3308      2783.5692     -828.68596    
 113780000   255.93846     -422.93825     -337.22113     -422.85461      0              6256.7107      30.957001      21.340725      32.53352       21493.103      8416.3752      5856.5139      4497.2431      270.19165      104.93426     -459.25693    
 113782000   259.88915     -422.10926     -335.069       -422.03016      0              5525.2286      30.957001      21.340725      32.444691      21434.418      4244.9711      6552.1444      5778.5702      647.32558      501.77833      397.66865    
 113784000   253.40672     -423.23449     -338.36528     -423.17122      0              6923.868       30.957001      21.340725      32.503434      21473.226      7566.295       6314.1873      6891.1217     -1106.8911     -528.93898      140.99443    
 113786000   255.55194     -420.44934     -334.86167     -420.38333      0              5595.8408      30.957001      21.340725      32.652502      21571.707      4079.1055      5654.4908      7053.9261      294.21253     -402.67172      2368.1026    
 113788000   254.41935     -418.40405     -333.1957      -418.33776      0              6704.5448      30.957001      21.340725      32.454166      21440.677      6499.8336      6971.029       6642.7717     -379.35415     -1552.9141      469.23934    
 113790000   258.78082     -421.52176     -334.85269     -421.44203      0              7299.7043      30.957001      21.340725      32.564074      21513.288      6237.7402      5469.8564      10191.517     -846.90677     -1499.9666      571.08774    
 113792000   253.05134     -421.96181     -337.21162     -421.88665      0              5319.7341      30.957001      21.340725      32.483375      21459.974      5803.9999      3119.8412      7035.3612     -928.69084      893.70434      423.78256    
 113794000   251.19516     -424.3226      -340.19407     -424.239        0              6173.5112      30.957001      21.340725      32.602033      21538.365      6178.1921      6165.9169      6176.4245     -598.78249     -727.49858      659.39577    
 113796000   262.14855     -422.49997     -334.703       -422.42327      0              4746.649       30.957001      21.340725      32.647319      21568.283      4299.3028      4046.0524      5894.5918     -1239.7108      937.85171      2279.5648    
 113798000   258.49773     -421.47287     -334.8986      -421.40471      0              6820.1772      30.957001      21.340725      32.614112      21546.345      5897.966       7123.5544      7439.0111      25.311475     -628.1881       1158.7803    
 113800000   256.70056     -421.24479     -335.27243     -421.16297      0              6712.9247      30.957001      21.340725      32.532467      21492.406      7351.9149      7500.8809      5285.9784     -1187.3386     -951.93052     -524.18201    
 113802000   263.18726     -423.38839     -335.24355     -423.30547      0              6108.6992      30.957001      21.340725      32.546751      21501.843      5694.4737      6916.1864      5715.4374      1200.685      -448.07697     -664.47926    
 113804000   263.01197     -419.31803     -331.23189     -419.24328      0              3866.1613      30.957001      21.340725      32.439372      21430.904      3756.8101      5005.2361      2836.4378     -1441.6447     -80.27996      -660.64295    
 113806000   260.59089     -419.75758     -332.48229     -419.68602      0              6422.8516      30.957001      21.340725      32.535062      21494.121      4594.5374      7981.9333      6692.0842     -378.57773      1234.5173      2441.0101    
 113808000   254.6012      -423.9653      -338.69604     -423.88172      0              4213.205       30.957001      21.340725      32.665851      21580.526      5247.5966      2579.9664      4812.0519      1082.2352      1022.2269     -246.49172    
 113810000   261.84855     -425.08669     -337.3902      -425.03382      0              5185.9807      30.957001      21.340725      32.763088      21644.766      5733.5722      3742.7787      6081.5911     -2248.7073      889.60058      989.18566    
 113812000   261.67322     -422.06194     -334.42417     -422.01099      0              6332.3113      30.957001      21.340725      32.745003      21632.818      7685.2539      6348.3965      4963.2835      807.84657      332.95241      672.51206    
 113814000   266.84513     -421.50741     -332.1375      -421.42513      0              5591.8698      30.957001      21.340725      32.555891      21507.881      7000.1963      6098.4307      3676.9824     -248.06076      895.6791       528.23756    
 113816000   258.25243     -420.63813     -334.14603     -420.57396      0              5923.0354      30.957001      21.340725      32.718904      21615.575      7077.5106      5454.9915      5236.6041     -313.04159     -647.75937      139.0021     
 113818000   264.71699     -421.33649     -332.67932     -421.27888      0              7132.4992      30.957001      21.340725      32.512417      21479.161      7753.578       5415.5051      8228.4145     -925.99607     -580.34896     -592.43712    
 113820000   256.63842     -419.94622     -333.99466     -419.87296      0              6110.9911      30.957001      21.340725      32.502243      21472.439      7073.8957      3863.6037      7395.474      -30.712698      181.93203     -772.22074    
 113822000   259.11781     -424.53542     -337.75349     -424.46499      0              4895.6337      30.957001      21.340725      32.696264      21600.618      4139.9131      5789.9868      4757.0012     -1581.2052     -1108.2106      442.68066    
 113824000   256.59833     -422.27449     -336.33637     -422.20223      0              4270.304       30.957001      21.340725      32.636904      21561.402      5330.1875      6023.0961      1457.6283      905.80482     -886.3803      -449.24305    
 113826000   256.06191     -421.60691     -335.84844     -421.54906      0              7521.3045      30.957001      21.340725      32.68619       21593.963      8292.8381      7508.2832      6762.7921     -1885.1576     -1545.7654     -886.96379    
 113828000   259.22908     -422.28693     -335.46773     -422.23327      0              7043.4665      30.957001      21.340725      32.63805       21562.16       6326.3268      7249.7511      7554.3216      25.572461     -1189.62       -127.64049    
 113830000   258.02976     -423.94699     -337.52946     -423.89673      0              3903.1082      30.957001      21.340725      32.684293      21592.709      4192.9418      3733.3264      3783.0562      133.30762      655.66726     -1037.2422    
 113832000   262.32575     -424.91364     -337.05733     -424.85095      0              6217.5067      30.957001      21.340725      32.696812      21600.98       6632.873       4105.0994      7914.5477     -41.154597      128.68594     -377.68804    
 113834000   267.28193     -421.35574     -331.83954     -421.30787      0              6858.744       30.957001      21.340725      32.481266      21458.581      7440.6253      7112.3554      6023.2515      1061.1712     -811.01227     -514.84964    
 113836000   256.06593     -424.12287     -338.36305     -424.07132      0              9545.8791      30.957001      21.340725      32.503637      21473.36       9303.1651      10800.74       8533.732       423.26413      877.00331      33.452563    
 113838000   260.75931     -421.00304     -333.67134     -420.93529      0              7091.6354      30.957001      21.340725      32.460839      21445.086      5287.8132      7476.1868      8510.9063      987.69751     -312.95678     -1591.303     
 113840000   258.30136     -422.06754     -335.55905     -422.01571      0              7777.7006      30.957001      21.340725      32.617047      21548.284      6550.947       7829.1669      8952.9878      1101.0883      243.94669      47.382732    
 113842000   256.07789     -418.98094     -333.21712     -418.93949      0              7957.3869      30.957001      21.340725      32.550785      21504.509      8314.3726      6127.1829      9430.6051      906.25102     -910.79914     -590.81314    
 113844000   253.48101     -420.91538     -336.02128     -420.87227      0              5543.6943      30.957001      21.340725      32.527884      21489.379      6404.853       4778.9794      5447.2505      505.9627      -467.81981     -1507.0157    
 113846000   254.86297     -422.48436     -337.12742     -422.4464       0              5691.0096      30.957001      21.340725      32.488047      21463.061      4126.1509      5989.252       6957.626       2005.4705     -346.09289      1453.4184    
 113848000   257.92646     -421.42275     -335.03981     -421.36496      0              6838.6769      30.957001      21.340725      32.653092      21572.097      7722.7826      4805.4383      7987.8096     -2060.9998      25.969406     -106.0883     
 113850000   262.57758     -418.59509     -330.65444     -418.56823      0              7087.0647      30.957001      21.340725      32.614976      21546.916      7389.2586      6276.3016      7595.634      -1624.9475     -454.28017     -32.669979    
 113852000   257.10335     -423.05513     -336.94787     -423.00969      0              3984.1001      30.957001      21.340725      32.610247      21543.792      5097.1601      2943.5375      3911.6026     -526.15401     -2213.3539     -1601.7921    
 113854000   257.24969     -421.20646     -335.05018     -421.1293       0              5190.8837      30.957001      21.340725      32.720869      21616.873      4214.9087      5115.7633      6241.9792      1434.7984     -40.54239       111.50882    
 113856000   262.16281     -421.50428     -333.70254     -421.42078      0              3548.9827      30.957001      21.340725      32.652395      21571.637      4520.6407      2365.7342      3760.5732     -2360.2808     -2243.4905     -94.29034     
 113858000   261.11066     -420.84474     -333.39537     -420.76174      0              6542.2543      30.957001      21.340725      32.606652      21541.416      6373.0433      5527.5721      7726.1476      1724.4562      600.40735     -85.555149    
 113860000   259.89684     -421.61675     -334.57391     -421.55031      0              4719.4139      30.957001      21.340725      32.823484      21684.665      4673.7488      4602.3864      4882.1065     -1460.1949      1008.012      -1222.7938    
 113862000   263.07513     -418.28292     -330.17563     -418.21228      0              5791.0633      30.957001      21.340725      32.799534      21668.843      6889.6403      3860.3762      6623.1733      243.31887     -342.86295      2540.4273    
 113864000   268.39877     -423.0778      -333.18755     -422.99472      0              7598.8759      30.957001      21.340725      32.632603      21558.561      6804.7313      8725.384       7266.5125     -23.633918     -53.745943      892.28447    
 113866000   258.50462     -419.54559     -332.96902     -419.46215      0              5529.1878      30.957001      21.340725      32.595192      21533.846      5855.2871      4552.9633      6179.3129      965.88941     -1765.3313      2521.9286    
 113868000   262.70144     -422.41262     -334.43049     -422.32934      0              5971.9753      30.957001      21.340725      32.60007       21537.068      6027.041       6312.016       5576.8689     -316.47         13.852557     -408.4263     
 113870000   261.62658     -421.90701     -334.28486     -421.82639      0              5018.2067      30.957001      21.340725      32.537894      21495.992      3712.0548      5471.2082      5871.3569      383.81261     -155.52077     -919.961      
 113872000   260.51469     -421.46331     -334.21354     -421.41144      0              6631.6983      30.957001      21.340725      32.556261      21508.126      8335.8572      5239.639       6319.5987     -1196.78       -842.27275     -93.75605     
 113874000   259.07379     -423.06841     -336.30122     -422.985        0              4930.9019      30.957001      21.340725      32.754917      21639.367      5901.0508      7026.9048      1864.7501     -844.88755     -820.92934     -1029.534     
 113876000   256.71968     -423.68183     -337.70306     -423.60595      0              7020.9265      30.957001      21.340725      32.674291      21586.102      6408.6056      9386.4312      5267.7426     -642.40681     -1098.2988     -1791.629     
 113878000   255.76697     -421.82953     -336.16984     -421.75398      0              6445.6078      30.957001      21.340725      32.660261      21576.833      5358.6497      5488.9433      8489.2304     -391.12701      2186.0617      877.07452    
 113880000   264.2367      -420.43287     -331.93656     -420.37029      0              4284.0062      30.957001      21.340725      32.638474      21562.44       3801.0999      4007.3906      5043.528      -418.49173     -532.74709     -234.19562    
 113882000   259.0875      -422.67878     -335.907       -422.62084      0              5460.9429      30.957001      21.340725      32.660606      21577.061      5330.2277      7058.6753      3993.9257     -670.72888     -899.22449      167.94345    
 113884000   256.4826      -420.8328      -334.93343     -420.75256      0              5099.551       30.957001      21.340725      32.603561      21539.374      4961.1202      4838.1087      5499.4241      649.51083     -1003.3231      76.022223    
 113886000   269.02756     -420.71696     -330.61612     -420.65489      0              4966.3442      30.957001      21.340725      32.59096       21531.049      4198.8395      5499.4069      5200.7861     -2982.4785     -885.5545      -1091.5951    
 113888000   259.33235     -423.05772     -336.20393     -422.98048      0              5856.5418      30.957001      21.340725      32.510282      21477.75       7711.5865      6401.3647      3456.6744     -1448.3455     -466.4343      -394.81785    
 113890000   265.04468     -421.77931     -333.01239     -421.71038      0              6845.5779      30.957001      21.340725      32.48866       21463.465      6618.4892      5732.0124      8186.2321      1062.9679     -500.93601      958.06074    
 113892000   254.66838     -422.244       -336.95224     -422.16178      0              6369.5718      30.957001      21.340725      32.601246      21537.845      5311.3993      6286.4106      7510.9055     -753.08356     -74.482215     -709.46852    
 113894000   260.23197     -418.84947     -331.69439     -418.77871      0              4273.7162      30.957001      21.340725      32.672798      21585.115      3587.6773      5336.111       3897.3602     -1103.0658     -133.26582     -773.38291    
 113896000   261.54671     -419.48034     -331.88494     -419.41413      0              6817.191       30.957001      21.340725      32.77398       21651.961      5347.8593      6448.8991      8654.8146      122.0584       1327.8975      2714.5718    
 113898000   257.49653     -421.58437     -335.34543     -421.50902      0              5550.3366      30.957001      21.340725      32.804469      21672.103      6116.123       5761.1862      4773.7006     -2192.6175     -434.13789      612.53098    
 113900000   254.5063      -420.12289     -334.88541     -420.05548      0              5933.1031      30.957001      21.340725      32.668311      21582.151      6333.3673      6707.3343      4758.6077     -2114.8577     -439.22567      458.759      
 113902000   259.58321     -423.07586     -336.13806     -422.99275      0              7710.0552      30.957001      21.340725      32.595093      21533.78       7565.2086      8170.4515      7394.5054     -106.97194     -725.75824     -736.92985    
 113904000   268.46567     -422.40181     -332.48916     -422.31855      0              4850.9383      30.957001      21.340725      32.572293      21518.718      5354.2607      3377.9299      5820.6244     -625.12553     -1999.6915     -554.03529    
 113906000   259.45564     -422.31412     -335.41904     -422.25028      0              7304.9041      30.957001      21.340725      32.421626      21419.18       8870.3712      6149.5952      6894.7457     -1170.781       187.23634     -849.28589    
 113908000   261.88518     -422.40982     -334.70106     -422.33395      0              6081.3061      30.957001      21.340725      32.453706      21440.374      5192.6865      7153.3197      5897.9121      879.79243     -384.76327      259.23103    
 113910000   258.61733     -422.80106     -336.18674     -422.72718      0              6111.0503      30.957001      21.340725      32.47254       21452.816      4758.9417      5939.3421      7634.8672     -301.8236      -390.95859      283.55324    
 113912000   261.22279     -420.3977      -332.91078     -420.31641      0              5492.0995      30.957001      21.340725      32.513825      21480.091      7731.7655      5237.9143      3506.6186     -1444.7361      283.33172     -223.4619     
 113914000   263.87348     -422.69825     -334.32358     -422.61475      0              6335.3015      30.957001      21.340725      32.562686      21512.371      7952.0323      5795.1237      5258.7485     -1438.7624     -1484.0453      443.57767    
 113916000   259.53807     -419.99978     -333.0771      -419.93263      0              5369.1603      30.957001      21.340725      32.674338      21586.133      7948.4805      5738.0494      2420.951      -810.64729      1164.3172     -595.85997    
 113918000   262.20105     -420.27645     -332.4619      -420.19647      0              5616.2729      30.957001      21.340725      32.565602      21514.297      6662.4497      6540.3023      3646.0668      149.90751     -1237.737       66.065824    
 113920000   261.04465     -422.75625     -335.329       -422.67658      0              7498.0484      30.957001      21.340725      32.54856       21503.038      6835.6626      8240.8923      7417.5901      587.44485     -271.35895     -73.751392    
 113922000   265.3986      -421.02014     -332.13469     -420.93726      0              5843.9442      30.957001      21.340725      32.565006      21513.903      5585.3984      6188.202       5758.2321      109.9079      -1152.6819     -435.99158    
 113924000   260.73605     -420.31231     -332.98841     -420.22944      0              8349.7399      30.957001      21.340725      32.618613      21549.319      9735.8687      6643.5573      8669.7939      1582.4721     -1370.1854      578.40869    
 113926000   262.00692     -420.44104     -332.69151     -420.35961      0              8051.7207      30.957001      21.340725      32.446903      21435.879      6658.5959      8879.8974      8616.6688      995.38951      767.91057      413.29724    
 113928000   258.75485     -425.42481     -338.76444     -425.34496      0              7100.1329      30.957001      21.340725      32.415861      21415.371      5000.3739      8060.6387      8239.3862      190.54156      1506.951      -540.29815    
 113930000   257.66533     -420.69109     -334.39562     -420.6091       0              6481.251       30.957001      21.340725      32.578539      21522.844      5801.5427      6797.8769      6844.3335      140.69969      455.3991       1973.9037    
 113932000   259.27117     -417.88033     -331.04703     -417.81253      0              7060.3028      30.957001      21.340725      32.66346       21578.946      6729.8646      7856.7104      6594.3333      9.3866975     -2265.298       297.53003    
 113934000   259.719       -418.31699     -331.33372     -418.26712      0              5495.1682      30.957001      21.340725      32.588793      21529.618      4682.4809      5073.6498      6729.3739      597.79632     -114.50254     -109.89092    
 113936000   257.4868      -417.51885     -331.28317     -417.47231      0              7524.1798      30.957001      21.340725      32.544143      21500.12       7045.3168      7382.4191      8144.8036     -1432.0701      2439.1572      518.11073    
 113938000   259.43976     -422.98797     -336.09821     -422.93486      0              6264.8924      30.957001      21.340725      32.583788      21526.312      6983.4129      4626.9629      7184.3015     -1854.2237      595.86852      1191.1115    
 113940000   262.06871     -419.42916     -331.65893     -419.34771      0              6473.8056      30.957001      21.340725      32.628592      21555.911      6468.9242      5491.1531      7461.3394      133.00061      112.45125      1007.8967    
 113942000   260.44596     -420.69448     -333.46773     -420.61169      0              5960.1126      30.957001      21.340725      32.506426      21475.203      7563.3524      4691.7996      5625.1859     -499.87113     -2138.8382      1088.8094    
 113944000   260.81666     -417.76465     -330.41375     -417.69953      0              5370.9944      30.957001      21.340725      32.476697      21455.563      6179.1872      4831.844       5101.9521     -177.04945      1453.1917     -221.5776     
 113946000   262.09586     -421.74009     -333.96077     -421.66405      0              5760.1189      30.957001      21.340725      32.475496      21454.769      4570.3333      5881.8523      6828.1713      671.11401     -947.55803     -1328.7033    
 113948000   257.69604     -421.02026     -334.71449     -420.94066      0              6637.7943      30.957001      21.340725      32.45045       21438.223      6196.1344      6961.8045      6755.4439      1250.2663     -169.54473      250.77951    
 113950000   261.61753     -421.49205     -333.87293     -421.4274       0              5946.2932      30.957001      21.340725      32.512875      21479.463      4947.0421      6886.2039      6005.6335     -1734.3272      574.28385     -1218.3749    
 113952000   266.27291     -422.4833      -333.30504     -422.41043      0              4567.4733      30.957001      21.340725      32.512475      21479.199      4389.949       5367.6313      3944.8396      71.44147       346.22535     -947.99163    
 113954000   252.42018     -420.08212     -335.54331     -420.00335      0              4531.1688      30.957001      21.340725      32.600302      21537.222      5189.1778      4062.9835      4341.3451      1087.4799      800.54016      104.76521    
 113956000   269.70454     -422.87271     -332.54515     -422.79012      0              5227.6275      30.957001      21.340725      32.777904      21654.553      5308.9151      6839.3947      3534.5728      520.46263     -955.45583      962.51519    
 113958000   264.43984     -420.03744     -331.47309     -419.95452      0              6304.7309      30.957001      21.340725      32.605195      21540.454      7316.4093      5368.0571      6229.7263      1240.2735      749.2222       1942.2462    
 113960000   262.02505     -420.0813      -332.32569     -420.00771      0              5455.3877      30.957001      21.340725      32.680018      21589.886      3739.9717      7587.8727      5038.3187      205.55377      315.64309      1097.0755    
 113962000   262.08077     -421.88059     -334.10632     -421.79919      0              6246.1028      30.957001      21.340725      32.598001      21535.701      4706.7185      7064.8033      6966.7867     -1191.0883     -233.04284      1156.6549    
[...]
 120370000   257.84349     -422.87374     -336.51859     -422.79916      0              8390.8421      30.957001      21.340725      32.536736      21495.227      8911.2206      7257.9534      9003.3524     -765.39131      1120.0287      298.57816    
 120372000   258.065       -421.79954     -335.37021     -421.75859      0              7866.7895      30.957001      21.340725      32.647153      21568.173      9321.9598      7651.5824      6626.8264     -1175.3076     -1280.7123     -845.68741    
 120374000   260.12714     -418.40713     -331.28717     -418.3721       0              6385.345       30.957001      21.340725      32.562593      21512.309      6301.0219      7268.4738      5586.5393      1060.3815     -2322.1621     -260.04745    
 120376000   263.24691     -418.37374     -330.20892     -418.32745      0              7357.0602      30.957001      21.340725      32.369745      21384.905      7797.9299      7992.1177      6281.1332      1026.4024     -82.23172       875.35557    
 120378000   265.68208     -418.26877     -329.28838     -418.23231      0              5974.9409      30.957001      21.340725      32.671151      21584.028      5639.5419      7020.9579      5264.323      -589.32177      58.028746      1408.035     
 120380000   257.69238     -421.76956     -335.46502     -421.6913       0              7904.9912      30.957001      21.340725      32.48072       21458.22       8823.433       7985.2976      6906.243       1106.1337     -915.93991     -1008.0181    
 120382000   267.4392      -421.80732     -332.23845     -421.74776      0              6867.7524      30.957001      21.340725      32.487423      21462.649      8597.766       5109.6542      6895.8368     -375.15088     -145.96575      1568.7027    
 120384000   257.76855     -421.86888     -335.53883     -421.81116      0              6550.6882      30.957001      21.340725      32.605141      21540.418      6010.0017      5511.7927      8130.2703     -477.53262      164.06406      82.031826    
 120386000   259.45334     -417.50304     -330.60874     -417.43784      0              5240.1132      30.957001      21.340725      32.550898      21504.583      3601.8719      5852.3026      6266.1652      1919.9093     -811.96321      701.72794    
 120388000   257.30727     -421.62427     -335.44872     -421.56335      0              5449.3316      30.957001      21.340725      32.671116      21584.005      4790.1964      5060.2435      6497.5549      546.70023     -418.21601      918.1169     
 120390000   262.4829      -422.71866     -334.80971     -422.68462      0              8133.8969      30.957001      21.340725      32.590088      21530.474      11435.51       5183.4897      7782.6916     -970.74787     -1522.9354      2802.7097    
 120392000   259.05572     -420.08573     -333.32459     -420.05122      0              5506.9904      30.957001      21.340725      32.464488      21447.497      6421.9249      5615.4165      4483.6299     -404.59286      849.05508      305.13328    
 120394000   266.90559     -418.34322     -328.95306     -418.30867      0              7384.4569      30.957001      21.340725      32.471343      21452.025      9379.3         4406.1341      8367.9366      616.17305     -604.87009      149.71691    
 120396000   261.09809     -423.04372     -335.59856     -422.96625      0              5522.1735      30.957001      21.340725      32.453891      21440.496      6247.8475      3772.451       6546.222       381.4864       985.09763     -372.65738    
 120398000   260.72937     -419.96218     -332.64052     -419.88702      0              6204.6202      30.957001      21.340725      32.324597      21355.078      6504.2142      5658.7175      6450.929       644.40884     -115.52669      1409.0281    
 120400000   259.53302     -421.07658     -334.15559     -421.04062      0              5416.3591      30.957001      21.340725      32.412232      21412.974      5670.1722      3412.1491      7166.7561     -1002.3238      4.9969925     -140.03445    
 120402000   260.54945     -419.85179     -332.59038     -419.80137      0              6807.9794      30.957001      21.340725      32.370636      21385.494      6614.8667      8061.2452      5747.8262      791.63282     -696.68501      360.64544    
 120404000   261.44477     -420.16408     -332.60282     -420.1285       0              8294.8183      30.957001      21.340725      32.409863      21411.409      7390.3771      8571.5821      8922.4956     -380.02431      780.5957       1359.0097    
 120406000   253.35084     -418.42536     -333.57486     -418.39554      0              6012.3396      30.957001      21.340725      32.676237      21587.388      6405.671       6932.4082      4698.9397     -717.16541      159.74703     -434.399      
 120408000   257.99168     -421.31991     -334.91513     -421.26598      0              6710.9975      30.957001      21.340725      32.526912      21488.737      7897.3128      7360.8976      4874.7821     -883.65034     -991.97724     -314.99206    
 120410000   261.00104     -418.81655     -331.4039      -418.77818      0              8460.1841      30.957001      21.340725      32.584601      21526.848      8480.4113      7685.5316      9214.6094      1164.384       1281.1042      470.85595    
 120412000   266.04583     -419.36323     -330.26101     -419.33142      0              6674.0875      30.957001      21.340725      32.564318      21513.449      6683.208       7598.1126      5740.9419      452.94667     -204.51126     -707.25532    
 120414000   256.54694     -423.30826     -337.38735     -423.24288      0              6538.7131      30.957001      21.340725      32.644893      21566.68       6154.1498      8064.6724      5397.317       979.63547     -2073.0615     -185.23935    
 120416000   262.83095     -420.22588     -332.20037     -420.17992      0              7381.7079      30.957001      21.340725      32.613023      21545.626      8008.6919      6482.1183      7654.3135     -1462.8233      1605.2024     -587.1174     
 120418000   247.9025      -418.34766     -335.32188     -418.29114      0              7237.2641      30.957001      21.340725      32.612144      21545.045      4679.5283      9297.057       7735.207      -1409.3228      865.52469      1779.6421    
 120420000   256.42404     -421.4442      -335.56444     -421.3876       0              3769.2502      30.957001      21.340725      32.568711      21516.351      5232.2984      2708.7978      3366.6545     -878.83702     -250.50763     -349.8898     
 120422000   261.57351     -422.42197     -334.81759     -422.38197      0              6241.3093      30.957001      21.340725      32.443375      21433.548      6075.5953      6137.8727      6510.46       -1530.9571      620.34394      1134.8185    
 120424000   267.02427     -421.27508     -331.84518     -421.23045      0              5615.5453      30.957001      21.340725      32.3965        21402.581      7248.6919      3671.861       5926.0829     -1366.3721     -561.48923     -464.00396    
 120426000   260.1022      -418.28492     -331.1733      -418.21019      0              6743.1992      30.957001      21.340725      32.232637      21294.325      6829.9292      7362.1077      6037.5606      590.55168     -1236.0383      407.82733    
 120428000   262.36239     -421.30646     -333.43787     -421.24253      0              7831.7853      30.957001      21.340725      32.264632      21315.462      6594.2737      9754.6715      7146.4108      1093.1118      1593.2503     -964.26792    
 120430000   257.97457     -420.42224     -334.02319     -420.3529       0              7075.8266      30.957001      21.340725      32.406101      21408.923      7304.7604      7500.3369      6422.3824      274.33413     -547.53292     -212.08153    
 120432000   264.33382     -422.24002     -333.71118     -422.16312      0              6074.4071      30.957001      21.340725      32.413641      21413.905      6746.3545      3658.4252      7818.4416      1138.6802     -188.4323       508.06815    
 120434000   258.05636     -420.12684     -333.7004      -420.08898      0              5894.8937      30.957001      21.340725      32.487237      21462.526      5015.0587      6882.518       5787.1046      1659.3733     -881.19876     -708.39886    
 120436000   264.05918     -421.81509     -333.37823     -421.7639       0              7757.2109      30.957001      21.340725      32.408167      21410.289      8003.7282      6849.1529      8418.7515     -1544.8731     -1353.0173     -1779.2302    
 120438000   268.76792     -420.81641     -330.80253     -420.76275      0              6773.2988      30.957001      21.340725      32.457965      21443.187      7621.8405      5391.9705      7306.0853     -1308.301       95.332584      386.293      
 120440000   263.58662     -417.78374     -329.50515     -417.75034      0              6194.4882      30.957001      21.340725      32.45283       21439.795      4895.6525      7395.1596      6292.6523      1022.1762      227.35342     -104.82397    
 120442000   249.31444     -421.5417      -338.04305     -421.49099      0              6118.308       30.957001      21.340725      32.433296      21426.89       3748.2961      5974.5748      8632.0531      1021.2671     -919.76275      2017.8775    
 120444000   263.72162     -421.17495     -332.85114     -421.11199      0              5252.4317      30.957001      21.340725      32.499794      21470.821      3767.3287      5551.7521      6438.2143      576.00938     -665.95381     -165.3799     
 120446000   263.77362     -420.26692     -331.9257      -420.20722      0              5923.6045      30.957001      21.340725      32.5322        21492.231      6467.0206      5269.0922      6034.7007     -58.104483     -723.65485      1661.3451    
 120448000   262.48648     -421.98811     -334.07797     -421.9588       0              6720.6725      30.957001      21.340725      32.470735      21451.623      7251.9646      7282.7445      5627.3084     -1264.5698      728.87043      351.83485    
 120450000   257.58002     -421.91315     -335.64624     -421.86288      0              6702.0009      30.957001      21.340725      32.543624      21499.777      5486.0745      8281.6441      6338.284      -585.19301      194.05414      1576.6154    
 120452000   259.54927     -419.9828      -333.05637     -419.9569       0              5283.9565      30.957001      21.340725      32.693099      21598.527      5869.9377      4883.8275      5098.1042     -359.37548      995.04996     -20.260628    
 120454000   261.96689     -421.91797     -334.18184     -421.88843      0              4683.1887      30.957001      21.340725      32.651725      21571.194      4534.8433      2780.297       6734.4258      579.4236      -819.29999      969.23874    
 120456000   258.4839      -421.74444     -335.17481     -421.71599      0              7237.5008      30.957001      21.340725      32.547384      21502.262      8264.8147      5625.2792      7822.4084      427.42225     -2019.3862      170.56822    
 120458000   258.96357     -416.99651     -330.26624     -416.97214      0              6777.0782      30.957001      21.340725      32.679448      21589.509      7602.6923      5521.0187      7207.5236     -463.53544     -253.34328      164.03907    
 120460000   263.01307     -419.94056     -331.85406     -419.9114       0              5288.0174      30.957001      21.340725      32.698481      21602.083      6213.2447      4353.183       5297.6246     -113.70224     -836.15805      1499.385     
 120462000   256.70654     -423.67724     -337.70287     -423.6432       0              6797.1291      30.957001      21.340725      32.712927      21611.627      5624.5404      6108.5492      8658.2977      380.42283     -121.34593      786.68644    
 120464000   254.23567     -419.15224     -334.0054      -419.13686      0              6418.484       30.957001      21.340725      32.581315      21524.678      4322.8975      5399.2977      9533.2567      939.87302      781.13485      1095.3349    
 120466000   261.28461     -418.18944     -330.68182     -418.154        0              4843.8682      30.957001      21.340725      32.639108      21562.859      5438.3988      4172.7075      4920.4981     -427.92788     -2785.9879      2200.6929    
 120468000   261.32341     -421.50862     -333.988       -421.48773      0              6237.027       30.957001      21.340725      32.681844      21591.092      5350.4966      6523.8784      6836.7059      154.56645      682.72763     -232.25126    
 120470000   254.35252     -418.12592     -332.93994     -418.08865      0              6390.82        30.957001      21.340725      32.661361      21577.559      7610.8437      5640.0579      5921.5584     -1395.1226      1862.4148      1978.8307    
 120472000   255.98038     -419.60051     -333.86935     -419.54849      0              6878.6647      30.957001      21.340725      32.6138        21546.139      5760.403       5760.9465      9114.6448      1321.0835     -328.96778      484.27791    
 120474000   253.11895     -420.60849     -335.83566     -420.57109      0              4928.3686      30.957001      21.340725      32.71205       21611.047      4287.616       3559.7792      6937.7106     -1122.2449      545.93062      958.04054    
 120476000   260.90538     -420.07009     -332.68947     -420.03912      0              5994.1566      30.957001      21.340725      32.785249      21659.406      4786.3031      4835.9458      8360.221      -268.73145      2119.2249      12.438921    
 120478000   258.21048     -420.6074      -334.12934     -420.58294      0              4268.8918      30.957001      21.340725      32.751843      21637.336      3747.8756      4398.3965      4660.4034      595.02374     -123.06301      605.82578    
 120480000   253.75452     -421.63898     -336.65328     -421.61141      0              6239.9256      30.957001      21.340725      32.690306      21596.682      4887.7658      6478.4913      7353.5197     -559.30712      612.72918      2570.8734    
 120482000   271.0346      -421.20716     -330.43414     -421.16688      0              4818.141       30.957001      21.340725      32.670281      21583.453      4334.1959      7216.7431      2903.4838      1419.9259     -1104.6761      835.70791    
 120484000   258.14683     -421.09927     -334.64254     -421.08002      0              3562.4342      30.957001      21.340725      32.64659       21567.801      4960.6796      2702.3694      3024.2535     -743.01835     -1133.1994      143.46455    
 120486000   261.10295     -420.56134     -333.11456     -420.52649      0              8253.2694      30.957001      21.340725      32.630565      21557.215      7910.5869      7552.8954      9296.3258     -731.35697     -451.43535      642.29777    
 120488000   260.96966     -421.00954     -333.60741     -420.97305      0              7247.6774      30.957001      21.340725      32.590356      21530.651      8372.542       5997.4534      7373.0367     -1787.146       111.53849     -572.38952    
 120490000   258.37477     -421.49892     -334.96585     -421.46533      0              7426.6862      30.957001      21.340725      32.482088      21459.124      8183.7683      7740.6677      6355.6226      590.27579      221.97106      146.05619    
 120492000   257.8496      -419.36397     -333.00677     -419.30541      0              5806.1902      30.957001      21.340725      32.417973      21416.767      6005.7332      6115.0487      5297.7887     -973.00838     -1007.8142      284.62863    
 120494000   261.78593     -420.87418     -333.19866     -420.8312       0              8881.6376      30.957001      21.340725      32.366657      21382.865      9865.5376      9801.8434      6977.5317      1079.0567     -491.85089      1066.5937    
 120496000   261.76523     -422.76615     -335.09756     -422.68458      0              5556.0092      30.957001      21.340725      32.472662      21452.897      4116.1033      6445.2145      6106.7098     -978.92121     -470.78394     -717.06712    
 120498000   260.18058     -420.34792     -333.21005     -420.30916      0              7826.8216      30.957001      21.340725      32.63972       21563.262      8299.1082      7646.519       7534.8377      252.21384      418.85563     -1250.0065    
 120500000   252.45934     -422.20212     -337.6502      -422.14736      0              6694.0584      30.957001      21.340725      32.639173      21562.901      6820.9004      5717.8232      7543.4515     -280.7088       83.899169      207.44715    
 120502000   260.88749     -422.3022      -334.92758     -422.26892      0              6401.3946      30.957001      21.340725      32.593643      21532.822      7819.4845      5926.2894      5458.41        618.29477     -2106.1001     -526.25706    
 120504000   263.71993     -417.93121     -329.60797     -417.90285      0              9490.2916      30.957001      21.340725      32.49221       21465.811      10795.443      8097.8385      9577.5932     -683.34986     -1143.8234      742.54259    
 120506000   261.23612     -422.05526     -334.56388     -421.99317      0              8298.2189      30.957001      21.340725      32.455086      21441.285      7158.1093      9147.0736      8589.4736      880.08839     -1360.3007      34.146703    
 120508000   267.28078     -419.73843     -330.22261     -419.69833      0              5571.805       30.957001      21.340725      32.724532      21619.293      7213.6689      6325.3155      3176.4307     -187.62137     -2031.9226     -296.60941    
 120510000   257.71771     -422.60113     -336.28811     -422.56279      0              6168.3629      30.957001      21.340725      32.594405      21533.326      5863.4658      7063.8144      5577.8084      1214.5309     -2.5434836      1555.3849    
 120512000   270.22808     -420.98626     -330.48335     -420.94382      0              5343.8191      30.957001      21.340725      32.427264      21422.905      6248.3948      4396.5713      5386.4913     -466.18119     -711.73886     -1384.2242    
WARNING: Wall time limit reached (../timer.cpp:193)
Loop time of 85794.6 on 4 procs for 7118000 steps with 2592 atoms

Performance: 3.584 ns/day, 6.696 hours/ns, 82.966 timesteps/s
1396.7% CPU use with 4 MPI tasks x no OpenMP threads

MPI task timing breakdown:
Section |  min time  |  avg time  |  max time  |%varavg| %total
---------------------------------------------------------------
Pair    | 20003      | 20143      | 20325      |  84.2 | 23.48
Bond    | 0.70077    | 0.71167    | 0.73992    |   1.9 |  0.00
Neigh   | 609.19     | 615.51     | 627.47     |  29.5 |  0.72
Comm    | 2230.1     | 2423       | 2567.4     | 255.1 |  2.82
Output  | 8904.3     | 8904.3     | 8904.3     |   0.0 | 10.38
Modify  | 53684      | 53688      | 53692      |   1.2 | 62.58
Other   |            | 20.06      |            |       |  0.02

Nlocal:            648 ave         654 max         638 min
Histogram: 1 0 0 0 0 0 1 0 1 1
Nghost:        4241.25 ave        4248 max        4237 min
Histogram: 2 0 0 0 1 0 0 0 0 1
Neighs:              0 ave           0 max           0 min
Histogram: 4 0 0 0 0 0 0 0 0 0
FullNghs:       166840 ave      168948 max      162931 min
Histogram: 1 0 0 0 0 0 0 1 1 1

Total # of neighbors = 667360
Ave neighs/atom = 257.46914
Ave special neighs/atom = 0
Neighbor list builds = 142360
Dangerous builds not checked
unfix 3
unfix 1
unfix 2


# Finalize simulation
write_restart	restart.lmp.${pid}
write_restart	restart.lmp.0
System init for write_restart ...
Generated 0 of 1 mixed pair_coeff terms from geometric mixing rule
write_data	data.final.${pid} nocoeff
write_data	data.final.0 nocoeff
System init for write_data ...
Generated 0 of 1 mixed pair_coeff terms from geometric mixing rule
Total wall time: 23:50:14
