LAMMPS (23 Jun 2022)
include procedure.lmp
echo both
include		in.partitions
variable        pid world 0
include		in.temp
variable	temperature equal 260
variable        tempDamp equal 0.100 # this is 0.1 ps
include		in.pressure
variable        pressure equal 6079.5
variable        pressureDamp equal 1.0 #this is 1ps

variable	barostat string	   tri
variable	direction string   z
variable	direction_x_bool equal 0
variable	direction_y_bool equal 0
variable	direction_z_bool equal 1

include		in.seed
variable        seed world 745823

units           metal
atom_style	full
box tilt large
read_restart 	restart.lmp.${pid}
read_restart 	restart.lmp.0
Reading restart file ...
  restart file = 23 Jun 2022, LAMMPS = 23 Jun 2022
  restoring atom style full from restart
  triclinic box = (0 0 -0.84020735) to (30.957001 21.340725 31.705371) with tilt (-9.151055 1.0594038 -10.774071)
WARNING: Triclinic box skew is large (../domain.cpp:224)
  2 by 1 by 2 MPI processor grid
Summary of lammps deepmd module ...
  >>> Info of deepmd-kit:
  installed to:       /u/sigbjobo/software/DEEPMD_FROM_SOURCE/deepmd-kit/install
  source:             v2.1.3
  source branch:       master
  source commit:      5a32c49
  source commit at:   2022-07-01 09:52:58 +0800
  surpport model ver.:1.1 
  build float prec:   double
  build with tf inc:  /u/sigbjobo/software/DEEPMD_FROM_SOURCE/tensorflow/install/include;/u/sigbjobo/software/DEEPMD_FROM_SOURCE/tensorflow/install/include
  build with tf lib:  /u/sigbjobo/software/DEEPMD_FROM_SOURCE/tensorflow/install/lib/libtensorflow_cc.so;/u/sigbjobo/software/DEEPMD_FROM_SOURCE/tensorflow/install/lib/libtensorflow_framework.so
  set tf intra_op_parallelism_threads: 0
  set tf inter_op_parallelism_threads: 0
  >>> Info of lammps module:
  use deepmd-kit at:  /u/sigbjobo/software/DEEPMD_FROM_SOURCE/deepmd-kit/install
  source:             v2.1.3
  source branch:      master
  source commit:      5a32c49
  source commit at:   2022-07-01 09:52:58 +0800
  build float prec:   double
  build with tf inc:  /u/sigbjobo/software/DEEPMD_FROM_SOURCE/tensorflow/install/include;/u/sigbjobo/software/DEEPMD_FROM_SOURCE/tensorflow/install/include
  build with tf lib:  /u/sigbjobo/software/DEEPMD_FROM_SOURCE/tensorflow/install/lib/libtensorflow_cc.so;/u/sigbjobo/software/DEEPMD_FROM_SOURCE/tensorflow/install/lib/libtensorflow_framework.so
  restoring pair style deepmd from restart
  2592 atoms
Finding 1-2 1-3 1-4 neighbors ...
  special bond factors lj:    0        0        0       
  special bond factors coul:  0        0        0       
     0 = max # of 1-2 neighbors
     0 = max # of 1-3 neighbors
     0 = max # of 1-4 neighbors
     1 = max # of special neighbors
  special bonds CPU = 0.000 seconds
  read_restart CPU = 0.051 seconds
include 	in.setup
variable	out_freq equal 2000
variable	out_freq2 equal 2000

timestep        0.0005

neigh_modify    delay 7 every 1

include         in.deepmd
# This is deepMD model

# create groups ###
#group ox type 2
#group hy type 1

mass 2 15.999
mass 1 1.008

pair_style      deepmd ../graph.pb
pair_coeff      * *

bond_style      none
angle_style     none
dihedral_style  none
improper_style  none
neigh_modify exclude none


neighbor        2.0 bin
neigh_modify    every 50 delay 0 check no

thermo          ${out_freq}
thermo          2000
thermo_style 	custom step temp pe etotal epair emol press lx ly lz vol pxx pyy pzz pxy pxz pyz

restart 	${out_freq} restart.lmp.${pid} restart2.lmp.${pid}
restart 	2000 restart.lmp.${pid} restart2.lmp.${pid}
restart 	2000 restart.lmp.0 restart2.lmp.${pid}
restart 	2000 restart.lmp.0 restart2.lmp.0


timer           timeout 23:50:00 every 1000
New timer settings: style=normal  mode=nosync  timeout=23:50:00


# Set number of time steps
variable 	nsteps_wall		equal	 6000000
variable 	nsteps_enhanced_coex    equal	60000000

variable     nsteps_enhanced_coex_upto equal (${nsteps_wall}+${nsteps_enhanced_coex})
variable     nsteps_enhanced_coex_upto equal (6000000+${nsteps_enhanced_coex})
variable     nsteps_enhanced_coex_upto equal (6000000+60000000)


# Set temperature for first step
if "$(step) < 1  " then    "velocity 	all create ${temperature} ${seed} dist gaussian"


# Always run thermo and barostat


######################################
# Run simulation with wall potential #
######################################
if " $(step) < ${nsteps_wall} " then    "fix             3 all plumed plumedfile plumed.equil.dat outfile plumed.equil.out"   "fix             1 all nph ${direction} ${pressure} ${pressure} ${pressureDamp}"   "fix             2 all temp/csvr ${temperature} ${temperature} ${tempDamp} ${seed}"   "run             ${nsteps_wall} upto"
if " $(step) == ${nsteps_wall} " then    "unfix 3"   "unfix 1"   "unfix 2"


############################
# Run enhanced coesistence #
############################
if "$(step) == ${nsteps_wall}" then    "fix             3 all plumed plumedfile plumed.start.dat outfile plumed.out" else    "fix             3 all plumed plumedfile plumed.dat outfile plumed.out"
fix             3 all plumed plumedfile plumed.dat outfile plumed.out

if "$(step) < ${nsteps_enhanced_coex_upto} && $(step) >= ${nsteps_wall} " then    "include         in.dump"    "fix             1 all nph ${direction} ${pressure} ${pressure} ${pressureDamp}"   "fix             2 all temp/csvr ${temperature} ${temperature} ${tempDamp} ${seed}"   "run             ${nsteps_enhanced_coex_upto} upto"    "unfix 3"   "unfix 1"   "unfix 2"
include         in.dump
dump            myDump all atom ${out_freq2} dump.water.${pid}
dump            myDump all atom 2000 dump.water.${pid}
dump            myDump all atom 2000 dump.water.0
dump            myDump2 all dcd ${out_freq2} dump.${pid}.dcd
dump            myDump2 all dcd 2000 dump.${pid}.dcd
dump            myDump2 all dcd 2000 dump.0.dcd
dump_modify     myDump append yes
dump_modify     myDump2 append yes

fix             1 all nph ${direction} ${pressure} ${pressure} ${pressureDamp}
fix             1 all nph z ${pressure} ${pressure} ${pressureDamp}
fix             1 all nph z 6079.5 ${pressure} ${pressureDamp}
fix             1 all nph z 6079.5 6079.5 ${pressureDamp}
fix             1 all nph z 6079.5 6079.5 1
fix             2 all temp/csvr ${temperature} ${temperature} ${tempDamp} ${seed}
fix             2 all temp/csvr 260 ${temperature} ${tempDamp} ${seed}
fix             2 all temp/csvr 260 260 ${tempDamp} ${seed}
fix             2 all temp/csvr 260 260 0.1 ${seed}
fix             2 all temp/csvr 260 260 0.1 745823
run             ${nsteps_enhanced_coex_upto} upto
run             66000000 upto

CITE-CITE-CITE-CITE-CITE-CITE-CITE-CITE-CITE-CITE-CITE-CITE-CITE

Your simulation uses code contributions which should be cited:

- USER-DEEPMD package:

@article{Wang_ComputPhysCommun_2018_v228_p178,
  author = {Wang, Han and Zhang, Linfeng and Han, Jiequn and E, Weinan},
  doi = {10.1016/j.cpc.2018.03.016},
  url = {https://doi.org/10.1016/j.cpc.2018.03.016},
  year = 2018,
  month = {jul},
  publisher = {Elsevier {BV}},
  volume = 228,
  journal = {Comput. Phys. Commun.},
  title = {{DeePMD-kit: A deep learning package for many-body potential energy representation and molecular dynamics}},
  pages = {178--184}
}

CITE-CITE-CITE-CITE-CITE-CITE-CITE-CITE-CITE-CITE-CITE-CITE-CITE

Generated 0 of 1 mixed pair_coeff terms from geometric mixing rule
Neighbor list info ...
  update every 50 steps, delay 0 steps, check no
  max neighbors/atom: 2000, page size: 100000
  master list distance cutoff = 8
  ghost atom cutoff = 8
  binsize = 4, bins = 11 9 9
  1 neighbor lists, perpetual/occasional/extra = 1 0 0
  (1) pair deepmd, perpetual
      attributes: full, newton on
      pair build: full/bin
      stencil: full/bin/3d
      bin: standard
Per MPI rank memory allocation (min/avg/max) = 7.311 | 7.313 | 7.314 Mbytes
   Step          Temp          PotEng         TotEng         E_pair         E_mol          Press            Lx             Ly             Lz           Volume          Pxx            Pyy            Pzz            Pxy            Pxz            Pyz      
  61374000   256.29442     -419.97112     -334.13478     -419.97112      0              5224.6176      30.957001      21.340725      32.545579      21501.069      4967.1227      4415.2441      6291.4859     -565.64037     -270.70645     -181.48802    
  61376000   254.52753     -415.00287     -329.75828     -414.9916       0              6029.5979      30.957001      21.340725      32.757755      21641.242      6383.2024      6043.1797      5662.4116     -1758.615       299.00952      351.38438    
  61378000   256.18647     -417.91868     -332.11849     -417.91744      0              5861.9764      30.957001      21.340725      32.618405      21549.181      7368.3713      5384.1734      4833.3846     -977.98337     -660.40181     -103.01252    
  61380000   258.66216     -417.66309     -331.03376     -417.66574      0              5977.292       30.957001      21.340725      32.674317      21586.119      5420.4894      6362.4549      6148.9316      45.7448        1.2021994     -398.00946    
  61382000   256.67474     -417.72143     -331.75772     -417.71146      0              3997.3084      30.957001      21.340725      32.702915      21605.012      3538.4254      4039.3253      4414.1744     -567.30482     -84.01276      -808.15519    
  61384000   265.65296     -416.54058     -327.56994     -416.52425      0              7063.0901      30.957001      21.340725      32.611029      21544.308      8219.0134      6019.9283      6950.3284     -1617.2771      53.766289      807.59256    
  61386000   264.86152     -417.07966     -328.37408     -417.04602      0              9253.2981      30.957001      21.340725      32.427727      21423.211      10251.013      8108.2269      9400.6547     -1526.4322      1251.724      -1388.7505    
  61388000   257.9333      -418.20834     -331.82311     -418.17219      0              5180.5555      30.957001      21.340725      32.52806       21489.495      4221.0826      5070.6558      6249.928      -1292.5246     -551.70198      1099.0158    
  61390000   263.66891     -419.08136     -330.7752      -419.04269      0              7735.8381      30.957001      21.340725      32.46075       21445.027      8201.1037      7922.3229      7084.0877     -1180.0985     -1054.9835     -635.25813    
  61392000   259.68122     -419.4892      -332.51857     -419.46958      0              4139.8429      30.957001      21.340725      32.537719      21495.877      3796.8335      5800.9705      2821.7247      379.05467      171.7474       564.87467    
  61394000   259.23757     -419.62815     -332.8061      -419.59523      0              6159.2815      30.957001      21.340725      32.536678      21495.188      6616.3356      6925.0752      4936.4338      391.37252     -237.70439      534.03035    
  61396000   263.19184     -419.93769     -331.79131     -419.90093      0              4705.2216      30.957001      21.340725      32.714983      21612.985      5975.8696      3126.9672      5012.828       961.50017     -446.87603     -279.89289    
  61398000   269.82112     -418.75783     -328.39122     -418.71903      0              7797.6119      30.957001      21.340725      32.407339      21409.741      8517.5761      6578.5686      8296.6911     -499.3295      -422.6711      -942.61546    
  61400000   271.00468     -417.97517     -327.21217     -417.93995      0              6754.4739      30.957001      21.340725      32.61599       21547.586      5465.9188      6786.7586      8010.7442      239.60372     -375.09192      1252.3385    
  61402000   255.89488     -417.83259     -332.13006     -417.81179      0              5915.5954      30.957001      21.340725      32.44517       21434.734      6015.2972      6486.3647      5245.1244      1653.8532     -1295.8741     -321.07482    
  61404000   266.99815     -415.34072     -325.91956     -415.31257      0              7201.5575      30.957001      21.340725      32.573657      21519.619      7515.43        7928.2949      6160.9474      492.27911     -1703.0646      1031.9309    
  61406000   256.84288     -418.44765     -332.42762     -418.42271      0              6718.9161      30.957001      21.340725      32.598244      21535.862      7522.0092      7018.4894      5616.2496      903.26251     -1738.5437      232.31867    
  61408000   258.37236     -420.58533     -334.05306     -420.54822      0              6498.6327      30.957001      21.340725      32.610236      21543.784      6598.5842      8608.9976      4288.3163     -281.39777     -870.63283     -244.71414    
  61410000   258.78878     -418.55122     -331.87948     -418.54331      0              3381.2991      30.957001      21.340725      32.676463      21587.537      3474.7029      3090.8667      3578.3278      947.24654     -562.42705      374.6929     
  61412000   262.00118     -416.07683     -328.32922     -416.05927      0              4422.6752      30.957001      21.340725      32.855807      21706.019      7549.2677      2823.2684      2895.4894      134.35348      596.66501      2424.4589    
  61414000   258.80157     -418.16442     -331.48841     -418.14764      0              4170.2474      30.957001      21.340725      32.7765        21653.626      5240.4755      4193.9473      3076.3193      1489.6775     -36.529247     -1989.4646    
  61416000   258.09881     -416.92409     -330.48344     -416.90165      0              5139.3094      30.957001      21.340725      32.691674      21597.586      4704.3327      5282.4975      5431.0982      972.16528     -388.33731      102.4671     
  61418000   252.16553     -417.5551      -333.10158     -417.53275      0              7014.2989      30.957001      21.340725      32.485146      21461.144      7945.4475      6371.9191      6725.53        1130.8176     -1415.5672      510.66919    
  61420000   257.11422     -416.99007     -330.87916     -416.95706      0              6413.8662      30.957001      21.340725      32.588314      21529.302      8436.7063      3738.9005      7065.9919      419.97589     -1354.3855      1413.8988    
  61422000   256.23895     -417.20561     -331.38785     -417.16777      0              5375.458       30.957001      21.340725      32.682827      21591.741      5531.3639      6749.2484      3845.7616     -232.95688     -1433.6287      1285.4074    
  61424000   270.53513     -417.79061     -327.18487     -417.76503      0              5701.584       30.957001      21.340725      32.533216      21492.902      4506.7057      6391.6629      6206.3835      259.56702     -944.00306     -1357.4451    
  61426000   260.84774     -418.76669     -331.40538     -418.73424      0              4497.058       30.957001      21.340725      32.510482      21477.882      4998.6049      4192.7362      4299.833      -1156.2916     -886.85387      1066.8093    
  61428000   267.41559     -418.09399     -328.53303     -418.06018      0              7259.3857      30.957001      21.340725      32.402023      21406.229      6498.8774      6653.5058      8625.7739     -2737.0263      1866.569      -560.51349    
  61430000   263.94513     -416.57676     -328.17809     -416.55178      0              6023.0689      30.957001      21.340725      32.561962      21511.892      7454.2811      5374.7856      5240.14       -1058.2244      568.06014     -495.26074    
  61432000   255.5351      -418.85316     -333.27113     -418.80805      0              6560.5053      30.957001      21.340725      32.800712      21669.621      5006.2296      8255.9136      6419.3726     -3.8229084      1159.3272      362.2747     
  61434000   263.93434     -421.43983     -333.04478     -421.40605      0              5492.1613      30.957001      21.340725      32.798483      21668.149      6047.3004      4744.4273      5684.7563     -858.19851      1252.4153      652.06079    
  61436000   254.31876     -415.00023     -329.82556     -414.9895       0              5877.8739      30.957001      21.340725      32.748454      21635.097      6427.4952      4713.9524      6492.1741      681.84873     -382.11518      132.23876    
  61438000   263.18413     -417.69736     -329.55357     -417.69388      0              5924.9791      30.957001      21.340725      33.039684      21827.497      7431.5219      6394.6853      3948.7301      20.576566     -349.0173       340.5397     
  61440000   263.30637     -417.0053      -328.82056     -416.96216      0              4751.5899      30.957001      21.340725      32.831417      21689.906      5277.3123      4200.6187      4776.8388      785.30529      891.919        386.19547    
  61442000   260.98112     -422.03253     -334.62655     -421.99034      0              5881.4525      30.957001      21.340725      32.639324      21563.001      5981.267       7630.7186      4032.3719      308.68237     -882.40545      523.78619    
  61444000   255.72847     -418.5333      -332.88651     -418.50354      0              6341.1655      30.957001      21.340725      32.718103      21615.046      7717.8661      6263.837       5041.7935      187.19987      87.15842      -52.494625    
  61446000   268.57667     -419.22783     -329.278       -419.18744      0              3702.9111      30.957001      21.340725      32.887735      21727.112      5295.4453      1453.3417      4359.9463      246.37117     -244.67875      277.9601     
  61448000   260.29286     -419.19362     -332.01815     -419.16027      0              5389.4341      30.957001      21.340725      32.735818      21626.75       6281.965       5391.5966      4494.7407     -985.45732      800.50582     -571.78293    
  61450000   256.3541      -418.4214      -332.56507     -418.39968      0              4700.3715      30.957001      21.340725      32.710491      21610.017      3869.8708      4198.9178      6032.3259     -136.70344      7.0768038      1136.0786    
  61452000   266.88287     -418.06008     -328.67753     -418.02809      0              4136.209       30.957001      21.340725      32.873183      21717.499      3388.2682      5326.3769      3693.9819      879.45978     -406.11259      646.74391    
  61454000   255.30793     -417.98495     -332.479       -417.95071      0              4724.4116      30.957001      21.340725      32.861495      21709.777      4407.368       6188.5525      3577.3144      1323.3006     -44.385524      349.37727    
  61456000   258.72515     -420.91042     -334.25999     -420.8758       0              7072.5109      30.957001      21.340725      32.728088      21621.643      7129.8502      6395.305       7692.3775      976.26167     -115.18367     -1447.4472    
  61458000   260.54177     -417.20574     -329.9469      -417.20324      0              4539.1102      30.957001      21.340725      32.708405      21608.639      6027.478       4302.888       3286.9647     -1042.8523     -1661.204       714.28055    
  61460000   258.78281     -417.88741     -331.21768     -417.86382      0              5572.7591      30.957001      21.340725      32.91424       21744.623      3564.7508      6171.7086      6981.8178      391.89121      1473.2766     -645.7213     
  61462000   258.87526     -417.69787     -330.99717     -417.69072      0              5606.1796      30.957001      21.340725      32.789235      21662.039      8064.6736      5341.0538      3412.8116     -1744.0636     -1274.3395     -821.61028    
  61464000   253.25136     -421.62964     -336.81246     -421.57742      0              7027.3065      30.957001      21.340725      32.56648       21514.877      4682.644       6195.8045      10203.471      1142.2172      1480.6108      912.06573    
  61466000   264.29064     -419.54562     -331.03124     -419.49759      0              5847.9713      30.957001      21.340725      32.634591      21559.874      6768.2089      4412.5282      6363.1769      806.53646      411.78403      1244.0461    
  61468000   261.66759     -420.93714     -333.30125     -420.90124      0              7321.1211      30.957001      21.340725      32.807035      21673.798      6531.938       7548.9831      7882.4423     -1147.8431     -463.45113     -441.94481    
  61470000   258.77205     -420.39566     -333.72953     -420.35621      0              7671.9799      30.957001      21.340725      32.657846      21575.238      9748.9909      7248.3255      6018.6234     -600.25592     -532.88659      1839.535     
  61472000   258.42905     -420.04        -333.48874     -419.99646      0              6164.7386      30.957001      21.340725      32.62968       21556.63       5699.7909      5538.3735      7256.0515      839.79121     -1448.2578      1679.6397    
  61474000   267.32347     -421.25415     -331.72404     -421.20566      0              6455.5239      30.957001      21.340725      32.865595      21712.486      6242.5039      4700.485       8423.5828      820.92183      261.3149       1133.9314    
  61476000   262.12162     -420.80627     -333.01832     -420.72304      0              5943.1999      30.957001      21.340725      32.70584       21606.945      5308.8405      4007.6627      8513.0963     -83.559017     -345.40363     -364.04031    
  61478000   260.69571     -420.79704     -333.48664     -420.71506      0              6536.5169      30.957001      21.340725      32.727983      21621.573      7194.8033      5152.1737      7262.5737      1543.1199     -447.45224      668.15956    
  61480000   261.58503     -420.91388     -333.30565     -420.83781      0              5330.6051      30.957001      21.340725      32.888341      21727.513      5194.3219      4976.7177      5820.7757     -173.91093      1509.6565     -1633.2459    
  61482000   263.5685      -419.28062     -331.00809     -419.23401      0              5191.5102      30.957001      21.340725      32.709676      21609.479      5815.513       4949.291       4809.7266      495.3145       713.67424     -238.86544    
  61484000   259.69512     -419.84411     -332.86883     -419.81271      0              5138.0444      30.957001      21.340725      32.855324      21705.701      5961.3212      4984.2749      4468.5372     -91.0663       -135.72488      198.53952    
  61486000   256.61683     -420.38607     -334.44175     -420.37106      0              3989.5914      30.957001      21.340725      32.890662      21729.046      5022.9463      4589.6671      2356.1608      306.68983     -508.8836       590.61941    
  61488000   256.87299     -419.70367     -333.67355     -419.66615      0              5871.7377      30.957001      21.340725      32.922766      21750.256      5783.5684      6683.3945      5148.2501      989.5757       60.409312     -280.69953    
  61490000   259.9845      -422.12447     -335.05227     -422.079        0              6085.1427      30.957001      21.340725      32.800146      21669.247      6994.7382      3838.5603      7422.1296      580.52663     -560.11842      223.98995    
  61492000   257.84811     -420.88005     -334.52335     -420.81492      0              6712.9096      30.957001      21.340725      32.636072      21560.853      6142.3581      7496.9896      6499.381       362.2375      -1535.4185      444.34522    
  61494000   257.55282     -420.45072     -334.19293     -420.40063      0              4970.6872      30.957001      21.340725      32.73177       21624.075      6307.0472      4673.0376      3931.9768     -1514.9862     -335.31116      550.70249    
  61496000   259.30078     -418.7181      -331.87489     -418.68128      0              6775.0954      30.957001      21.340725      32.996452      21798.936      4743.0866      8280.035       7302.1646     -1653.8937     -493.64161     -1404.2421    
  61498000   263.70801     -419.53044     -331.21119     -419.50383      0              3912.4786      30.957001      21.340725      32.954215      21771.032      3700.2135      4519.8994      3517.3228      505.41928     -1812.7474      276.43624    
  61500000   263.29455     -419.2294      -331.04862     -419.20132      0              4809.4647      30.957001      21.340725      32.883768      21724.492      4703.9928      5470.6402      4253.7611      414.36896     -1951.7423      540.4449     
  61502000   266.95761     -421.8124      -332.40482     -421.74572      0              4414.4946      30.957001      21.340725      32.749687      21635.912      5008.8333      4483.7706      3750.8799     -2292.1714     -183.56413     -81.145004    
  61504000   261.51895     -419.89213     -332.30602     -419.87426      0              6580.2805      30.957001      21.340725      32.724281      21619.127      6629.8707      7703.3654      5407.6054      686.50876      1267.6432     -549.80186    
  61506000   260.62998     -420.27588     -332.9875      -420.23347      0              7533.981       30.957001      21.340725      32.592046      21531.767      9017.8324      6031.5015      7552.6092     -813.6946      -363.74209     -86.023634    
  61508000   256.81935     -419.88942     -333.87727     -419.84657      0              4436.1393      30.957001      21.340725      32.778848      21655.177      5414.7938      4116.9494      3776.6748      100.84647      317.53015      823.74242    
  61510000   261.00112     -421.5854      -334.17273     -421.54949      0              5942.7794      30.957001      21.340725      32.78886       21661.791      5863.0127      6096.0661      5869.2592      549.54413     -612.17312     -91.127921    
  61512000   263.42068     -419.76357     -331.54055     -419.73009      0              5269.8798      30.957001      21.340725      32.709934      21609.649      7149.6783      4704.3227      3955.6384     -106.7339       547.20381      111.99148    
  61514000   265.73569     -418.79476     -329.79642     -418.75317      0              5599.2133      30.957001      21.340725      32.627169      21554.971      4878.0145      4377.638       7541.9873      522.80055     -1432.1228     -1099.3732    
  61516000   262.02063     -419.91593     -332.16181     -419.86971      0              5692.6595      30.957001      21.340725      32.65852       21575.683      5508.5573      4241.2526      7328.1685      1280.7813     -1015.2021      644.4926     
  61518000   263.00567     -419.21221     -331.12818     -419.17314      0              4273.5899      30.957001      21.340725      32.658902      21575.935      3795.8317      4618.728       4406.2099     -1418.9567      39.25518      -354.0832     
  61520000   259.94274     -419.83272     -332.77451     -419.79693      0              6856.5311      30.957001      21.340725      32.506767      21475.428      8112.2244      7300.6919      5156.677      -830.68077     -79.893286     -697.90515    
  61522000   256.04176     -420.35267     -334.60095     -420.31119      0              7028.9395      30.957001      21.340725      32.716616      21614.064      6325.3358      6666.7722      8094.7105      390.76349      265.53173     -931.60615    
  61524000   258.25172     -422.03547     -335.5436      -421.99435      0              6514.6095      30.957001      21.340725      32.657961      21575.314      5551.7506      6450.2205      7541.8573      387.90119     -108.32953      691.81682    
  61526000   255.83193     -419.9512      -334.26975     -419.9211       0              4035.2517      30.957001      21.340725      32.636028      21560.824      3441.0691      5801.039       2863.6471      1371.6006     -128.12123      1029.1831    
  61528000   267.03112     -422.89581     -333.46361     -422.86026      0              5188.5404      30.957001      21.340725      32.577521      21522.171      5527.1634      6314.6834      3723.7744     -548.76006      554.58608     -741.90339    
  61530000   252.21154     -421.04584     -336.57691     -421.00487      0              6274.0936      30.957001      21.340725      32.535357      21494.316      5433.4264      6173.4625      7215.392       1662.2175      173.47645      162.00369    
  61532000   256.85406     -422.03595     -336.01218     -421.97827      0              5495.8136      30.957001      21.340725      32.477074      21455.812      4683.6214      4744.6487      7059.1708     -771.82638      616.27539     -195.54645    
  61534000   261.03664     -421.81668     -334.3921      -421.78047      0              6990.3158      30.957001      21.340725      32.557496      21508.942      6928.299       8200.6372      5842.0112     -97.745713     -869.55803     -592.22436    
  61536000   265.50361     -422.38012     -333.4595      -422.30383      0              7097.7193      30.957001      21.340725      32.498408      21469.906      6712.5959      6613.843       7966.719      -281.84793      337.44645     -30.89328     
  61538000   260.29229     -419.5137      -332.33842     -419.47665      0              5923.6555      30.957001      21.340725      32.540453      21497.682      7007.8914      4808.5424      5954.5328      1197.6424     -806.77958     -522.82177    
  61540000   262.16955     -419.29969     -331.49569     -419.25791      0              6903.6012      30.957001      21.340725      32.607627      21542.061      5476.276       8443.4512      6791.0765     -205.05231      326.76846     -2055.8246    
  61542000   256.10772     -419.26949     -333.49568     -419.23052      0              5206.4284      30.957001      21.340725      32.625017      21553.549      3920.1244      5522.8065      6176.3542      1292.3262     -42.911198      751.65767    
  61544000   261.04373     -419.48018     -332.05323     -419.44677      0              6715.6982      30.957001      21.340725      32.52365       21486.582      7763.1244      5684.0542      6699.9159      230.51232     -1230.3736      367.56409    
  61546000   263.45125     -421.07431     -332.84106     -421.01632      0              5004.176       30.957001      21.340725      32.565066      21513.943      4052.082       4208.5366      6751.9094     -168.1045      -950.49895      99.628185    
  61548000   251.19739     -420.96867     -336.83939     -420.91643      0              6942.5146      30.957001      21.340725      32.688154      21595.26       9464.6712      7575.5757      3787.2969      315.77067      1856.4516     -1248.5092    
  61550000   256.33652     -424.0864      -338.23596     -424.01864      0              4921.6854      30.957001      21.340725      32.67837       21588.797      4449.9284      5289.3249      5025.8028      634.2094       898.31605      468.30692    
  61552000   260.25259     -419.81344     -332.65145     -419.76628      0              6123.2519      30.957001      21.340725      32.611192      21544.416      8349.8619      5066.851       4953.0428     -381.28626     -1508.7622     -757.3885     
  61554000   260.7663      -421.73865     -334.40461     -421.65744      0              4437.2967      30.957001      21.340725      32.647392      21568.331      2814.7118      6117.7068      4379.4714      675.00894     -1318.747      -358.14066    
  61556000   264.00573     -422.78592     -334.36696     -422.72518      0              4817.4095      30.957001      21.340725      32.728328      21621.801      4737.1913      6583.8344      3131.2027      932.57794     -5.8620736     -733.99447    
  61558000   255.61293     -419.06549     -333.45738     -418.98938      0              5775.146       30.957001      21.340725      32.7192        21615.771      6962.3644      5856.2154      4506.8582      510.18413      226.45458     -228.92854    
  61560000   262.95814     -420.71717     -332.64906     -420.65636      0              4077.7788      30.957001      21.340725      32.820755      21682.863      3169.3557      3567.2243      5496.7565      1747.6086     -857.69        -1235.1829    
  61562000   261.19595     -420.84124     -333.36331     -420.78952      0              5275.6166      30.957001      21.340725      32.667043      21581.314      7114.902       4130.7988      4581.1489      455.19586     -714.77009      235.65004    
  61564000   264.70202     -419.2         -330.54785     -419.12524      0              3771.0301      30.957001      21.340725      32.81054       21676.114      2975.0939      2736.3157      5601.6809     -673.58146      1500.1835      705.2221     
  61566000   262.75745     -422.48179     -334.48089     -422.41277      0              6307.9823      30.957001      21.340725      32.768939      21648.631      7350.0604      4937.8291      6636.0574     -81.083899      384.00141      31.922881    
  61568000   258.24154     -421.25342     -334.76497     -421.20534      0              6504.7635      30.957001      21.340725      32.89519       21732.038      8777.7887      6826.9943      3909.5076      246.74033      629.65837      775.16986    
  61570000   264.1276      -420.4818      -332.02202     -420.43257      0              3575.3551      30.957001      21.340725      32.760803      21643.256      2500.4829      4557.4715      3668.111       200.92718     -438.10101     -1036.2619    
  61572000   256.83077     -419.89886     -333.88289     -419.83975      0              7975.3578      30.957001      21.340725      32.71605       21613.69       10280.379      6081.8344      7563.8595     -179.29867      810.81133      614.24413    
  61574000   255.17061     -420.01312     -334.55315     -419.9551       0              5283.0473      30.957001      21.340725      32.597531      21535.391      5593.0389      5981.2817      4274.8212      1301.9991     -227.47869      785.93519    
  61576000   259.62834     -420.08675     -333.13384     -420.03558      0              5338.224       30.957001      21.340725      32.805717      21672.928      6553.3492      4697.6562      4763.6668     -173.51315     -1058.6342     -850.33005    
  61578000   254.4508      -420.46241     -335.24352     -420.41516      0              3250.4738      30.957001      21.340725      32.794476      21665.502      2793.6264      3440.4962      3517.2989      1016.035       945.00339     -492.2845     
  61580000   255.3743      -423.20289     -337.67471     -423.14068      0              6067.8898      30.957001      21.340725      32.75177       21637.288      7047.1809      7546.5258      3609.9628      615.4543       1210.3294     -2043.367     
  61582000   263.01126     -422.54585     -334.45994     -422.49494      0              6452.7085      30.957001      21.340725      32.587612      21528.838      6831.8474      7069.3504      5456.9276     -2269.6591     -2204.7715      354.06427    
  61584000   260.3464      -419.93808     -332.74468     -419.86845      0              5633.0068      30.957001      21.340725      32.468654      21450.249      4483.3382      6690.8586      5724.8236      209.25032     -1067.5514      1395.0272    
  61586000   255.86207     -421.45465     -335.76311     -421.38621      0              4821.2411      30.957001      21.340725      32.640166      21563.557      4504.7559      4818.0401      5140.9272     -1808.2421     -380.01889      612.3912     
  61588000   261.3483      -419.21528     -331.68632     -419.15737      0              5730.8791      30.957001      21.340725      32.736117      21626.947      3032.3181      5736.1066      8424.2127     -1060.8629      753.58708     -1097.5223    
  61590000   253.94927     -419.88516     -334.83424     -419.80263      0              7423.1732      30.957001      21.340725      32.642576      21565.149      7693.9088      8030.1031      6545.5076     -1696.2175      409.78106     -2392.3192    
  61592000   264.06489     -420.75403     -332.31525     -420.68837      0              5697.2475      30.957001      21.340725      32.495289      21467.845      6573.0888      7148.4821      3370.1716      761.47137     -176.39764     -902.75583    
  61594000   252.83015     -418.95556     -334.27945     -418.899        0              9390.3235      30.957001      21.340725      32.548564      21503.041      8615.0485      10491.068      9064.8537      1035.5464     -2674.9812      1057.7598    
  61596000   258.07875     -424.34832     -337.91438     -424.27767      0              4903.2862      30.957001      21.340725      32.401648      21405.982      4718.2087      4659.8595      5331.7903      317.91701     -577.84198      1261.6376    
  61598000   257.20726     -419.34061     -333.19855     -419.27347      0              7793.3956      30.957001      21.340725      32.391803      21399.478      8768.2434      7059.9496      7551.994      -290.17524     -372.95042     -1204.3067    
  61600000   254.49433     -421.61756     -336.38409     -421.54403      0              7071.4813      30.957001      21.340725      32.5004        21471.222      6594.5674      6105.8508      8514.0256      512.53483     -2130.7399      2444.9483    
  61602000   261.05723     -419.33781     -331.90634     -419.25777      0              4912.0392      30.957001      21.340725      32.589444      21530.048      4546.5081      5432.8784      4756.731       1715.6727     -807.74313      582.85523    
  61604000   256.03617     -419.87512     -334.12526     -419.79289      0              6562.3225      30.957001      21.340725      32.530071      21490.824      6849.7251      7468.6042      5368.638      -399.19373     -556.98084     -475.35996    
  61606000   255.92527     -420.08195     -334.36924     -419.99903      0              5849.3057      30.957001      21.340725      32.498193      21469.764      6075.3128      5046.3013      6426.303      -967.73237     -506.48765     -1191.2752    
  61608000   266.52135     -422.32411     -333.06263     -422.24104      0              8820.6         30.957001      21.340725      32.300654      21339.26       8134.6436      6641.3199      11685.837     -1233.1143     -785.73907     -1063.2137    
  61610000   263.90518     -423.51491     -335.12962     -423.43433      0              7578.2587      30.957001      21.340725      32.513127      21479.63       7236.1337      6979.4656      8519.1769      1744.4433     -1547.2591     -1491.8563    
  61612000   265.70419     -421.87047     -332.88268     -421.78819      0              6187.5953      30.957001      21.340725      32.313231      21347.57       6841.4284      5825.881       5895.4764      1038.8523     -709.56953      105.08564    
  61614000   260.35192     -420.6434      -333.44815     -420.56766      0              7355.7422      30.957001      21.340725      32.368327      21383.968      6850.8675      8622.6772      6593.6818      676.64777     -802.36566     -3643.9298    
  61616000   264.32132     -420.44256     -331.9179      -420.38382      0              4359.5107      30.957001      21.340725      32.631406      21557.77       4828.8812      2137.2561      6112.395      -762.61859     -1477.7344     -118.77889    
  61618000   256.8407      -420.64247     -334.62317     -420.57386      0              6314.0201      30.957001      21.340725      32.672859      21585.156      7150.4314      6950.2587      4841.3704      372.89835     -1746.4412     -2008.4738    
  61620000   255.45717     -418.46482     -332.90888     -418.40103      0              6813.3333      30.957001      21.340725      32.44447       21434.272      7273.1801      4836.0083      8330.8115     -334.08168     -543.9288       1166.545     
  61622000   255.06265     -420.13775     -334.71394     -420.07413      0              5624.2295      30.957001      21.340725      32.385651      21395.413      5620.5966      6917.5538      4334.538       1374.28        479.53027     -142.73069    
  61624000   263.07016     -419.74278     -331.63715     -419.6995       0              6058.9111      30.957001      21.340725      32.454136      21440.657      9458.9152      3824.0878      4893.7303     -825.05595      30.188735     -279.89867    
  61626000   252.76055     -421.94705     -337.29425     -421.88108      0              7707.8463      30.957001      21.340725      32.609073      21543.016      9124.0856      7369.5734      6629.8798     -1244.957      -1018.8345      1065.3627    
  61628000   256.79907     -419.83339     -333.82803     -419.75045      0              5491.2877      30.957001      21.340725      32.583485      21526.112      3912.3646      5620.9112      6940.5873      1152.0982      975.87236     -935.74948    
  61630000   261.73872     -418.14785     -330.48814     -418.11463      0              5083.5929      30.957001      21.340725      32.457418      21442.826      3969.6717      4074.0008      7207.1063     -115.70976      518.54737     -1368.384     
  61632000   256.90079     -421.54611     -335.50669     -421.4828       0              5794.085       30.957001      21.340725      32.588745      21529.586      4348.4103      5895.7801      7138.0646     -1638.6137      1592.7541     -534.51394    
  61634000   255.90721     -423.99076     -338.2841      -423.91565      0              5969.8385      30.957001      21.340725      32.392063      21399.649      5986.9894      5810.2291      6112.2972     -1054.4601      582.03873      945.58473    
  61636000   262.42432     -421.0437      -333.15437     -420.96136      0              6594.2254      30.957001      21.340725      32.405301      21408.395      5795.4102      9040.8431      4946.423      -409.68737      520.84299     -568.97761    
  61638000   256.11306     -419.71539     -333.93978     -419.6358       0              5806.4555      30.957001      21.340725      32.472224      21452.608      5985.4466      4623.7873      6810.1326     -1346.1094     -45.654601     -298.67785    
  61640000   251.90384     -420.88946     -336.52358     -420.80708      0              5931.2285      30.957001      21.340725      32.482766      21459.572      4395.7354      8154.6709      5243.2791      556.06526      1070.4508      219.29422    
  61642000   253.87543     -419.12507     -334.09888     -419.08283      0              5722.9759      30.957001      21.340725      32.471385      21452.053      5180.2855      5854.1001      6134.5421     -772.87695      795.85725     -903.39644    
  61644000   260.18261     -419.99355     -332.85501     -419.92076      0              6753.0345      30.957001      21.340725      32.507218      21475.726      7136.0412      5036.2014      8086.861       94.196533     -63.215991      860.32249    
  61646000   263.47523     -418.0268      -329.78551     -417.99644      0              6096.2967      30.957001      21.340725      32.601367      21537.925      5737.3794      8445.4637      4106.047       944.7534      -339.64342     -481.52448    
  61648000   267.10008     -419.4576      -330.0023      -419.40076      0              5751.7622      30.957001      21.340725      32.5246        21487.209      5179.5343      6678.9708      5396.7816      1207.7331     -1019.7838     -692.33127    
  61650000   261.24837     -419.2987      -331.80321     -419.24042      0              5339.9145      30.957001      21.340725      32.443355      21433.535      5976.0988      5267.6354      4776.0094      2022.1752     -396.49213      1239.7275    
  61652000   259.87186     -419.67713     -332.64265     -419.63469      0              5363.3016      30.957001      21.340725      32.485218      21461.192      5740.2364      6994.6007      3355.0677      2879.6133      1155.5712      837.57793    
  61654000   266.66185     -418.48601     -329.17749     -418.44795      0              5037.6953      30.957001      21.340725      32.474271      21453.96       5472.0027      3781.1741      5859.9091     -1301.3298     -1834.5341      248.36809    
  61656000   263.2826      -419.09376     -330.91699     -419.01228      0              4613.9956      30.957001      21.340725      32.393123      21400.35       1653.3676      5143.0936      7045.5255     -804.69255      226.95573     -761.41855    
  61658000   266.4264      -419.50721     -330.27753     -419.43228      0              8948.4569      30.957001      21.340725      32.438803      21430.528      10693.32       9484.4616      6667.5886     -31.430813     -79.734657     -1192.2587    
  61660000   256.73595     -420.76822     -334.78401     -420.69225      0              7464.7326      30.957001      21.340725      32.332272      21360.149      7096.3525      6906.3204      8391.5248      1370.0456      1385.8237      1714.0507    
  61662000   253.75909     -422.36182     -337.37459     -422.28597      0              7153.7214      30.957001      21.340725      32.462333      21446.073      5126.2614      7674.4211      8660.4817     -599.68451     -103.85261     -566.3046     
  61664000   261.19152     -419.21394     -331.73749     -419.16791      0              8659.4028      30.957001      21.340725      32.392402      21399.873      9613.6012      9050.7254      7313.8817      238.46522     -236.93694     -392.80395    
  61666000   267.59877     -422.86667     -333.24435     -422.80089      0              6483.1897      30.957001      21.340725      32.608575      21542.687      8264.1304      6615.9613      4569.4775     -741.10729     -87.005983     -1295.2348    
  61668000   257.45248     -419.68807     -333.46388     -419.63486      0              5508.241       30.957001      21.340725      32.650253      21570.221      4297.4079      6133.5004      6093.8145      565.21935     -657.26515      1748.1733    
  61670000   259.80956     -419.56759     -332.55398     -419.50207      0              6997.2761      30.957001      21.340725      32.686531      21594.188      7779.9395      6955.0421      6256.8468     -1039.2198     -2153.4051     -1228.5917    
  61672000   254.99425     -420.74244     -335.34154     -420.6961       0              5776.4649      30.957001      21.340725      32.619216      21549.717      6412.5879      5535.8855      5380.9213      638.96708      112.67655      239.8135     
  61674000   261.5088      -419.22763     -331.64493     -419.14926      0              6639.7215      30.957001      21.340725      32.551573      21505.029      4871.6453      6062.1827      8985.3363     -1031.9718      782.09767      371.15266    
  61676000   258.8608      -420.15618     -333.46033     -420.11655      0              3543.6971      30.957001      21.340725      32.87699       21720.014      3237.2474      4422.131       2971.713      -517.86106     -1559.7525      364.54449    
  61678000   257.22707     -420.5874      -334.4387      -420.52218      0              4755.4664      30.957001      21.340725      32.676441      21587.522      1686.0314      6197.8183      6382.5494     -1188.484      -1535.3273      727.21093    
  61680000   261.99577     -420.8632      -333.1174      -420.80055      0              6086.6359      30.957001      21.340725      32.612532      21545.301      5691.2694      4581.9747      7986.6635      1515.6446     -342.54602     -1202.5614    
  61682000   257.8118      -420.75774     -334.4132      -420.69119      0              6217.2583      30.957001      21.340725      32.616294      21547.786      5708.9308      6463.5332      6479.3111      734.15875      3.6910876      370.21526    
  61684000   262.53269     -420.1833      -332.25768     -420.10877      0              6585.1548      30.957001      21.340725      32.656297      21574.214      7186.4998      5893.9896      6674.9751     -1423.1464     -645.77854      122.09003    
  61686000   265.38577     -421.39049     -332.50934     -421.30941      0              5721.7229      30.957001      21.340725      32.482888      21459.652      7838.6578      1832.9518      7493.559       83.503866     -495.82349      2308.0787    
  61688000   269.01865     -420.48591     -330.38806     -420.41744      0              5559.689       30.957001      21.340725      32.627849      21555.42       4704.0749      5812.4613      6162.5308      1511.6235      410.82365      1059.4809    
  61690000   264.22468     -420.32152     -331.82923     -420.24873      0              5074.4439      30.957001      21.340725      32.593187      21532.521      4982.6187      5833.3648      4407.3483      1510.66        2021.8295     -1179.2499    
  61692000   257.32715     -420.68353     -334.50131     -420.6233       0              4918.055       30.957001      21.340725      32.645779      21567.265      3902.8706      5608.6012      5242.6932      218.20802     -824.85473      636.4225     
  61694000   262.49142     -419.96722     -332.05542     -419.88481      0              4770.0854      30.957001      21.340725      32.601429      21537.966      5011.4535      6049.3296      3249.4729      445.84809     -383.42788      123.20592    
  61696000   258.86289     -420.46046     -333.7639      -420.39065      0              7794.4171      30.957001      21.340725      32.480205      21457.88       8629.0135      6593.2163      8161.0216      1784.0557      172.74235      308.85393    
  61698000   258.35839     -421.66592     -335.13833     -421.58309      0              4719.0424      30.957001      21.340725      32.501873      21472.195      4664.8499      4590.6742      4901.603      -32.200649     -267.71189     -1243.8053    
  61700000   253.64536     -420.36693     -335.41779     -420.29934      0              7650.0758      30.957001      21.340725      32.578043      21522.516      7926.6136      6933.1295      8090.4842      1019.7662     -181.73032      239.1555     
  61702000   261.29269     -421.74173     -334.2314      -421.66223      0              5752.6609      30.957001      21.340725      32.682473      21591.508      4631.526       5719.8818      6906.5751      348.09581     -521.80314      692.84013    
  61704000   263.96108     -419.37322     -330.96921     -419.30219      0              5859.3947      30.957001      21.340725      32.672572      21584.967      7298.2308      4000.7381      6279.2151     -50.781327     -611.03457      1206.3652    
  61706000   263.47659     -419.78053     -331.53878     -419.71578      0              6959.7563      30.957001      21.340725      32.71721       21614.456      7109.7755      6951.2328      6818.2608     -844.93752      214.02301     -406.06593    
  61708000   261.75345     -419.14954     -331.4849      -419.07636      0              7750.0924      30.957001      21.340725      32.554801      21507.162      7626.2333      6890.1408      8733.9032      331.73943      1916.1465      673.72455    
  61710000   258.47015     -418.14523     -331.5802      -418.07212      0              5779.2228      30.957001      21.340725      32.629496      21556.508      6736.9902      6038.5532      4562.1248     -902.66554      372.68706      812.78579    
  61712000   251.52472     -421.21448     -336.97558     -421.13822      0              6418.7179      30.957001      21.340725      32.691023      21597.156      6454.0336      6603.9338      6198.1863      4504.9553      414.91162      234.6331     
  61714000   263.73073     -419.61995     -331.29309     -419.55089      0              5387.2903      30.957001      21.340725      32.779738      21655.765      2650.6061      8831.6753      4679.5896      391.27299      1627.0912     -391.97743    
  61716000   261.26842     -421.32638     -333.82418     -421.2439       0              8135.6246      30.957001      21.340725      32.474164      21453.889      8859.0498      6714.3815      8833.4425      173.25132      1371.7906      345.71995    
  61718000   251.96597     -421.09558     -336.70889     -421.01761      0              5773.3562      30.957001      21.340725      32.573812      21519.721      5521.302       4134.0444      7664.722      -1629.3516     -639.59902      1576.2629    
  61720000   252.34761     -420.58223     -336.06772     -420.51798      0              6036.5598      30.957001      21.340725      32.66347       21578.953      5647.72        6024.2207      6437.7387      634.33708      974.4539       997.99936    
  61722000   250.14254     -421.18732     -337.41132     -421.12034      0              7682.1218      30.957001      21.340725      32.735832      21626.759      6470.068       7171.6288      9404.6686     -186.63959      568.90466      1606.8906    
  61724000   258.92925     -422.07525     -335.35647     -422.00535      0              6121.1487      30.957001      21.340725      32.806724      21673.593      4316.5021      6718.7096      7328.2343     -1171.9273      2090.7316     -971.97688    
  61726000   256.94877     -419.31864     -333.26315     -419.2555       0              6598.8964      30.957001      21.340725      32.593325      21532.612      6072.5627      7718.6793      6005.4471     -1398.4344      90.344529      2346.1347    
  61728000   257.05807     -418.61537     -332.52327     -418.53486      0              7654.952       30.957001      21.340725      32.701491      21604.071      8505.8582      6454.4337      8004.5641      1161.3468      1022.1582      2263.7215    
  61730000   258.27102     -419.7229      -333.22457     -419.65151      0              5720.809       30.957001      21.340725      32.72474       21619.431      4973.2013      7011.0505      5178.1753      1656.6026     -899.7559      -105.75862    
  61732000   261.35953     -423.78222     -336.2495      -423.73043      0              5857.8871      30.957001      21.340725      32.663909      21579.243      4984.2594      6916.3108      5673.0911      1968.3568     -458.88585     -568.15747    
  61734000   262.15888     -421.49934     -333.69891     -421.43237      0              4825.4367      30.957001      21.340725      32.626317      21554.408      6222.9304      3157.3141      5096.0657     -1914.2145      621.53668      526.06526    
  61736000   253.53796     -419.53608     -334.62291     -419.45885      0              7731.0937      30.957001      21.340725      32.547152      21502.108      7659.1887      7990.3797      7543.7126      343.6697      -138.53805     -84.136256    
  61738000   264.0959      -419.74979     -331.30063     -419.67         0              6476.9833      30.957001      21.340725      32.555341      21507.518      5175.3684      7645.4729      6610.1085     -1327.7846      163.48488      274.11446    
  61740000   259.04365     -417.6152      -330.85811     -417.55742      0              5239.8189      30.957001      21.340725      32.518565      21483.223      3687.712       7242.7632      4788.9814     -0.49108374     303.14183      737.20674    
  61742000   255.81431     -418.6282      -332.95265     -418.57092      0              6575.777       30.957001      21.340725      32.644751      21566.586      5712.7559      6959.1449      7055.4302      1723.2622      238.52686      937.36959    
  61744000   262.25614     -419.50255     -331.66955     -419.43776      0              5238.2342      30.957001      21.340725      32.670275      21583.449      4569.839       4816.6629      6328.2006      307.24602      494.02818     -360.76546    
  61746000   263.72441     -422.11116     -333.78642     -422.03304      0              5317.9685      30.957001      21.340725      32.584953      21527.082      6000.2254      4933.9853      5019.6948      1228.6432     -247.61912      586.58126    
  61748000   260.01729     -420.2847      -333.20152     -420.20808      0              6040.2012      30.957001      21.340725      32.536388      21494.997      3974.9417      7413.5852      6732.0768      1739.5716      1228.9535      265.22695    
  61750000   256.26802     -417.07628     -331.24878     -416.99524      0              6710.6661      30.957001      21.340725      32.575448      21520.802      5946.3555      9567.7832      4617.8597      110.9828      -1746.6839     -357.12616    
  61752000   258.32439     -420.97451     -334.4583      -420.90874      0              6590.5481      30.957001      21.340725      32.660992      21577.316      8614.8484      7646.6406      3510.1551      614.6154      -1892.1897     -255.37813    
  61754000   252.04335     -422.51624     -338.10364     -422.43866      0              4887.1465      30.957001      21.340725      32.567416      21515.496      7043.3029      3773.8535      3844.2832      475.62768      726.52793     -290.83239    
  61756000   260.92443     -421.70141     -334.31442     -421.63862      0              6404.5255      30.957001      21.340725      32.658035      21575.363      7261.1592      6394.0901      5558.3272      817.53444      1587.0436     -124.88496    
  61758000   259.85917     -422.85928     -335.82906     -422.7837       0              4634.3268      30.957001      21.340725      32.756459      21640.386      5607.3748      4626.4044      3669.2013     -100.3327       649.11953     -372.36989    
  61760000   263.82196     -423.54815     -335.19073     -423.48098      0              3750.2711      30.957001      21.340725      32.905508      21738.854      5272.9465      2430.9893      3546.8776      205.8673      -41.51678      -382.97044    
  61762000   261.59304     -425.11306     -337.50214     -425.03051      0              5974.802       30.957001      21.340725      32.533633      21493.177      5976.1876      5349.5742      6598.6442     -1489.5805      1222.156       802.88387    
  61764000   250.88553     -423.10654     -339.0817      -423.02626      0              6412.9678      30.957001      21.340725      32.498151      21469.736      7062.1564      5654.7584      6521.9886      19.399647      686.42941      295.71723    
  61766000   258.70999     -422.79969     -336.15434     -422.71729      0              4837.5941      30.957001      21.340725      32.660825      21577.205      4508.2441      4164.2445      5840.2936     -361.82524     -2270.7207      142.7227     
  61768000   260.10083     -423.35355     -336.24239     -423.28045      0              5856.8013      30.957001      21.340725      32.634321      21559.696      8530.4381      4054.9537      4985.0122     -437.1654      -1417.7575      831.90754    
  61770000   254.68001     -422.7273      -337.43164     -422.65897      0              4444.5678      30.957001      21.340725      32.585733      21527.596      4724.3365      3112.3648      5497.002      -139.56028     -572.94698      638.32871    
  61772000   259.17336     -421.77344     -334.97291     -421.6928       0              5001.4871      30.957001      21.340725      32.731353      21623.799      6647.3104      3901.5988      4455.552      -918.15878      115.78526     -298.14178    
  61774000   259.77422     -425.26791     -338.26613     -425.1881       0              5152.9976      30.957001      21.340725      32.744663      21632.593      6546.1931      6007.452       2905.3478     -280.63354      101.44207      442.6098     
  61776000   256.64103     -420.4688      -334.51638     -420.41596      0              7205.4841      30.957001      21.340725      32.72573       21620.085      3358.7867      10621.278      7636.3872      1478.2065     -176.40914     -492.77538    
  61778000   255.13346     -423.11946     -337.67194     -423.04129      0              5324.8756      30.957001      21.340725      32.658118      21575.417      4283.9068      5043.2305      6647.4895     -332.16397     -1251.8464      647.75012    
  61780000   261.77556     -419.62655     -331.9545      -419.55738      0              4942.1265      30.957001      21.340725      32.529663      21490.554      4973.864       4106.3519      5746.1636      779.7039      -1857.3454     -354.67168    
  61782000   258.34583     -417.76887     -331.24548     -417.69088      0              5979.8104      30.957001      21.340725      32.588741      21529.584      7184.6535      6083.2835      4671.4943      1247.9932     -525.52336      510.24944    
  61784000   262.96683     -422.01743     -333.94641     -421.95137      0              4350.693       30.957001      21.340725      32.740296      21629.708      5809.6267      4094.5985      3147.8537      810.57694     -989.57359     -80.29049     
  61786000   257.09091     -419.51427     -333.41117     -419.45422      0              6803.3952      30.957001      21.340725      32.752057      21637.477      9322.5552      5969.7511      5117.8793     -522.75514     -2270.3572     -2255.7998    
  61788000   258.71967     -422.07651     -335.42792     -422.01696      0              4337.5734      30.957001      21.340725      32.626243      21554.36       4498.9055      3471.4796      5042.335       500.7039      -1551.0601     -2098.044     
  61790000   259.59776     -420.37661     -333.43393     -420.30126      0              7698.8685      30.957001      21.340725      32.513973      21480.189      7038.0729      7323.9027      8734.6297     -653.81269      399.73535      254.93568    
  61792000   261.14588     -422.03739     -334.57623     -421.97756      0              4491.4689      30.957001      21.340725      32.54531       21500.892      2939.6033      5448.6347      5086.1687     -244.15335      515.60625     -248.12606    
  61794000   262.54822     -422.24726     -334.31644     -422.16504      0              5642.3402      30.957001      21.340725      32.493649      21466.762      4546.9889      5900.5296      6479.502       410.73002      2456.3906     -2.0853067    
  61796000   262.83266     -418.14731     -330.12122     -418.06616      0              6260.2913      30.957001      21.340725      32.417774      21416.635      6940.4239      4992.3477      6848.1025     -976.04813     -73.949121     -611.42125    
  61798000   257.01985     -422.09231     -336.01301     -422.03852      0              7565.8331      30.957001      21.340725      32.521283      21485.018      7687.9073      7146.6729      7862.9192      1269.3356     -748.64406     -773.09175    
  61800000   261.08411     -420.80104     -333.36057     -420.72396      0              3283.9624      30.957001      21.340725      32.623753      21552.714      3088.5936      2722.7936      4040.5001      1651.1404      3.7200397      454.72821    
  61802000   261.27165     -422.6203      -335.11702     -422.53965      0              5459.5548      30.957001      21.340725      32.755676      21639.869      4813.5051      5277.0242      6288.1352     -1406.3014      1271.5351      636.77       
  61804000   257.24901     -421.19473     -335.03869     -421.11855      0              6731.2443      30.957001      21.340725      32.881453      21722.963      7780.0167      7699.4056      4714.3106     -455.35825      400.19203      734.84843    
  61806000   263.89857     -419.79763     -331.41456     -419.7417       0              4371.2006      30.957001      21.340725      32.750681      21636.569      4502.6         4256.1768      4354.825       610.53518     -12.053805     -356.61152    
  61808000   262.48624     -422.38498     -334.47492     -422.33223      0              4094.2958      30.957001      21.340725      32.683361      21592.094      5189.3541      3596.7475      3496.7857      627.65802     -132.28836      1146.8315    
  61810000   259.36092     -423.28528     -336.42193     -423.20322      0              4799.6144      30.957001      21.340725      32.460941      21445.154      5970.3784      3301.3765      5127.0883     -1068.1748      787.11295     -904.70623    
  61812000   259.09336     -422.69684     -335.9231      -422.63073      0              4961.5695      30.957001      21.340725      32.796228      21666.659      2974.1341      5717.9837      6192.5908      185.0644       232.90843     -821.91295    
  61814000   254.74703     -421.14274     -335.82464     -421.0677       0              4767.109       30.957001      21.340725      32.551263      21504.824      2548.4937      6037.0929      5715.7404      107.80655      118.676        1235.4672    
  61816000   261.51804     -422.59007     -335.00427     -422.51133      0              6897.1052      30.957001      21.340725      32.563622      21512.989      7052.1166      5918.3828      7720.8164     -544.72899      846.28342     -556.19685    
  61818000   257.10517     -421.59483     -335.48696     -421.54217      0              4011.3806      30.957001      21.340725      32.622343      21551.783      4130.914       2297.1437      5606.0842     -157.83864      258.33426     -156.31755    
  61820000   261.89462     -422.03209     -334.32017     -421.95035      0              6575.892       30.957001      21.340725      32.73188       21624.148      7032.8365      5818.4129      6876.4264      310.83854     -443.75266     -449.12034    
  61822000   251.45241     -419.40405     -335.18936     -419.32468      0              5552.5631      30.957001      21.340725      32.707989      21608.364      6557.2657      6384.3021      3716.1216      911.36438     -107.70307      65.130115    
  61824000   259.72313     -421.30731     -334.32265     -421.22667      0              6941.649       30.957001      21.340725      32.428381      21423.643      4608.3869      8304.7785      7911.7817      1660.8814      26.278712     -48.556049    
  61826000   260.02017     -420.8019      -333.71775     -420.73102      0              6682.2271      30.957001      21.340725      32.382566      21393.375      7317.6023      6138.8737      6590.2052     -541.62628     -402.21682      1475.9446    
  61828000   270.07259     -421.15515     -330.70432     -421.07678      0              7097.1956      30.957001      21.340725      32.428402      21423.657      4885.4273      7832.71        8573.4494      1107.625      -106.62972     -95.27045     
  61830000   260.37145     -420.9485      -333.7467      -420.8755       0              6222.3166      30.957001      21.340725      32.61521       21547.07       7867.7894      5921.1092      4878.0513      10.835257     -728.02219      1427.4336    
  61832000   260.37249     -424.69776     -337.49562     -424.62806      0              6966.3245      30.957001      21.340725      32.543108      21499.437      6491.1626      6184.2802      8223.5306     -1243.9077      697.81433      790.07237    
  61834000   257.38498     -419.2533      -333.05171     -419.18959      0              5423.559       30.957001      21.340725      32.572287      21518.713      4918.2672      5956.1923      5396.2174      935.46007     -1168.5238      1465.276     
  61836000   262.13341     -420.03709     -332.24519     -419.95829      0              5949.9645      30.957001      21.340725      32.420235      21418.261      5142.565       5280.2942      7427.0342     -974.02433      222.61193      1789.9525    
  61838000   262.4048      -421.07123     -333.18844     -421.02472      0              3030.5515      30.957001      21.340725      32.641063      21564.15       3639.0152      3530.346       1922.2932     -457.619       -638.59979      1594.3677    
  61840000   258.53639     -421.44138     -334.85417     -421.36143      0              6574.4281      30.957001      21.340725      32.557547      21508.976      5931.737       8317.4174      5474.1301     -526.58184      222.64978     -2520.266     
  61842000   259.40591     -420.08589     -333.20747     -420.00539      0              6875.6427      30.957001      21.340725      32.49716       21469.081      7206.6043      4456.4175      8963.9063      452.56796     -159.64374      882.42698    
  61844000   258.97943     -419.95997     -333.22439     -419.88324      0              7364.6425      30.957001      21.340725      32.57317       21519.297      7642.5852      8539.8819      5911.4604     -256.01108     -665.27813     -85.28579     
  61846000   263.8768      -421.54063     -333.16486     -421.46077      0              5229.7522      30.957001      21.340725      32.548822      21503.212      5475.2931      4594.3208      5619.6427      468.47137     -1070.3285     -1291.6866    
  61848000   259.31029     -422.79062     -335.94422     -422.71455      0              5576.2057      30.957001      21.340725      32.52185       21485.393      6033.0865      4007.6125      6687.918       1003.1212      1098.3831      199.32806    
  61850000   264.04645     -421.66829     -333.23569     -421.60293      0              6042.6348      30.957001      21.340725      32.569934      21517.159      7313.4391      4217.5428      6596.9224     -402.99125     -234.38719      903.39288    
  61852000   261.10105     -420.54181     -333.09567     -420.46887      0              7393.4124      30.957001      21.340725      32.530427      21491.059      8629.1984      6548.6764      7002.3623     -1984.667       338.18766     -144.48133    
  61854000   257.47274     -420.89787     -334.66689     -420.82823      0              4001.0929      30.957001      21.340725      32.465063      21447.876      4430.0709      3303.1965      4270.0111     -82.889856     -256.99107      1273.7097    
  61856000   255.89615     -424.20234     -338.49938     -424.15715      0              6388.4621      30.957001      21.340725      32.54848       21502.985      3788.8683      8107.7899      7268.7281     -1256.6707      662.70957      391.45387    
  61858000   259.14552     -421.2669      -334.47569     -421.23026      0              4197.6888      30.957001      21.340725      32.761459      21643.689      3114.3524      4356.2192      5122.4948     -1494.4055      215.51321      299.06575    
  61860000   257.10643     -424.06662     -337.95833     -424.00398      0              4807.0285      30.957001      21.340725      32.59013       21530.501      5594.4758      3516.0566      5310.553      -558.18965     -692.87765      81.941226    
  61862000   258.92765     -420.52769     -333.80944     -420.50051      0              6159.7871      30.957001      21.340725      32.62846       21555.824      5731.4894      6391.5469      6356.3251      948.53711     -1763.0858      376.45046    
  61864000   264.76935     -420.59186     -331.91716     -420.53423      0              8127.8261      30.957001      21.340725      32.539975      21497.367      7953.1324      8835.5038      7594.8422      41.560465     -1451.7817      1102.4504    
  61866000   257.02814     -419.10839     -333.02631     -419.02633      0              7352.9415      30.957001      21.340725      32.258972      21311.723      6176.3219      6889.8334      8992.6693     -2745.9036      395.95368     -225.99574    
  61868000   263.32938     -421.14537     -332.95293     -421.06444      0              6568.6474      30.957001      21.340725      32.56866       21516.317      8740.5359      6401.9218      4563.4845      695.48722     -352.2724       1246.2049    
  61870000   260.35502     -422.70095     -335.50466     -422.63412      0              6238.1681      30.957001      21.340725      32.646011      21567.419      7118.3249      5696.3832      5899.7961     -1043.1051     -980.12684     -1399.1949    
  61872000   252.20791     -421.10223     -336.63451     -421.04121      0              5099.5787      30.957001      21.340725      32.663783      21579.16       4715.7864      6091.6154      4491.3342      1259.7091      272.20557     -163.91444    
  61874000   261.56107     -420.08649     -332.48628     -420.02902      0              6821.8827      30.957001      21.340725      32.582308      21525.334      5915.6989      6585.9914      7963.9579      224.20092      1867.2747     -38.653481    
  61876000   260.02369     -420.81943     -333.73411     -420.75882      0              8082.0172      30.957001      21.340725      32.671117      21584.005      5628.8899      8479.7126      10137.449      1830.9649      854.28453      1365.1595    
  61878000   255.01315     -422.09914     -336.69191     -422.0379       0              5868.6462      30.957001      21.340725      32.726623      21620.675      4091.9667      6215.217       7298.7548      439.26574      957.11236     -434.82287    
  61880000   261.88855     -420.33933     -332.62944     -420.25743      0              4839.5074      30.957001      21.340725      32.731368      21623.809      5891.5751      4992.4841      3634.4631      369.34586      217.38362      378.43813    
  61882000   266.62201     -418.53603     -329.24084     -418.47192      0              7018.2802      30.957001      21.340725      32.604454      21539.964      8270.6437      6140.3552      6643.8418     -696.32124     -323.08627      1048.7182    
  61884000   258.41802     -420.08803     -333.54046     -420.03592      0              6096.3863      30.957001      21.340725      32.467156      21449.259      5183.8904      6040.6093      7064.6592      457.67313      2390.7096      27.363122    
  61886000   269.23742     -422.35605     -332.18493     -422.29506      0              7196.0094      30.957001      21.340725      32.304877      21342.05       5432.9326      6910.4794      9244.6163     -86.958116     -60.401077     -400.57824    
  61888000   264.77435     -418.30251     -329.62613     -418.25385      0              7773.136       30.957001      21.340725      32.546763      21501.851      7422.8021      7612.4758      8284.1301     -2108.1554     -82.473672      1692.851     
  61890000   257.89241     -419.89959     -333.52806     -419.85943      0              5289.9322      30.957001      21.340725      32.582457      21525.432      3593.7016      6517.1617      5758.9334      566.46115      238.77813     -825.27302    
  61892000   255.95577     -420.59524     -334.87231     -420.55412      0              3680.3731      30.957001      21.340725      32.73975       21629.347      4556.1817      3716.4514      2768.4863     -927.05774     -1644.8911      263.72832    
  61894000   261.00539     -419.79707     -332.38296     -419.72394      0              5975.0476      30.957001      21.340725      32.685185      21593.299      5236.1268      5501.6689      7187.347       238.42851     -1975.955       1994.837     
  61896000   262.70091     -422.49494     -334.51298     -422.43256      0              4139.8428      30.957001      21.340725      32.58399       21526.445      5263.6069      4046.1695      3109.7519     -1188.3802     -399.88179     -91.896386    
  61898000   262.82373     -420.18194     -332.15884     -420.10196      0              5960.1677      30.957001      21.340725      32.545381      21500.938      6317.4216      4799.6989      6763.3828      782.63072      1108.744       50.484568    
  61900000   257.97324     -422.78232     -336.38372     -422.71919      0              2752.1153      30.957001      21.340725      32.439502      21430.99       1915.9813      5694.5141      645.85054     -568.53678      1450.747      -213.41563    
  61902000   259.63133     -419.53784     -332.58393     -419.4777       0              6258.5192      30.957001      21.340725      32.576013      21521.175      6658.9845      5586.0046      6530.5685     -258.33055     -1431.9322     -870.86865    
  61904000   258.44412     -420.38304     -333.82673     -420.30452      0              5880.8248      30.957001      21.340725      32.814133      21678.488      6067.9087      6628.3443      4946.2214      424.95473      760.13125     -1652.1731    
  61906000   264.41321     -418.84614     -330.29071     -418.77202      0              6224.6361      30.957001      21.340725      32.658458      21575.642      6798.9476      5527.616       6347.3448     -373.77865      928.76881     -405.81458    
  61908000   262.02103     -419.4364      -331.68214     -419.39369      0              5156.8717      30.957001      21.340725      32.794006      21665.191      6918.9519      2654.8532      5896.81       -2678.8118      530.00035      538.14349    
  61910000   257.40752     -423.3666      -337.15747     -423.2846       0              5842.0145      30.957001      21.340725      32.667686      21581.738      5542.0725      5876.9223      6107.0487      239.81075      457.35509      29.683528    
  61912000   266.60831     -420.83072     -331.54012     -420.79003      0              5687.1435      30.957001      21.340725      32.838318      21694.466      5277.8642      6611.3292      5172.2373      617.73659      1318.621      -277.12286    
  61914000   260.17157     -421.44675     -334.31189     -421.40511      0              5591.6144      30.957001      21.340725      32.688846      21595.718      6497.4608      5267.9214      5009.461       437.15322      116.01043      308.2149     
  61916000   256.46749     -421.99635     -336.10204     -421.9447       0              4048.4813      30.957001      21.340725      32.704678      21606.177      2889.209       6631.6303      2624.6047      1341.7291      636.10072     -510.69342    
  61918000   261.14535     -421.0763      -333.61532     -421.01233      0              8070.7574      30.957001      21.340725      32.499218      21470.441      5656.2378      9531.8381      9024.1965     -241.33877     -1155.783       299.68594    
  61920000   258.02153     -418.75266     -332.33788     -418.71121      0              6106.5429      30.957001      21.340725      32.72441       21619.213      7318.1659      6892.9401      4108.5226     -927.88851      1164.7418      1209.5113    
  61922000   255.02742     -417.73978     -332.32778     -417.70227      0              6031.8709      30.957001      21.340725      32.626993      21554.854      5449.395       6800.1855      5846.0321     -347.41871      1692.1997     -721.52035    
  61924000   258.55527     -418.36061     -331.76708     -418.3148       0              5700.4525      30.957001      21.340725      32.512536      21479.24       7637.3169      4316.4326      5147.6079     -2556.1512      397.83842     -1328.6265    
  61926000   263.17844     -423.91352     -335.77163     -423.87279      0              3551.5997      30.957001      21.340725      32.656559      21574.387      3180.9638      4293.8671      3179.9682      287.19091     -614.07753     -975.48153    
  61928000   257.45195     -417.83432     -331.61031     -417.79099      0              6023.1202      30.957001      21.340725      32.702096      21604.471      4248.651       6889.5299      6931.1796      3358.0106     -263.54075      793.45625    
  61930000   258.80471     -421.69429     -335.01722     -421.64664      0              7898.8046      30.957001      21.340725      32.602318      21538.553      7375.4181      9432.0241      6888.9715      531.97257     -1316.7973     -1963.4972    
  61932000   255.12937     -419.74136     -334.2952      -419.68537      0              4560.0227      30.957001      21.340725      32.723999      21618.941      4773.5709      5362.1296      3544.3676      247.58407      1003.8996      481.13743    
  61934000   266.20322     -420.09391     -330.93898     -420.05102      0              5257.3485      30.957001      21.340725      32.609441      21543.259      4633.7842      6010.8914      5127.3699      584.08907      1306.1614     -598.84516    
  61936000   265.23642     -421.06442     -332.23329     -421.02571      0              7378.255       30.957001      21.340725      32.849634      21701.941      6327.5538      6762.3014      9044.9098     -1860.8309      633.73687     -938.28253    
  61938000   262.74997     -422.9853      -334.98691     -422.91795      0              4908.5379      30.957001      21.340725      32.703983      21605.718      3570.3911      5726.7427      5428.4798     -370.4547      -1195.3299      626.6159     
  61940000   261.5144      -419.23886     -331.65428     -419.1822       0              7193.4687      30.957001      21.340725      32.639136      21562.877      6943.6145      5879.4635      8757.3282     -885.09746     -655.4104       181.87649    
  61942000   259.99709     -420.73542     -333.65901     -420.67498      0              6436.1899      30.957001      21.340725      32.791091      21663.265      7337.7154      8104.3748      3866.4794      214.62716      56.393843      358.75308    
[...]
  65858000   263.123       -415.29493     -327.17161     -415.29723      0              5942.8106      30.957001      21.340725      32.375907      21388.976      6427.4878      7337.4488      4063.4952     -916.58666      295.63215     -1346.3461    
  65860000   257.60332     -416.40097     -330.12626     -416.41702      0              6061.0561      30.957001      21.340725      32.450546      21438.286      6554.8335      5406.595       6221.7397      2370.3354     -1360.903       894.21593    
  65862000   253.47543     -416.22246     -331.33023     -416.22866      0              7561.8113      30.957001      21.340725      32.50701       21475.589      6914.4397      7832.8494      7938.1447      1496.3352     -564.0176       1347.6667    
  65864000   261.60568     -416.60863     -328.99348     -416.62395      0              6016.4831      30.957001      21.340725      32.561476      21511.571      6816.2742      6911.6407      4321.5342     -1299.4491     -189.75032     -426.46297    
  65866000   259.39349     -415.3164      -328.44214     -415.31295      0              6013.0859      30.957001      21.340725      32.312499      21347.086      7490.2612      4276.7608      6272.2357     -2367.7389     -1457.4606      2.8587717    
  65868000   261.32871     -416.60041     -329.07802     -416.61857      0              5021.1856      30.957001      21.340725      32.455688      21441.683      6172.9672      3775.1976      5115.3921     -1267.7218      607.46853     -523.89882    
  65870000   259.06991     -415.46067     -328.69478     -415.48031      0              9244.9615      30.957001      21.340725      32.418778      21417.299      11297.913      8604.4364      7832.5352     -820.68685      375.30362      114.83496    
  65872000   264.96609     -419.16174     -330.42114     -419.17929      0              5848.2364      30.957001      21.340725      32.623141      21552.31       5815.8033      6620.9973      5107.9087     -776.17544     -329.14731      266.78598    
  65874000   259.44333     -417.85652     -330.96557     -417.86286      0              6979.6883      30.957001      21.340725      32.565205      21514.035      7746.2885      5932.5646      7260.2117     -83.249598     -1685.4862      334.39719    
  65876000   267.16572     -415.14088     -325.6636      -415.15895      0              6259.6462      30.957001      21.340725      32.545488      21501.009      8169.7368      4549.0519      6060.1499      1393.3581      43.133361     -53.324078    
  65878000   262.96814     -414.25932     -326.18786     -414.2753       0              5343.7846      30.957001      21.340725      32.55544       21507.584      6266.1531      6204.9783      3560.2224     -771.65865     -103.86116     -754.29103    
  65880000   265.67965     -415.06917     -326.0896      -415.08518      0              6957.3233      30.957001      21.340725      32.555919      21507.9        6631.2407      6503.4211      7737.308       1031.2811      2450.3672     -1098.0691    
  65882000   256.26519     -416.43342     -330.60686     -416.44645      0              4021.0143      30.957001      21.340725      32.560479      21510.913      4162.2939      4212.4166      3688.3324      1015.291       507.23655     -205.08552    
  65884000   259.79315     -417.29194     -330.28383     -417.30452      0              4639.1599      30.957001      21.340725      32.666081      21580.678      5428.1106      3295.6904      5193.6788     -67.198998     -1936.9961      407.24793    
  65886000   258.46084     -419.21606     -332.65415     -419.24143      0              4580.0711      30.957001      21.340725      32.647283      21568.259      5497.5202      4689.9995      3552.6937     -127.94637     -18.123833      591.04122    
  65888000   256.65717     -420.00601     -334.04818     -420.0215       0              3738.0093      30.957001      21.340725      32.664389      21579.561      2059.5748      3187.9927      5966.4604     -126.16914      1057.9099      1252.6929    
  65890000   255.78569     -415.6376      -329.97163     -415.67312      0              5047.7466      30.957001      21.340725      32.362106      21379.858      6454.7976      4426.5868      4261.8556     -210.22059     -333.85666     -972.20638    
  65892000   263.07585     -415.97451     -327.86698     -415.99307      0              4023.4286      30.957001      21.340725      32.645914      21567.355      4258.3436      3400.4251      4411.517       530.80185     -1190.932      -237.39047    
  65894000   262.61226     -419.11644     -331.16417     -419.12337      0              6251.673       30.957001      21.340725      32.500027      21470.975      6613.6667      6075.8085      6065.5438      375.5996      -460.89494     -213.52073    
  65896000   262.72397     -417.01445     -329.02477     -417.02993      0              3943.0544      30.957001      21.340725      32.419754      21417.944      3529.2036      4184.1889      4115.7706      1185.9679      1728.4181     -657.96368    
  65898000   263.16205     -414.93762     -326.80122     -414.95481      0              4853.9804      30.957001      21.340725      32.554441      21506.924      6158.9465      4016.4654      4386.5293     -1064.6698      111.60922     -934.91999    
  65900000   263.47479     -419.58911     -331.34797     -419.60238      0              6213.278       30.957001      21.340725      32.43563       21428.431      7456.0853      5235.5341      5948.2144     -959.14858     -352.77236      564.86639    
  65902000   264.40695     -416.25857     -327.70523     -416.274        0              5648.0147      30.957001      21.340725      32.497585      21469.362      5592.1222      3430.4175      7921.5044     -1185.9305      1897.3902     -486.4535     
  65904000   258.69982     -417.56854     -330.9266      -417.58233      0              2467.0251      30.957001      21.340725      32.524117      21486.89       3087.775       1867.4793      2445.821       1532.4292     -21.194412      316.12304    
  65906000   261.63912     -417.79206     -330.16571     -417.80126      0              4275.5302      30.957001      21.340725      32.724116      21619.019      5505.51        4697.5367      2623.5437     -2790.1302     -988.10933      90.409969    
  65908000   258.75122     -417.15373     -330.49458     -417.1685       0              5072.8664      30.957001      21.340725      32.655805      21573.889      5647.4144      4543.7205      5027.4643     -242.28665      826.61892      503.65569    
  65910000   262.06823     -416.4561      -328.68603     -416.46358      0              7884.7001      30.957001      21.340725      32.440479      21431.635      7300.2365      7860.4896      8493.3743     -325.48551      1390.0036     -41.751775    
  65912000   260.30899     -418.17043     -330.98956     -418.18178      0              5749.2025      30.957001      21.340725      32.566813      21515.097      6561.8884      4420.8041      6264.9148     -397.63842     -350.52986      280.98715    
  65914000   263.22182     -418.61284     -330.45642     -418.62383      0              5938.2146      30.957001      21.340725      32.633921      21559.432      6896.664       6546.6225      4371.3575     -528.1087       564.79216     -955.1069     
  65916000   258.36656     -417.89797     -331.36764     -417.90623      0              6985.4815      30.957001      21.340725      32.508148      21476.341      6805.1438      8223.9261      5927.3746      323.35296     -1256.8572     -539.3066     
  65918000   255.06789     -419.57922     -334.15365     -419.59412      0              4878.2305      30.957001      21.340725      32.812688      21677.533      5391.0216      4363.3774      4880.2925      1593.7006     -687.8446      -197.31918    
  65920000   264.85142     -417.66516     -328.96296     -417.67619      0              7623.647       30.957001      21.340725      32.39589       21402.178      8236.2726      7247.546       7387.1223     -180.81424      1321.0764     -229.25152    
  65922000   261.75012     -419.30192     -331.63839     -419.31617      0              6752.544       30.957001      21.340725      32.470265      21451.313      7134.8424      6005.7413      7117.0484      452.42914     -1241.5585     -815.77442    
  65924000   260.8685      -419.7153      -332.34704     -419.70475      0              5296.3285      30.957001      21.340725      32.542425      21498.985      4862.8383      5808.8189      5217.3283     -126.92751     -602.12761     -1594.0251    
  65926000   268.08099     -418.91801     -329.13419     -418.93422      0              6627.7471      30.957001      21.340725      32.424927      21421.361      7830.0302      6530.1835      5523.0276     -787.1441      -555.24844     -555.70108    
  65928000   261.17154     -416.41405     -328.9443      -416.42899      0              6152.0894      30.957001      21.340725      32.527723      21489.272      8212.6289      4360.2844      5883.355       1219.8139     -731.21652     -88.759619    
  65930000   256.53825     -417.6434      -331.7254      -417.63717      0              6687.188       30.957001      21.340725      32.506888      21475.508      6588.885       6043.1428      7429.5361     -931.51311     -9.939429      -2049.9332    
  65932000   256.9154      -420.75457     -334.71025     -420.75648      0              5891.57        30.957001      21.340725      32.623987      21552.869      5915.9307      6505.3529      5253.4265      481.81679      678.77808     -0.98735787   
  65934000   256.41011     -420.08919     -334.2141      -420.09836      0              4098.7786      30.957001      21.340725      32.600772      21537.532      5974.6394      1825.1789      4496.5175      951.06646      817.64227     -1681.604     
  65936000   265.45526     -417.15952     -328.25509     -417.16303      0              7419.146       30.957001      21.340725      32.685473      21593.489      6190.8021      7393.5843      8673.0517     -1289.8123     -1364.1154     -289.31694    
  65938000   266.96703     -416.38481     -326.97408     -416.40063      0              4902.1584      30.957001      21.340725      32.994118      21797.394      6129.8989      6318.402       2258.1742      1793.2285     -63.334017     -345.35838    
  65940000   258.5327      -421.70176     -335.11579     -421.70622      0              7123.6676      30.957001      21.340725      32.609277      21543.151      7729.6607      6427.6612      7213.6809      1548.7952     -2459.3902     -411.69788    
  65942000   263.08918     -418.71488     -330.60288     -418.72958      0              6647.6858      30.957001      21.340725      32.639448      21563.083      3914.5879      8356.362       7672.1076      945.63132     -321.86091     -560.79687    
  65944000   261.28394     -416.15311     -328.64571     -416.17087      0              5200.1927      30.957001      21.340725      32.591224      21531.224      5812.2244      4261.3442      5527.0094     -1430.3612     -1203.7317      1031.9767    
  65946000   257.24725     -419.16132     -333.00586     -419.18522      0              4015.024       30.957001      21.340725      32.687246      21594.661      5023.7752      2968.7224      4052.5744     -780.55115     -557.99058     -1580.8039    
  65948000   265.42259     -418.12196     -329.22847     -418.12201      0              8115.9032      30.957001      21.340725      32.58889       21529.682      7428.6432      9227.2372      7691.8293      2085.7812     -1390.0262     -1335.2137    
  65950000   261.29921     -419.28754     -331.77503     -419.2922       0              6472.6379      30.957001      21.340725      32.378385      21390.613      8652.2777      5474.1568      5291.4792      115.10832     -1557.6513     -1302.5608    
  65952000   254.34831     -417.88791     -332.70334     -417.89528      0              6194.6257      30.957001      21.340725      32.456711      21442.359      6663.4732      8728.956       3191.4479      1177.5722     -456.2695      -1556.1892    
  65954000   256.53596     -417.99449     -332.07725     -418.00135      0              6312.3945      30.957001      21.340725      32.580297      21524.005      5731.3082      4676.407       8529.4683      551.94126     -819.1326      -85.242915    
  65956000   261.04001     -420.26        -332.8343      -420.26272      0              4660.0887      30.957001      21.340725      32.599854      21536.925      4061.2232      4796.7452      5122.2976      153.28298      110.42075     -857.35816    
  65958000   265.75447     -418.60963     -329.605       -418.61471      0              5303.5605      30.957001      21.340725      32.624893      21553.468      6666.7621      4736.3568      4507.5627      1099.2118      694.94708     -443.12649    
  65960000   249.60065     -421.30847     -337.71396     -421.31736      0              4713.0164      30.957001      21.340725      32.632851      21558.725      5246.733       5803.9802      3088.336       1334.7475      260.24095     -707.3029     
  65962000   257.60199     -417.18242     -330.90815     -417.19068      0              4928.6424      30.957001      21.340725      32.748319      21635.008      4469.7826      5807.9932      4508.1514      395.98755     -591.09855      739.32316    
  65964000   261.52136     -416.42962     -328.8427      -416.43244      0              6064.3638      30.957001      21.340725      32.763345      21644.935      8068.5557      4854.581       5269.9547      516.42131      869.73851     -99.593412    
  65966000   257.47642     -418.43671     -332.2045      -418.42821      0              4479.7381      30.957001      21.340725      32.586915      21528.378      4006.6131      4254.8991      5177.702       697.96853     -133.61237     -315.86671    
  65968000   252.42341     -420.32171     -335.78182     -420.31669      0              5683.6682      30.957001      21.340725      32.590793      21530.94       4195.8561      6468.3307      6386.818       172.5469      -81.01218      -456.27615    
  65970000   260.43674     -417.66021     -330.43656     -417.6709       0              5421.6287      30.957001      21.340725      32.560962      21511.231      6459.3236      5589.8652      4215.6974     -534.06712     -349.83954     -1122.0289    
  65972000   258.49533     -419.95319     -333.37973     -419.96632      0              6097.9702      30.957001      21.340725      32.554448      21506.928      6121.8928      5194.5055      6977.5124      1275.6118     -1069.1452     -449.43223    
  65974000   253.41327     -419.80241     -334.931       -419.81545      0              3973.1041      30.957001      21.340725      32.617177      21548.37       4486.8177      3853.7434      3578.7513     -93.786005      1212.346      -372.15035    
  65976000   258.17241     -420.51893     -334.05362     -420.51084      0              7628.7082      30.957001      21.340725      32.383716      21394.135      7419.2418      8070.5671      7396.3157      719.39208      289.59703      505.16468    
  65978000   256.516       -421.5195      -335.60895     -421.51039      0              6398.4254      30.957001      21.340725      32.393145      21400.364      5885.6467      5054.9102      8254.7192      346.7835       565.59873     -49.917446    
  65980000   260.86896     -418.50832     -331.1399      -418.50677      0              5001.3478      30.957001      21.340725      32.535962      21494.715      4468.9299      3721.4639      6813.6496     -355.18521      1923.834       818.24553    
  65982000   260.34828     -417.80566     -330.61162     -417.82194      0              6766.7944      30.957001      21.340725      32.370972      21385.716      7674.8104      5949.7819      6675.791       490.99373      850.53362     -1295.7991    
  65984000   258.10066     -420.58734     -334.14607     -420.59102      0              8006.991       30.957001      21.340725      32.475818      21454.982      7703.5837      8488.835       7828.5545     -287.58097     -745.73432     -18.584201    
  65986000   262.98608     -420.50747     -332.43        -420.52346      0              5147.2916      30.957001      21.340725      32.765251      21646.194      5589.4928      4723.2936      5129.0883     -245.15517     -1024.8042     -301.35353    
  65988000   256.11991     -419.72964     -333.95175     -419.73845      0              7237.6183      30.957001      21.340725      32.722867      21618.193      5367.1256      8701.1037      7644.6256     -91.504072     -624.17975      858.1873     
  65990000   256.56319     -420.90979     -334.98344     -420.89735      0              5599.9163      30.957001      21.340725      32.792914      21664.469      5018.0293      6738.7056      5043.0142     -356.1745      -67.616534      37.88659     
  65992000   260.55093     -419.42996     -332.16805     -419.43395      0              5479.2732      30.957001      21.340725      32.770866      21649.903      3924.0517      4742.339       7771.4288      1809.8695      444.41865     -403.34302    
  65994000   260.86969     -420.76803     -333.39937     -420.76607      0              6216.7541      30.957001      21.340725      32.622304      21551.757      6964.4521      7288.4712      4397.3389     -480.68192      899.33697      205.27976    
  65996000   265.91996     -417.37056     -328.31049     -417.37297      0              6995.2035      30.957001      21.340725      32.736043      21626.898      6869.4842      5911.0068      8205.1196      500.39264      4.9495438      1230.6097    
  65998000   257.94552     -419.78256     -333.39324     -419.77511      0              5496.8384      30.957001      21.340725      32.615775      21547.444      5299.5197      5731.406       5459.5895      1752.3515      407.43738      414.61174    
  66000000   261.40278     -420.65893     -333.11173     -420.66253      0              6250.5491      30.957001      21.340725      32.64185       21564.67       6218.1057      5317.1146      7216.427      -1636.2627     -1561.5054      1931.9712    
Loop time of 51808.7 on 4 procs for 4626000 steps with 2592 atoms

Performance: 3.857 ns/day, 6.222 hours/ns, 89.290 timesteps/s
1489.0% CPU use with 4 MPI tasks x no OpenMP threads

MPI task timing breakdown:
Section |  min time  |  avg time  |  max time  |%varavg| %total
---------------------------------------------------------------
Pair    | 12983      | 13043      | 13130      |  49.2 | 25.18
Bond    | 0.46174    | 0.49707    | 0.53575    |   3.8 |  0.00
Neigh   | 389.67     | 398        | 403.94     |  27.7 |  0.77
Comm    | 1435.1     | 1528.8     | 1586.2     | 152.4 |  2.95
Output  | 2219.8     | 2219.8     | 2219.9     |   0.1 |  4.28
Modify  | 34605      | 34606      | 34607      |   0.4 | 66.79
Other   |            | 12.87      |            |       |  0.02

Nlocal:            648 ave         651 max         643 min
Histogram: 1 0 0 0 0 1 0 0 0 2
Nghost:           4243 ave        4254 max        4227 min
Histogram: 1 0 0 1 0 0 0 0 0 2
Neighs:              0 ave           0 max           0 min
Histogram: 4 0 0 0 0 0 0 0 0 0
FullNghs:       166806 ave      168839 max      164509 min
Histogram: 1 1 0 0 0 0 0 0 0 2

Total # of neighbors = 667222
Ave neighs/atom = 257.4159
Ave special neighs/atom = 0
Neighbor list builds = 92520
Dangerous builds not checked
unfix 3
unfix 1
unfix 2


# Finalize simulation
write_restart	restart.lmp.${pid}
write_restart	restart.lmp.0
System init for write_restart ...
Generated 0 of 1 mixed pair_coeff terms from geometric mixing rule
write_data	data.final.${pid} nocoeff
write_data	data.final.0 nocoeff
System init for write_data ...
Generated 0 of 1 mixed pair_coeff terms from geometric mixing rule
Total wall time: 14:23:44
