LAMMPS (23 Jun 2022)
include procedure.lmp
echo both
include		in.partitions
variable        pid world 0
include		in.temp
variable	temperature equal 260
variable        tempDamp equal 0.100 # this is 0.1 ps
include		in.pressure
variable        pressure equal 6079.5
variable        pressureDamp equal 1.0 #this is 1ps

variable	barostat string	   tri
variable	direction string   z
variable	direction_x_bool equal 0
variable	direction_y_bool equal 0
variable	direction_z_bool equal 1

include		in.seed
variable        seed world 745823

units           metal
atom_style	full
box tilt large
read_restart 	restart.lmp.${pid}
read_restart 	restart.lmp.0
Reading restart file ...
  restart file = 23 Jun 2022, LAMMPS = 23 Jun 2022
  restoring atom style full from restart
  triclinic box = (0 0 -0.78000421) to (30.957001 21.340725 31.645168) with tilt (-9.151055 1.0554844 -10.734211)
WARNING: Triclinic box skew is large (../domain.cpp:224)
  2 by 1 by 2 MPI processor grid
Summary of lammps deepmd module ...
  >>> Info of deepmd-kit:
  installed to:       /u/sigbjobo/software/DEEPMD_FROM_SOURCE/deepmd-kit/install
  source:             v2.1.3
  source branch:       master
  source commit:      5a32c49
  source commit at:   2022-07-01 09:52:58 +0800
  surpport model ver.:1.1 
  build float prec:   double
  build with tf inc:  /u/sigbjobo/software/DEEPMD_FROM_SOURCE/tensorflow/install/include;/u/sigbjobo/software/DEEPMD_FROM_SOURCE/tensorflow/install/include
  build with tf lib:  /u/sigbjobo/software/DEEPMD_FROM_SOURCE/tensorflow/install/lib/libtensorflow_cc.so;/u/sigbjobo/software/DEEPMD_FROM_SOURCE/tensorflow/install/lib/libtensorflow_framework.so
  set tf intra_op_parallelism_threads: 0
  set tf inter_op_parallelism_threads: 0
  >>> Info of lammps module:
  use deepmd-kit at:  /u/sigbjobo/software/DEEPMD_FROM_SOURCE/deepmd-kit/install
  source:             v2.1.3
  source branch:      master
  source commit:      5a32c49
  source commit at:   2022-07-01 09:52:58 +0800
  build float prec:   double
  build with tf inc:  /u/sigbjobo/software/DEEPMD_FROM_SOURCE/tensorflow/install/include;/u/sigbjobo/software/DEEPMD_FROM_SOURCE/tensorflow/install/include
  build with tf lib:  /u/sigbjobo/software/DEEPMD_FROM_SOURCE/tensorflow/install/lib/libtensorflow_cc.so;/u/sigbjobo/software/DEEPMD_FROM_SOURCE/tensorflow/install/lib/libtensorflow_framework.so
  restoring pair style deepmd from restart
  2592 atoms
Finding 1-2 1-3 1-4 neighbors ...
  special bond factors lj:    0        0        0       
  special bond factors coul:  0        0        0       
     0 = max # of 1-2 neighbors
     0 = max # of 1-3 neighbors
     0 = max # of 1-4 neighbors
     1 = max # of special neighbors
  special bonds CPU = 0.000 seconds
  read_restart CPU = 0.005 seconds
include 	in.setup
variable	out_freq equal 2000
variable	out_freq2 equal 2000

timestep        0.0005

neigh_modify    delay 7 every 1

include         in.deepmd
# This is deepMD model

# create groups ###
#group ox type 2
#group hy type 1

mass 2 15.999
mass 1 1.008

pair_style      deepmd ../graph.pb
pair_coeff      * *

bond_style      none
angle_style     none
dihedral_style  none
improper_style  none
neigh_modify exclude none


neighbor        2.0 bin
neigh_modify    every 50 delay 0 check no

thermo          ${out_freq}
thermo          2000
thermo_style 	custom step temp pe etotal epair emol press lx ly lz vol pxx pyy pzz pxy pxz pyz

restart 	${out_freq} restart.lmp.${pid} restart2.lmp.${pid}
restart 	2000 restart.lmp.${pid} restart2.lmp.${pid}
restart 	2000 restart.lmp.0 restart2.lmp.${pid}
restart 	2000 restart.lmp.0 restart2.lmp.0


timer           timeout 23:50:00 every 1000
New timer settings: style=normal  mode=nosync  timeout=23:50:00


# Set number of time steps
variable 	nsteps_wall		equal	 6000000
variable 	nsteps_enhanced_coex    equal	100000000

variable     nsteps_enhanced_coex_upto equal (${nsteps_wall}+${nsteps_enhanced_coex})
variable     nsteps_enhanced_coex_upto equal (6000000+${nsteps_enhanced_coex})
variable     nsteps_enhanced_coex_upto equal (6000000+100000000)


# Set temperature for first step
if "$(step) < 1  " then    "velocity 	all create ${temperature} ${seed} dist gaussian"


# Always run thermo and barostat


######################################
# Run simulation with wall potential #
######################################
if " $(step) < ${nsteps_wall} " then    "fix             3 all plumed plumedfile plumed.equil.dat outfile plumed.equil.out"   "fix             1 all nph ${direction} ${pressure} ${pressure} ${pressureDamp}"   "fix             2 all temp/csvr ${temperature} ${temperature} ${tempDamp} ${seed}"   "run             ${nsteps_wall} upto"
if " $(step) == ${nsteps_wall} " then    "unfix 3"   "unfix 1"   "unfix 2"


############################
# Run enhanced coesistence #
############################
if "$(step) == ${nsteps_wall}" then    "fix             3 all plumed plumedfile plumed.start.dat outfile plumed.out" else    "fix             3 all plumed plumedfile plumed.dat outfile plumed.out"
fix             3 all plumed plumedfile plumed.dat outfile plumed.out

if "$(step) < ${nsteps_enhanced_coex_upto} && $(step) >= ${nsteps_wall} " then    "include         in.dump"    "fix             1 all nph ${direction} ${pressure} ${pressure} ${pressureDamp}"   "fix             2 all temp/csvr ${temperature} ${temperature} ${tempDamp} ${seed}"   "run             ${nsteps_enhanced_coex_upto} upto"    "unfix 3"   "unfix 1"   "unfix 2"
include         in.dump
dump            myDump all atom ${out_freq2} dump.water.${pid}
dump            myDump all atom 2000 dump.water.${pid}
dump            myDump all atom 2000 dump.water.0
dump            myDump2 all dcd ${out_freq2} dump.${pid}.dcd
dump            myDump2 all dcd 2000 dump.${pid}.dcd
dump            myDump2 all dcd 2000 dump.0.dcd
dump_modify     myDump append yes
dump_modify     myDump2 append yes

fix             1 all nph ${direction} ${pressure} ${pressure} ${pressureDamp}
fix             1 all nph z ${pressure} ${pressure} ${pressureDamp}
fix             1 all nph z 6079.5 ${pressure} ${pressureDamp}
fix             1 all nph z 6079.5 6079.5 ${pressureDamp}
fix             1 all nph z 6079.5 6079.5 1
fix             2 all temp/csvr ${temperature} ${temperature} ${tempDamp} ${seed}
fix             2 all temp/csvr 260 ${temperature} ${tempDamp} ${seed}
fix             2 all temp/csvr 260 260 ${tempDamp} ${seed}
fix             2 all temp/csvr 260 260 0.1 ${seed}
fix             2 all temp/csvr 260 260 0.1 745823
run             ${nsteps_enhanced_coex_upto} upto
run             106000000 upto

CITE-CITE-CITE-CITE-CITE-CITE-CITE-CITE-CITE-CITE-CITE-CITE-CITE

Your simulation uses code contributions which should be cited:

- USER-DEEPMD package:

@article{Wang_ComputPhysCommun_2018_v228_p178,
  author = {Wang, Han and Zhang, Linfeng and Han, Jiequn and E, Weinan},
  doi = {10.1016/j.cpc.2018.03.016},
  url = {https://doi.org/10.1016/j.cpc.2018.03.016},
  year = 2018,
  month = {jul},
  publisher = {Elsevier {BV}},
  volume = 228,
  journal = {Comput. Phys. Commun.},
  title = {{DeePMD-kit: A deep learning package for many-body potential energy representation and molecular dynamics}},
  pages = {178--184}
}

CITE-CITE-CITE-CITE-CITE-CITE-CITE-CITE-CITE-CITE-CITE-CITE-CITE

Generated 0 of 1 mixed pair_coeff terms from geometric mixing rule
Neighbor list info ...
  update every 50 steps, delay 0 steps, check no
  max neighbors/atom: 2000, page size: 100000
  master list distance cutoff = 8
  ghost atom cutoff = 8
  binsize = 4, bins = 11 9 9
  1 neighbor lists, perpetual/occasional/extra = 1 0 0
  (1) pair deepmd, perpetual
      attributes: full, newton on
      pair build: full/bin
      stencil: full/bin/3d
      bin: standard
Per MPI rank memory allocation (min/avg/max) = 7.312 | 7.312 | 7.313 Mbytes
   Step          Temp          PotEng         TotEng         E_pair         E_mol          Press            Lx             Ly             Lz           Volume          Pxx            Pyy            Pzz            Pxy            Pxz            Pyz      
  95644000   249.18792     -420.04005     -336.58377     -420.04005      0              6509.1845      30.957001      21.340725      32.425172      21421.523      6746.2013      5473.2835      7308.0686      476.34327     -1159.9918     -423.38778    
  95646000   261.7187      -419.11702     -331.46402     -419.08015      0              7165.8595      30.957001      21.340725      32.353087      21373.9        8858.6669      6696.3374      5942.5741     -1031.351       316.46807      1184.4767    
  95648000   257.14646     -421.25182     -335.13012     -421.19699      0              5563.1981      30.957001      21.340725      32.272547      21320.692      4230.6946      5581.9005      6876.9992      115.50135      765.72633     -1255.3218    
  95650000   265.13693     -422.84827     -334.05046     -422.81639      0              8099.2021      30.957001      21.340725      32.45027       21438.104      8318.7448      8144.0137      7834.8477     -389.0971      -487.99584     -90.580393    
  95652000   253.99857     -418.88095     -333.81351     -418.85522      0              4401.1565      30.957001      21.340725      32.658758      21575.84       5983.7339      2892.2661      4327.4696     -1886.6443     -489.208        1347.6307    
  95654000   263.98898     -417.93727     -329.52391     -417.92185      0              5881.9154      30.957001      21.340725      32.753423      21638.38       6153.1021      5116.8483      6375.7958     -449.17403     -539.64831      2376.7915    
  95656000   260.47124     -418.23562     -331.00041     -418.19733      0              7530.873       30.957001      21.340725      32.566245      21514.722      6935.1128      7974.1989      7683.3073     -311.93143     -621.02371      715.63151    
  95658000   252.99594     -419.22696     -334.49532     -419.20585      0              5504.8975      30.957001      21.340725      32.674994      21586.567      6881.4747      4966.4372      4666.7807     -761.47182      63.811393     -273.21451    
  95660000   259.16711     -420.14746     -333.34901     -420.10655      0              8286.46        30.957001      21.340725      32.600068      21537.067      8399.0421      7189.6383      9270.6997     -156.14916      1046.7561     -271.85385    
  95662000   255.41475     -421.11421     -335.57248     -421.08512      0              6045.1275      30.957001      21.340725      32.653594      21572.428      4681.8016      8915.5269      4538.0539      1624.4137     -660.8485      -1944.6955    
  95664000   250.38554     -419.32824     -335.47086     -419.29676      0              8503.335       30.957001      21.340725      32.583111      21525.864      9626.3629      8415.2631      7468.3788     -806.93441     -597.41278      11.971523    
  95666000   258.24538     -420.03327     -333.54353     -419.99531      0              4727.3823      30.957001      21.340725      32.28285       21327.498      4111.3422      5848.9962      4221.8085     -172.98723     -398.3686       833.98486    
  95668000   262.23304     -417.87991     -330.05465     -417.85467      0              5535.6356      30.957001      21.340725      32.491628      21465.426      4643.0305      5060.8591      6903.0173      787.55927      827.05413      765.1031     
  95670000   265.60823     -416.98045     -328.02479     -416.96562      0              6155.7225      30.957001      21.340725      32.552684      21505.763      5923.4106      6941.7589      5601.998      -525.60349     -751.99915     -383.73966    
  95672000   256.14774     -418.48457     -332.69735     -418.45932      0              5106.548       30.957001      21.340725      32.39703       21402.931      3148.5995      5052.2433      7118.8012     -736.66081      1587.5509      282.42735    
  95674000   273.36435     -416.79004     -325.23676     -416.78398      0              8502.8431      30.957001      21.340725      32.53306       21492.799      8610.0979      8522.2924      8376.1389     -1003.6363      520.09506     -90.564999    
  95676000   259.15055     -419.12764     -332.33475     -419.08152      0              7070.3509      30.957001      21.340725      32.292304      21333.744      5155.3306      5974.4081      10081.314     -14.011491      754.43387      1238.5695    
  95678000   253.50738     -420.3543      -335.45137     -420.31866      0              6595.5693      30.957001      21.340725      32.519182      21483.63       5718.699       6460.3806      7607.6283     -671.46059      140.92673     -37.56955     
  95680000   252.94423     -418.20528     -333.49096     -418.16971      0              6615.1085      30.957001      21.340725      32.56219       21512.043      8097.7931      6448.6807      5298.8517      623.37477      619.4908       101.27462    
  95682000   260.35379     -417.30437     -330.10849     -417.27205      0              4490.5739      30.957001      21.340725      32.542356      21498.94       5259.045       4531.8922      3680.7846      576.60593     -608.69483      33.152608    
  95684000   255.60658     -418.0923      -332.48633     -418.07179      0              3433.2171      30.957001      21.340725      32.533419      21493.035      4627.8311      3001.8456      2669.9745      67.626653     -451.78027     -1144.1415    
  95686000   262.56565     -419.67283     -331.73617     -419.6122       0              5813.6285      30.957001      21.340725      32.473643      21453.545      4908.7933      5399.623       7132.4691     -491.16599      1319.3494      1473.0583    
  95688000   252.87535     -419.13686     -334.44561     -419.10333      0              6282.5724      30.957001      21.340725      32.48139       21458.663      7234.391       3581.2801      8032.046      -485.2553       826.00154     -557.48356    
  95690000   257.54021     -418.37401     -332.12043     -418.34592      0              6365.2045      30.957001      21.340725      32.61382       21546.152      6001.1571      5905.8256      7188.631       663.67107     -244.74199      1271.1865    
  95692000   259.48655     -420.85615     -333.95072     -420.82212      0              5117.1876      30.957001      21.340725      32.608181      21542.427      3845.9765      5766.8368      5738.7495     -577.86008     -1671.9394      687.21089    
  95694000   266.44196     -418.8843      -329.64942     -418.86599      0              5150.1496      30.957001      21.340725      32.797523      21667.514      2644.2556      5627.1124      7179.0809      297.37467      993.17652      1198.1339    
  95696000   257.28532     -421.3018      -335.13359     -421.26979      0              6322.9752      30.957001      21.340725      32.646991      21568.066      9233.949       3799.4672      5935.5093      636.32721     -688.32591      772.7017     
  95698000   264.38242     -418.31132     -329.7662      -418.29171      0              5129.4702      30.957001      21.340725      32.787495      21660.89       8103.237       2876.0197      4409.1539      2184.7283      16.576349      820.9553     
  95700000   263.43927     -418.93297     -330.70373     -418.91394      0              4557.524       30.957001      21.340725      32.706872      21607.626      4214.6504      4493.7107      4964.2109      33.624777      574.64314     -1520.1374    
  95702000   259.34503     -420.41044     -333.55241     -420.3862       0              6061.7515      30.957001      21.340725      32.532945      21492.722      5515.1235      5787.3247      6882.8062      186.12798      1094.0213      544.04224    
  95704000   258.88422     -420.27694     -333.57323     -420.22218      0              6931.3538      30.957001      21.340725      32.57884       21523.043      8371.5275      6495.9273      5926.6066     -848.59024      2346.2596     -1131.6964    
  95706000   265.32226     -421.23893     -332.37905     -421.20215      0              4911.2643      30.957001      21.340725      32.612725      21545.428      6231.295       6109.1241      2393.3739      1913.3574     -1403.0871     -570.05185    
  95708000   266.47473     -419.94139     -330.69553     -419.90504      0              6539.667       30.957001      21.340725      32.676482      21587.55       8305.6459      6684.6394      4628.7157      1749.0242     -709.9215      -589.98693    
  95710000   263.56248     -418.07009     -329.79957     -418.02519      0              6496.6938      30.957001      21.340725      32.502493      21472.604      5882.8378      5613.4785      7993.765      -572.06447      609.00388     -142.32305    
  95712000   253.59085     -420.39303     -335.46215     -420.34268      0              5750.8355      30.957001      21.340725      32.446167      21435.393      6192.4984      4952.623       6107.385       960.99936     -138.26154     -1317.7352    
  95714000   257.83855     -420.87493     -334.52144     -420.81365      0              6814.5777      30.957001      21.340725      32.501697      21472.078      6196.225       7274.1574      6973.3508     -1448.7459      118.67121     -2599.8399    
  95716000   259.44284     -416.52715     -329.63636     -416.49713      0              5339.1146      30.957001      21.340725      32.620001      21550.236      6693.5954      3928.193       5395.5555      921.96098     -1408.4792     -701.42623    
  95718000   261.49955     -419.44924     -331.86963     -419.40042      0              3762.0063      30.957001      21.340725      32.474087      21453.838      5962.9315      2095.2812      3227.8062     -182.04548      671.47641     -166.65754    
  95720000   257.53242     -419.37243     -333.12147     -419.32847      0              5786.0165      30.957001      21.340725      32.583057      21525.828      5621.7274      7034.3316      4701.9907      1058.8597     -638.76171      1011.9245    
  95722000   263.67827     -417.77949     -329.4702      -417.74459      0              5028.4373      30.957001      21.340725      32.724032      21618.963      6085.6034      4761.6679      4238.0405     -32.410239     -699.71468     -65.164511    
  95724000   260.80059     -420.60558     -333.26007     -420.58247      0              5791.8923      30.957001      21.340725      32.679596      21589.607      6332.5854      5657.8313      5385.2603      438.31002      457.34679      493.53387    
  95726000   256.43746     -421.91281     -336.02856     -421.88539      0              4422.59        30.957001      21.340725      32.612256      21545.119      3982.5394      4106.0232      5179.2075     -548.50763      637.33129      346.63248    
  95728000   268.03097     -421.02374     -331.25668     -420.95987      0              6838.235       30.957001      21.340725      32.572272      21518.704      6159.1677      7580.1126      6775.4248     -152.95383      844.99915      349.62484    
  95730000   259.58013     -419.85794     -332.92117     -419.81919      0              6175.4387      30.957001      21.340725      32.596052      21534.414      5764.0469      5952.6966      6809.5725     -997.6361       846.40248      827.8597     
  95732000   257.09503     -417.04948     -330.945       -417.00345      0              6229.0185      30.957001      21.340725      32.720625      21616.712      7754.301       5473.8221      5458.9323      550.79408     -791.15943     -352.79038    
  95734000   254.15117     -421.65447     -336.53593     -421.61409      0              6104.9612      30.957001      21.340725      32.564501      21513.57       5943.0866      6373.2506      5998.5463      1454.6014      2142.2825      747.51447    
  95736000   259.94003     -418.67875     -331.62144     -418.64052      0              5026.7267      30.957001      21.340725      32.65502       21573.371      4246.0156      5150.4123      5683.752      -1188.7504      1359.9365      589.79697    
  95738000   260.10593     -420.59611     -333.48325     -420.55154      0              5868.9349      30.957001      21.340725      32.57304       21519.211      5426.9986      4727.5711      7452.2349      708.0797      -108.70154      757.68944    
  95740000   260.30001     -420.64463     -333.46676     -420.59168      0              3531.8937      30.957001      21.340725      32.569277      21516.725      3400.0266      4168.8817      3026.7729     -172.7402       1595.6643     -1325.1139    
  95742000   259.48421     -421.10084     -334.19619     -421.06327      0              5901.4833      30.957001      21.340725      32.439753      21431.155      4877.381       6283.3281      6543.7407     -1117.973       2500.203       1276.2894    
  95744000   260.66141     -419.30653     -332.00763     -419.28521      0              5362.6847      30.957001      21.340725      32.654998      21573.356      5755.8091      5452.8348      4879.4103     -75.761031     -339.72586     -1548.075     
  95746000   260.74443     -420.37819     -333.05148     -420.34372      0              5980.0085      30.957001      21.340725      32.56481       21513.774      5640.5344      6875.5518      5423.9392      448.13419      1138.9865     -566.47068    
  95748000   259.20131     -419.04729     -332.23739     -419.00303      0              4053.1583      30.957001      21.340725      32.578452      21522.787      2668.0086      7533.8181      1957.6481     -193.78144      443.36713     -1088.0352    
  95750000   263.84786     -420.38124     -332.01515     -420.33548      0              6278.5368      30.957001      21.340725      32.591507      21531.411      5915.7054      7901.246       5018.6592      496.54903      1781.2185      329.43641    
  95752000   263.20967     -419.42274     -331.27039     -419.39895      0              8318.8563      30.957001      21.340725      32.616698      21548.053      8818.1226      8267.1822      7871.2643     -1629.4754      288.28431      769.32806    
  95754000   261.00966     -418.80407     -331.38853     -418.78149      0              6248.0696      30.957001      21.340725      32.505958      21474.894      5558.2592      6819.1281      6366.8216      1224.0205      186.18865      206.41395    
  95756000   257.09583     -418.81636     -332.71162     -418.77933      0              5078.414       30.957001      21.340725      32.391456      21399.248      5719.1682      6963.0454      2553.0283     -289.51322      928.27299      355.12322    
  95758000   259.95651     -418.53104     -331.46822     -418.48412      0              5687.2574      30.957001      21.340725      32.385135      21395.073      6582.1297      5448.1671      5031.4753     -619.52824      910.61552     -962.4413     
  95760000   262.06497     -421.30691     -333.53793     -421.25417      0              5789.3957      30.957001      21.340725      32.517209      21482.327      5069.6828      6126.4751      6172.0291      298.89983      743.44381     -462.07306    
  95762000   256.7741      -419.48915     -333.49215     -419.43353      0              7378.1827      30.957001      21.340725      32.44078       21431.834      7726.9013      7747.6485      6659.9983      626.43086      1524.872      -1325.7511    
  95764000   259.15329     -419.7178      -332.92398     -419.67068      0              7343.4224      30.957001      21.340725      32.588286      21529.283      5989.1358      8360.5874      7680.544       464.92443      1459.6282     -566.62016    
  95766000   261.71476     -420.69577     -333.04408     -420.64303      0              7388.9232      30.957001      21.340725      32.600171      21537.135      6156.5457      7142.331       8867.8928     -620.52415     -316.51164      853.89268    
  95768000   262.14137     -419.48258     -331.68802     -419.43821      0              6774.0422      30.957001      21.340725      32.609944      21543.591      7297.0774      7141.4271      5883.6221     -280.98078      588.24941      979.5201     
  95770000   264.95812     -420.71457     -331.97664     -420.67647      0              4979.3091      30.957001      21.340725      32.712456      21611.315      3269.4686      4665.9679      7002.4909     -1760.4282     -95.784677     -504.6535     
  95772000   259.81188     -421.33207     -334.31768     -421.28483      0              6703.2878      30.957001      21.340725      32.718224      21615.126      6231.9111      7085.5152      6792.4372     -593.92716     -856.35565     -843.23481    
  95774000   252.46415     -418.52922     -333.97568     -418.46589      0              3657.934       30.957001      21.340725      32.787407      21660.831      2638.5049      2099.7582      6235.5389     -943.69637      437.01507      2120.7413    
  95776000   257.39225     -420.55017     -334.34615     -420.50009      0              5982.1003      30.957001      21.340725      32.600927      21537.635      7037.864       5507.6991      5400.7379      1409.2126      284.84503     -708.73765    
  95778000   259.64667     -421.04777     -334.08872     -420.99123      0              5678.1663      30.957001      21.340725      32.568206      21516.017      4342.7877      6395.8305      6295.8807      701.50586      150.85153      517.4945     
  95780000   252.27969     -420.06404     -335.57228     -420.02224      0              4914.3266      30.957001      21.340725      32.482656      21459.499      5647.038       4319.5634      4776.3786     -750.00898      1830.8875     -808.44498    
  95782000   262.28481     -420.13859     -332.29599     -420.12128      0              4515.5201      30.957001      21.340725      32.775774      21653.146      5835.0798      3812.0166      3899.4638     -620.45883      404.50304     -726.75939    
  95784000   263.96228     -419.69793     -331.29352     -419.66156      0              5170.645       30.957001      21.340725      32.830245      21689.132      7839.882       3705.4367      3966.6163     -346.77368      1367.1342     -1154.599     
  95786000   268.41296     -423.89198     -333.99698     -423.86339      0              5980.3015      30.957001      21.340725      32.742636      21631.253      6327.0543      4546.4619      7067.3884     -1575.8113     -34.379434     -747.60338    
  95788000   259.48354     -419.96198     -333.05756     -419.92169      0              5589.0484      30.957001      21.340725      32.938307      21760.523      6130.2334      5147.7557      5489.1561      1890.6983     -390.27775     -123.41683    
  95790000   256.81447     -420.91267     -334.90216     -420.86234      0              6169.3548      30.957001      21.340725      32.822686      21684.138      5950.1306      5477.8928      7080.0411     -745.46716      119.65759      276.0368     
  95792000   253.09716     -419.15299     -334.38745     -419.0996       0              5170.1412      30.957001      21.340725      32.698586      21602.152      6002.6681      3070.4982      6437.2574      1332.2943      690.38266     -678.5361     
  95794000   257.10278     -421.50271     -335.39564     -421.462        0              6014.1335      30.957001      21.340725      32.788375      21661.471      5902.0012      6013.5325      6126.8667     -417.73269      672.27422      1268.3077    
  95796000   258.74035     -420.92318     -334.26766     -420.89035      0              5572.7604      30.957001      21.340725      32.600562      21537.393      5781.3898      4686.7196      6250.1717     -1.1834947      709.49451      773.94845    
  95798000   262.31636     -421.3526      -333.49944     -421.31424      0              6773.5059      30.957001      21.340725      32.625876      21554.116      6307.9971      6558.5312      7453.9894      206.66488      1315.815       1735.2274    
  95800000   256.54207     -423.51218     -337.59289     -423.44306      0              7297.8868      30.957001      21.340725      32.475734      21454.926      6307.4885      6750.2573      8835.9146     -961.28669      666.0819      -541.82453    
  95802000   253.19775     -421.82404     -337.02481     -421.74283      0              5899.0718      30.957001      21.340725      32.543647      21499.792      6824.9792      5089.4591      5782.7771     -508.53233     -61.017884     -292.19073    
  95804000   256.93122     -420.33437     -334.28476     -420.25423      0              5944.4377      30.957001      21.340725      32.595789      21534.24       5604.1861      7865.698       4363.429       1140.9757      167.02491     -1906.4246    
  95806000   266.02284     -422.81934     -333.72482     -422.74531      0              4292.1099      30.957001      21.340725      32.58313       21525.877      2457.7462      4840.9764      5577.607       226.00415      1908.2624     -662.23592    
  95808000   265.46525     -422.05879     -333.15102     -421.99303      0              6739.911       30.957001      21.340725      32.42299       21420.081      6228.562       7048.0788      6943.0922     -748.7796      -404.81072      650.85636    
  95810000   263.45658     -421.27481     -333.03977     -421.2245       0              5377.4361      30.957001      21.340725      32.630585      21557.228      3856.0597      4790.2102      7486.0384     -308.45511     -257.51529     -1061.3186    
  95812000   262.74089     -423.24196     -335.24662     -423.15396      0              6994.8439      30.957001      21.340725      32.705987      21607.042      7054.5287      6790.8698      7139.1333      932.21641      1448.0517      1860.0248    
  95814000   256.91606     -420.29093     -334.24639     -420.24139      0              4694.9346      30.957001      21.340725      32.739743      21629.343      4992.1481      6080.0823      3012.5733     -1969.9791      1535.4718      320.04858    
  95816000   257.92366     -420.98071     -334.59871     -420.90659      0              5007.3997      30.957001      21.340725      32.762618      21644.455      6130.9031      3702.0117      5189.2843     -663.06988      51.483639      457.99669    
  95818000   254.17322     -421.78645     -336.66053     -421.73731      0              6049.748       30.957001      21.340725      32.577636      21522.247      5513.108       8556.032       4080.1041      134.61852      1045.9229     -1163.4336    
  95820000   253.99101     -423.73642     -338.67152     -423.64267      0              6434.1714      30.957001      21.340725      32.45998       21444.518      4077.2803      7360.8094      7864.4246     -575.40774      337.36296     -1535.0042    
  95822000   260.76017     -420.50425     -333.17227     -420.43092      0              8177.8475      30.957001      21.340725      32.540566      21497.757      6890.7228      10729.284      6913.5359      1367.4031      353.24741      778.09752    
  95824000   256.55282     -420.06931     -334.14642     -420.00124      0              7278.4145      30.957001      21.340725      32.681665      21590.974      4869.0767      6936.8455      10029.321      250.27102     -925.11343      111.25577    
  95826000   257.48029     -420.46815     -334.23465     -420.40004      0              3849.2893      30.957001      21.340725      32.823911      21684.947      2861.5971      4145.4301      4540.8407     -523.66671     -191.27487      599.58326    
  95828000   258.35591     -419.59103     -333.06426     -419.52949      0              5164.2019      30.957001      21.340725      32.757686      21641.197      3647.6395      6030.0041      5814.9623      491.40824      1527.3738      1676.3816    
  95830000   261.92121     -419.15746     -331.43664     -419.0982       0              3786.0625      30.957001      21.340725      32.67933       21589.431      3160.1119      3970.4779      4227.5977     -696.34272      336.07464     -28.191274    
  95832000   261.5566      -420.89099     -333.29227     -420.81002      0              7053.609       30.957001      21.340725      32.450171      21438.038      7641.5376      6102.6698      7416.6195      1105.04        2053.8453      1341.9443    
  95834000   269.82128     -420.99228     -330.62561     -420.91933      0              7493.4763      30.957001      21.340725      32.428953      21424.021      7811.2625      7026.2461      7642.9203     -107.03351      289.02015     -832.23886    
  95836000   258.01219     -418.68627     -332.27462     -418.63216      0              7262.7287      30.957001      21.340725      32.371149      21385.833      6839.2555      7212.4316      7736.4988     -464.50866     -608.04737     -434.36768    
  95838000   258.03311     -420.33475     -333.9161      -420.28207      0              6756.6444      30.957001      21.340725      32.3866        21396.04       4738.5971      9170.8727      6360.4634     -1672.4813      595.51574      727.29634    
  95840000   263.7726      -419.55391     -331.21303     -419.50726      0              5834.8262      30.957001      21.340725      32.581931      21525.085      6188.6823      6324.4525      4991.3437     -45.875126     -416.37706      104.89069    
  95842000   261.46646     -421.03376     -333.46524     -420.97757      0              5593.4396      30.957001      21.340725      32.605216      21540.468      7292.834       4829.4086      4658.0763     -523.91975     -924.65532      2346.8795    
  95844000   264.21457     -422.67852     -334.18962     -422.61651      0              5855.2209      30.957001      21.340725      32.569242      21516.702      4042.0861      7139.513       6384.0638      1586.6097      107.84555      997.80543    
  95846000   264.88322     -420.89334     -332.1805      -420.83367      0              5465.2334      30.957001      21.340725      32.655688      21573.812      4631.6415      4906.4803      6857.5786     -476.12138      468.64395     -196.71263    
  95848000   262.99657     -422.66884     -334.58786     -422.60095      0              5671.5421      30.957001      21.340725      32.466891      21449.084      4370.6331      4438.78        8205.2131     -1241.5284     -84.988153      16.111289    
  95850000   258.72392     -424.25325     -337.60324     -424.17229      0              5506.5079      30.957001      21.340725      32.620459      21550.538      6896.8344      3969.8943      5652.795       932.97621      1187.8546      789.36113    
  95852000   265.96097     -423.54302     -334.46923     -423.47721      0              4845.3791      30.957001      21.340725      32.484423      21460.666      3267.8352      6435.438       4832.8639     -273.64212     -931.08132     -1153.9976    
  95854000   263.82712     -420.55445     -332.19531     -420.50647      0              4975.7498      30.957001      21.340725      32.320718      21352.516      6654.3043      4563.9445      3709.0006      1111.2264      1606.1791     -651.11963    
  95856000   260.5302      -421.9056      -334.65064     -421.83718      0              7901.4385      30.957001      21.340725      32.421888      21419.353      9813.7811      6564.8128      7325.7218     -57.05552      -1684.1333      1880.235     
  95858000   267.4702      -421.35851     -331.77925     -421.31024      0              6660.618       30.957001      21.340725      32.349308      21371.404      6246.2717      6563.4132      7172.1692     -211.61465      909.19663     -1593.8264    
  95860000   263.15461     -423.99648     -335.86257     -423.91946      0              6800.5342      30.957001      21.340725      32.371251      21385.9        6734.8009      7431.8043      6234.9974      347.64419     -1178.5151      1432.1136    
  95862000   258.91544     -420.94625     -334.2321      -420.88235      0              8597.0883      30.957001      21.340725      32.385354      21395.217      7718.8947      9389.6106      8682.7597      70.821557      1142.2435      17.576045    
  95864000   256.84549     -422.769       -336.74809     -422.68225      0              5418.4728      30.957001      21.340725      32.479576      21457.464      4033.2837      4018.1242      8204.0104     -775.33263     -393.32303      44.613693    
  95866000   254.9282      -423.86698     -338.4882      -423.78034      0              6067.8343      30.957001      21.340725      32.579025      21523.165      5907.3388      6424.4703      5871.6937      289.93096      1928.1269     -585.01535    
  95868000   262.42954     -420.47127     -332.58019     -420.43043      0              3322.7881      30.957001      21.340725      32.662653      21578.414      1684.5662      4760.1965      3523.6017      229.88565     -972.64445     -1068.6908    
  95870000   258.47824     -422.76569     -336.19796     -422.72183      0              5845.1571      30.957001      21.340725      32.594943      21533.681      4984.9606      4989.8603      7560.6504      535.08109     -393.37284      1037.2971    
  95872000   262.21738     -419.27305     -331.45303     -419.20466      0              5183.2415      30.957001      21.340725      32.527205      21488.93       4745.5546      5564.2472      5239.9227     -855.03048     -508.78445      443.72299    
  95874000   262.35647     -422.73265     -334.86605     -422.65998      0              8804.8572      30.957001      21.340725      32.450572      21438.303      9953.0037      8922.359       7539.2089      1901.1393     -432.05274     -688.01806    
  95876000   261.30697     -423.11128     -335.59617     -423.04602      0              4365.64        30.957001      21.340725      32.507013      21475.591      6967.6119      3786.9279      2342.3802      969.99        -1070.1128     -2518.9848    
  95878000   264.60315     -422.4974      -333.87836     -422.4121       0              8044.4229      30.957001      21.340725      32.35885       21377.707      8358.2693      6654.4227      9120.5766     -1254.3947     -1512.6554      505.53208    
  95880000   256.98869     -422.23201     -336.16314     -422.1404       0              4983.5553      30.957001      21.340725      32.417086      21416.181      6161.4329      2804.6709      5984.562      -1422.4949      110.90463     -1214.16      
  95882000   262.75919     -421.90586     -333.90438     -421.83365      0              6967.3701      30.957001      21.340725      32.536157      21494.845      8520.9168      6943.841       5437.3525      1264.832      -350.71042      1530.6336    
  95884000   260.03527     -422.35437     -335.26517     -422.27168      0              6512.9048      30.957001      21.340725      32.629088      21556.239      5643.8241      7102.2122      6792.6782     -398.6721      -1648.7795      2194.3211    
  95886000   263.66469     -420.61343     -332.30869     -420.52676      0              5221.805       30.957001      21.340725      32.754629      21639.177      5831.0572      4873.9312      4960.4266     -1012.5058     -569.72542      1305.3842    
  95888000   256.14734     -420.96158     -335.1745      -420.88308      0              6623.862       30.957001      21.340725      32.472897      21453.052      5435.5241      7115.6465      7320.4154      1743.373      -883.5256      -1816.1513    
  95890000   263.79466     -422.2368      -333.88853     -422.14573      0              5597.1823      30.957001      21.340725      32.427223      21422.878      4759.1744      6310.3024      5722.0702      1744.9446      539.0129      -392.91619    
  95892000   258.04413     -421.52581     -335.10346     -421.45419      0              4594.931       30.957001      21.340725      32.585955      21527.743      4786.5011      3528.5236      5469.7683     -830.27055     -855.08339      501.4064     
  95894000   261.04177     -417.77508     -330.34879     -417.71733      0              5160.9657      30.957001      21.340725      32.448865      21437.175      5028.1399      5023.5742      5431.1831      444.65775     -274.66397      627.1371     
  95896000   253.74289     -421.32622     -336.34442     -421.24247      0              7487.3133      30.957001      21.340725      32.47073       21451.62       7816.3029      7720.6649      6924.9721      568.23787      257.08696      407.58168    
  95898000   257.75285     -419.93412     -333.60933     -419.86377      0              5293.3863      30.957001      21.340725      32.544546      21500.387      4153.8987      6866.2537      4860.0065      248.08105      2042.291       144.02646    
  95900000   271.02959     -421.24674     -330.47539     -421.16609      0              5933.645       30.957001      21.340725      32.395193      21401.717      6475.3036      5062.3319      6263.2995     -1879.1022      820.73921     -2530.2134    
  95902000   258.94037     -421.87945     -335.15694     -421.81595      0              6908.8305      30.957001      21.340725      32.295903      21336.122      7150.4198      6982.745       6593.3267     -1155.7068      1146.1842      7.1162571    
  95904000   252.21478     -422.10329     -337.63327     -422.0462       0              5396.9416      30.957001      21.340725      32.306429      21343.075      5990.7679      5613.1756      4586.8814     -135.36315      929.85197      1056.8535    
  95906000   260.30006     -420.50782     -333.32993     -420.45906      0              5317.1144      30.957001      21.340725      32.35713       21376.571      4913.1002      4849.9673      6188.2757      307.05758      567.69333     -128.29095    
  95908000   259.26496     -420.912       -334.08079     -420.8361       0              3899.1973      30.957001      21.340725      32.54063       21497.799      4470.0219      4064.4619      3163.1083     -404.20766     -1262.1544     -167.73155    
  95910000   254.92729     -421.88699     -336.50852     -421.81953      0              6705.3841      30.957001      21.340725      32.517785      21482.707      8208.7701      5257.1367      6650.2455      84.164836     -82.412157      920.11156    
  95912000   261.29161     -422.59033     -335.08036     -422.51607      0              5414.8964      30.957001      21.340725      32.434603      21427.753      5882.2214      4325.6789      6036.789      -1531.5757      166.90317      736.93913    
  95914000   264.17148     -421.22666     -332.75219     -421.17092      0              5962.7457      30.957001      21.340725      32.502319      21472.49       5742.8914      5707.5416      6437.8042     -299.9672       509.07193      349.64547    
  95916000   267.65817     -420.34162     -330.69941     -420.27927      0              7043.4033      30.957001      21.340725      32.407777      21410.031      8393.2131      5450.2936      7286.7033     -1761.762      -484.16837     -1318.6864    
  95918000   267.69551     -419.68067     -330.02595     -419.61994      0              6503.7627      30.957001      21.340725      32.270801      21319.538      6108.5717      7068.5856      6334.1307     -562.81546     -838.56374      234.65347    
  95920000   257.69224     -418.62779     -332.3233      -418.56189      0              7585.0586      30.957001      21.340725      32.337835      21363.824      8837.6352      6503.54        7414.0007      1464.7069     -1162.8434      1081.4274    
  95922000   258.555       -419.37526     -332.78182     -419.3248       0              6099.2346      30.957001      21.340725      32.509527      21477.251      5465.9983      4341.3968      8490.3087     -1837.4417      1666.8753     -810.67954    
  95924000   265.77475     -418.87982     -329.8684      -418.81099      0              6200.3205      30.957001      21.340725      32.558074      21509.324      5192.5272      5907.5614      7500.873       838.86772      832.86955      1204.9539    
  95926000   269.98559     -422.71264     -332.29094     -422.66114      0              7110.5978      30.957001      21.340725      32.401727      21406.034      7737.2329      4720.1739      8874.3866     -35.611752     -369.99996      1753.9665    
  95928000   262.92861     -419.15649     -331.09827     -419.10313      0              2546.0363      30.957001      21.340725      32.616577      21547.974      3774.2076      2476.82        1387.0812      394.45195      1095.8415      116.62042    
  95930000   253.42688     -420.58992     -335.71395     -420.54099      0              6144.2403      30.957001      21.340725      32.481448      21458.701      5875.4391      5574.448       6982.8339     -209.82476      326.77287      85.025508    
  95932000   249.41385     -419.9583      -336.42635     -419.9232       0              3261.461       30.957001      21.340725      32.463983      21447.163      3455.491       1508.1698      4820.7222     -172.12403     -895.67972      80.865049    
  95934000   265.90335     -421.19328     -332.13878     -421.14616      0              6227.6553      30.957001      21.340725      32.524321      21487.025      6326.1941      4222.9856      8133.7863      59.147349      828.20521     -297.10363    
  95936000   255.69525     -417.60812     -331.97245     -417.55381      0              5047.3744      30.957001      21.340725      32.482417      21459.341      5513.9009      3853.4195      5774.8028     -1737.9381      144.04014     -757.09753    
  95938000   265.42641     -421.12054     -332.22577     -421.07575      0              7532.1825      30.957001      21.340725      32.368422      21384.031      8108.1605      6235.8758      8252.5112      862.28487      667.90955     -55.410197    
  95940000   259.31937     -418.10446     -331.25502     -418.04924      0              7120.5536      30.957001      21.340725      32.35825       21377.311      7127.1742      6381.6184      7852.8682     -827.01202      800.98242     -992.69154    
  95942000   256.85144     -420.0341      -334.01121     -419.98786      0              5584.8466      30.957001      21.340725      32.564947      21513.864      6539.0244      4580.0499      5635.4653      1544.3444     -2208.7165     -71.568781    
  95944000   264.82645     -419.60642     -330.91259     -419.5557       0              5841.2202      30.957001      21.340725      32.493325      21466.548      4895.85        5078.875       7548.9354      1019.507       2106.198       536.34139    
  95946000   255.50175     -419.30134     -333.73047     -419.2405       0              5318.6985      30.957001      21.340725      32.540212      21497.523      4448.4181      5496.7076      6010.9699      1624.6975     -359.69765     -943.28313    
  95948000   258.81108     -421.71499     -335.03578     -421.67313      0              2459.6133      30.957001      21.340725      32.754585      21639.148      2813.1881      2070.5131      2495.1387     -90.669888     -1406.4305      17.84711     
  95950000   262.47743     -420.46885     -332.56174     -420.43231      0              4830.7621      30.957001      21.340725      32.687939      21595.118      4942.6575      4355.9066      5193.7222      382.95702      151.07164     -1497.4243    
  95952000   261.46885     -420.23615     -332.66683     -420.18881      0              5319.817       30.957001      21.340725      32.652239      21571.533      6348.5194      5516.416       4094.5157     -1955.4241     -170.10842      1701.929     
  95954000   259.73089     -418.41917     -331.43191     -418.39099      0              5720.6058      30.957001      21.340725      32.572017      21518.535      7532.63        6767.7637      2861.4238     -1591.1322     -984.19385     -1844.3092    
  95956000   261.72173     -420.04912     -332.3951      -419.99185      0              4554.1326      30.957001      21.340725      32.59798       21535.687      6282.0231      4487.528       2892.8468      46.377791      459.71359     -1072.7838    
  95958000   263.65686     -418.19239     -329.89028     -418.13745      0              6239.3491      30.957001      21.340725      32.374363      21387.956      7771.3128      3925.5213      7021.2131     -2820.3695      285.13546      781.14154    
  95960000   266.32284     -420.39563     -331.20064     -420.34885      0              4338.1576      30.957001      21.340725      32.377886      21390.284      4077.5607      5174.4392      3762.4728     -107.66076      194.44503      60.907181    
  95962000   257.76967     -419.9336      -333.60318     -419.90679      0              7492.8004      30.957001      21.340725      32.400582      21405.277      6743.0892      9768.1873      5967.1247      847.199        292.07912     -522.636      
  95964000   259.83371     -419.06183     -332.04013     -419.01642      0              6223.1364      30.957001      21.340725      32.449015      21437.275      4788.2645      7842.042       6039.1027     -272.4645      -1236.3191      427.84018    
  95966000   261.9664      -421.55651     -333.82055     -421.51761      0              5142.9187      30.957001      21.340725      32.514585      21480.593      4401.1618      4492.6008      6534.9936     -1114.8058     -222.65338      364.24473    
  95968000   255.26096     -421.16893     -335.67871     -421.14771      0              5642.5867      30.957001      21.340725      32.491348      21465.241      4539.655       6556.8707      5831.2343     -2029.7369     -263.51712      1886.2592    
  95970000   261.47101     -422.26702     -334.69697     -422.22338      0              5675.3015      30.957001      21.340725      32.417157      21416.227      6061.3858      6174.558       4789.9606     -187.51025      153.94605      944.08633    
  95972000   261.24562     -420.99586     -333.5013      -420.94609      0              4975.4356      30.957001      21.340725      32.42537       21421.653      4171.8977      4973.066       5781.3431     -41.624822     -24.946497     -491.923      
  95974000   260.09934     -418.33214     -331.22147     -418.3097       0              5990.3765      30.957001      21.340725      32.352854      21373.746      6256.4228      5763.6957      5951.0111      609.6063       1485.1755      290.86947    
  95976000   262.49999     -417.28083     -329.36616     -417.23942      0              5924.8368      30.957001      21.340725      32.512316      21479.094      5725.3807      7462.975       4586.1547      219.86685      1298.9843     -347.40321    
  95978000   264.20526     -419.55313     -331.06734     -419.52519      0              4461.6489      30.957001      21.340725      32.433947      21427.32       4818.4813      6226.357       2340.1082     -675.01672      1023.9865     -1487.9208    
  95980000   259.64607     -418.33913     -331.38027     -418.33004      0              4877.5495      30.957001      21.340725      32.589725      21530.233      4837.4177      6098.1407      3697.0899     -348.50194     -644.27457      780.8434     
  95982000   257.76371     -421.56068     -335.23226     -421.52529      0              4980.5548      30.957001      21.340725      32.463912      21447.116      3426.5513      4758.0398      6757.0734     -1363.7424      758.21015      188.61283    
  95984000   260.50307     -417.61045     -330.36458     -417.59314      0              5795.6809      30.957001      21.340725      32.455811      21441.764      7281.657       6025.1378      4080.2479     -553.1266      -175.88697     -211.88245    
  95986000   262.0463      -420.7149      -332.95218     -420.68567      0              7185.179       30.957001      21.340725      32.443857      21433.867      7387.2579      6166.5286      8001.7504     -940.52211      353.44965      534.05423    
  95988000   249.23994     -420.1895      -336.71579     -420.13581      0              4771.4879      30.957001      21.340725      32.364433      21381.396      5997.0895      4870.634       3446.7401      160.41947      937.30584     -772.88308    
  95990000   257.91315     -421.98616     -335.60769     -421.94256      0              8012.3568      30.957001      21.340725      32.386179      21395.762      7142.615       6390.9172      10503.538      118.39785      1326.2103      2413.0716    
  95992000   255.39603     -422.41049     -336.87503     -422.37621      0              4584.0169      30.957001      21.340725      32.318994      21351.377      3509.1456      4612.4358      5630.4692      1367.2021     -70.013001      1406.6788    
  95994000   259.33343     -420.94539     -334.09125     -420.91304      0              3271.8742      30.957001      21.340725      32.470129      21451.223      4957.2857      2792.2756      2066.0614      1015.408      -3067.0152      262.42139    
  95996000   257.38872     -418.9091      -332.70626     -418.85534      0              7156.5452      30.957001      21.340725      32.447708      21436.411      7449.9764      7512.1534      6507.5058     -333.67579     -242.76289     -185.90355    
  95998000   265.27895     -420.31072     -331.46534     -420.2394       0              6290.8341      30.957001      21.340725      32.400414      21405.167      5471.0289      6068.6435      7332.83        1102.3729      28.405203      701.43899    
  96000000   260.56039     -419.4608      -332.19573     -419.41118      0              5460.8483      30.957001      21.340725      32.344021      21367.911      7052.3847      5142.1429      4188.0172      624.99168     -407.59531     -1395.6878    
  96002000   255.17275     -419.17985     -333.71917     -419.12462      0              7409.1065      30.957001      21.340725      32.303689      21341.265      7679.4906      8440.3139      6107.5149     -1049.723       138.75593     -1182.4719    
  96004000   259.62709     -418.59984     -331.64734     -418.55748      0              2730.9416      30.957001      21.340725      32.463487      21446.835      3086.4262      2016.9603      3089.4384     -277.43504      1316.7215     -644.33634    
  96006000   257.03422     -419.68462     -333.60051     -419.6447       0              6077.124       30.957001      21.340725      32.501821      21472.16       7887.7709      3652.0776      6691.5236      757.32812     -162.33177     -634.71142    
  96008000   262.47392     -417.58375     -329.67781     -417.5521       0              4427.2742      30.957001      21.340725      32.577646      21522.254      3788.5768      4945.8483      4547.3974     -723.53223      1049.6887     -179.00415    
  96010000   260.72064     -417.36882     -330.05008     -417.31172      0              6499.1871      30.957001      21.340725      32.529904      21490.714      5525.0624      6214.0038      7758.4951     -810.31862      1547.5907      961.20484    
  96012000   260.72926     -419.13592     -331.81429     -419.08019      0              7031.8199      30.957001      21.340725      32.478668      21456.864      3311.6284      7696.1839      10087.647     -413.97061      2944.8121     -956.62665    
  96014000   261.54109     -418.83238     -331.23886     -418.78362      0              5062.6259      30.957001      21.340725      32.525537      21487.828      3771.8812      5704.0719      5711.9247      1966.7794      572.98404      1251.7498    
  96016000   263.35826     -420.65051     -332.44839     -420.59245      0              5790.3734      30.957001      21.340725      32.503193      21473.067      5159.4716      6024.0918      6187.5569      361.97845      515.23623     -1968.8992    
  96018000   256.96487     -417.89032     -331.82943     -417.85028      0              6883.8455      30.957001      21.340725      32.386394      21395.904      8511.9704      6045.8455      6093.7206      925.03271      581.99691     -775.92184    
  96020000   262.78429     -418.77042     -330.76053     -418.71147      0              5615.5573      30.957001      21.340725      32.32345       21354.321      7164.2855      4699.768       4982.6184     -653.62113      659.29168      67.473749    
  96022000   263.23626     -421.87343     -333.71218     -421.81413      0              6210.0586      30.957001      21.340725      32.297725      21337.326      8168.1928      4659.4806      5802.5024      253.93631      1352.6787     -419.2419     
  96024000   254.17348     -423.05078     -337.92477     -423.00578      0              3380.5449      30.957001      21.340725      32.5209        21484.765      5524.4126      3558.4823      1058.74        300.98502     -906.8651      -1732.2976    
  96026000   263.8704      -420.50016     -332.12652     -420.41775      0              6398.6914      30.957001      21.340725      32.393515      21400.609      8168.8555      5996.2551      5030.9635     -914.54625     -473.76447      1639.8394    
  96028000   259.95403     -420.51921     -333.45722     -420.44038      0              7344.5205      30.957001      21.340725      32.326476      21356.32       8482.9268      9779.3317      3771.3029     -1291.6463      1594.1014     -1574.774     
  96030000   257.81468     -419.6179      -333.27241     -419.53951      0              6176.4115      30.957001      21.340725      32.392551      21399.972      6313.2627      4962.1357      7253.836      -1216.8363      1478.4461      514.95987    
  96032000   256.56437     -422.82416     -336.89741     -422.74036      0              6602.1016      30.957001      21.340725      32.306026      21342.809      6540.5846      7175.1991      6090.5211     -483.82022      368.69188     -1172.2539    
  96034000   247.92819     -422.219       -339.18462     -422.16198      0              7802.6681      30.957001      21.340725      32.336214      21362.753      8002.7796      8165.8203      7239.4044     -1313.3421     -24.398153     -1052.5938    
  96036000   262.1745      -422.64721     -334.84155     -422.59678      0              8230.8383      30.957001      21.340725      32.365934      21382.387      9966.5071      7145.8256      7580.1823      1642.5254      916.94213     -1406.7939    
  96038000   262.37692     -423.59478     -335.72133     -423.55631      0              4423.433       30.957001      21.340725      32.583277      21525.974      2776.6061      4959.5668      5534.1261      788.66284      482.96566     -1102.325     
  96040000   255.5429      -421.20733     -335.62269     -421.11753      0              5478.9459      30.957001      21.340725      32.448379      21436.854      4768.4405      5511.5073      6156.89       -425.92932     -289.15133     -321.13532    
  96042000   256.35344     -418.83498     -332.97887     -418.80067      0              6047.7919      30.957001      21.340725      32.532709      21492.566      6311.1017      7360.9957      4471.2783      919.98637     -1468.7391     -256.3854     
  96044000   255.95534     -422.01885     -336.29607     -421.97564      0              7624.4123      30.957001      21.340725      32.474897      21454.373      7748.4024      8013.672       7111.1624     -2.005587      -347.98468     -186.9898     
  96046000   254.94431     -418.85602     -333.47185     -418.79378      0              6622.8541      30.957001      21.340725      32.295967      21336.164      8556.2742      6718.3752      4593.913      -669.48757      5.4943342     -302.7153     
  96048000   252.53048     -421.36996     -336.79421     -421.31656      0              3655.8218      30.957001      21.340725      32.565535      21514.253      4884.6776      2603.8849      3478.903       593.55197      519.43951      791.06454    
  96050000   264.19786     -421.60655     -333.12324     -421.55547      0              7952.0645      30.957001      21.340725      32.577128      21521.912      9733.9761      6743.1906      7379.0268      286.81605      603.09403     -330.09833    
  96052000   258.56902     -418.23998     -331.64184     -418.17007      0              6281.1405      30.957001      21.340725      32.659195      21576.129      6783.6611      6689.5379      5370.2224     -172.58495     -997.44823     -1103.3563    
  96054000   262.83268     -421.98333     -333.95724     -421.95205      0              3670.865       30.957001      21.340725      32.681349      21590.765      3644.4035      1519.847       5848.3446      15.533561     -365.50924      778.31375    
  96056000   262.11688     -421.65654     -333.87018     -421.59349      0              7343.8803      30.957001      21.340725      32.824366      21685.248      9906.1726      6431.9413      5693.5268     -1028.005      -173.77937     -1686.5268    
  96058000   260.40551     -422.36796     -335.15476     -422.28212      0              6941.0083      30.957001      21.340725      32.497282      21469.162      6938.1841      8676.1932      5208.6475     -602.21618      1349.7449     -655.53982    
  96060000   258.80424     -419.39012     -332.71321     -419.30521      0              5870.0651      30.957001      21.340725      32.406492      21409.182      5221.7346      7674.9403      4713.5204      1686.3345     -945.79201     -1151.8283    
  96062000   259.57668     -421.08887     -334.15325     -421.03176      0              4907.302       30.957001      21.340725      32.611669      21544.731      3181.4934      6338.2395      5202.1732     -42.486325     -155.47         850.18713    
  96064000   262.11966     -420.82028     -333.03299     -420.78103      0              5837.5734      30.957001      21.340725      32.530355      21491.011      6467.8868      6697.0001      4347.8334     -1189.1632     -812.66513      640.98499    
  96066000   262.58341     -418.03479     -330.09218     -417.95066      0              7107.3619      30.957001      21.340725      32.448893      21437.194      6850.9503      5845.7741      8625.3611      1351.8665     -130.20475      577.24078    
  96068000   258.4082      -421.25119     -334.70691     -421.18366      0              6554.5491      30.957001      21.340725      32.486181      21461.828      5314.7849      7695.1488      6653.7135     -678.85175      1656.9273     -1227.9442    
  96070000   257.71381     -418.29391     -331.9822      -418.21459      0              6669.6738      30.957001      21.340725      32.578077      21522.539      8899.2408      4936.6865      6173.0941      1200.8949     -498.77996      1193.0663    
  96072000   259.37934     -419.48903     -332.61951     -419.4212       0              4377.9557      30.957001      21.340725      32.585         21527.112      3493.726       6434.1867      3205.9544      2158.1582     -944.996        9.8846447    
  96074000   254.18182     -418.79653     -333.66773     -418.73827      0              6435.9749      30.957001      21.340725      32.62358       21552.6        7550.5769      7468.4244      4288.9235      898.7391       1269.9182      1202.3559    
  96076000   261.99748     -418.64478     -330.89841     -418.5683       0              8317.3712      30.957001      21.340725      32.630479      21557.158      8836.1747      8389.9408      7725.9982     -1554.3349     -346.36526      300.492      
  96078000   268.98453     -422.32474     -332.23832     -422.23124      0              5723.7321      30.957001      21.340725      32.560169      21510.708      7035.6363      4831.4535      5304.1066     -93.572845      251.49765      535.92773    
  96080000   254.0778      -420.66549     -335.57152     -420.61265      0              5602.7772      30.957001      21.340725      32.491582      21465.396      6437.9989      3994.5802      6375.7523     -653.2156       874.60737      1250.2787    
  96082000   255.59384     -420.13419     -334.53248     -420.04846      0              7821.5195      30.957001      21.340725      32.513172      21479.659      6088.1235      8410.5085      8965.9264     -1522.0412      3077.6657     -227.83313    
  96084000   259.15129     -421.17597     -334.38283     -421.09853      0              6312.9445      30.957001      21.340725      32.319741      21351.87       6422.1955      6763.091       5753.5472      299.57394      1238.2642      1059.8447    
  96086000   260.58443     -421.14439     -333.87127     -421.05072      0              7647.9011      30.957001      21.340725      32.20056       21273.134      7885.4048      6895.4252      8162.8734      329.23206     -131.34546     -1233.3728    
  96088000   263.4669      -423.30619     -335.06769     -423.21232      0              6758.2331      30.957001      21.340725      32.401596      21405.947      6354.2671      6708.2924      7212.1398      119.54865      1903.6907     -1095.2666    
  96090000   261.11908     -419.22646     -331.77428     -419.1527       0              5282.3525      30.957001      21.340725      32.548165      21502.777      5200.0557      4831.4686      5815.5331     -963.38956      1053.6765      558.89213    
  96092000   260.80017     -421.61961     -334.27423     -421.53409      0              5884.5743      30.957001      21.340725      32.651118      21570.793      6093.9602      5106.4747      6453.288       1392.5941      1296.592       42.297216    
  96094000   260.67288     -421.00018     -333.69743     -420.92631      0              6423.2752      30.957001      21.340725      32.558863      21509.845      6256.0297      6475.0013      6538.7946     -23.672274      80.544901     -1077.879     
  96096000   256.80845     -419.38818     -333.37968     -419.29832      0              4021.0966      30.957001      21.340725      32.46401       21447.181      3886.8211      5226.2772      2950.1916     -1538.0687      1293.077      -1313.8861    
  96098000   265.48695     -418.83932     -329.92428     -418.74792      0              7042.0316      30.957001      21.340725      32.389464      21397.933      6876.791       7172.6424      7076.6615      123.76096      1037.8981      356.8228     
  96100000   260.74947     -419.49185     -332.16345     -419.41422      0              7426.7974      30.957001      21.340725      32.341508      21366.251      3935.4448      8709.5671      9635.3802      2109.8196      1016.9717     -143.15953    
  96102000   259.19092     -422.4273      -335.62088     -422.36876      0              6899.6405      30.957001      21.340725      32.474346      21454.009      6748.0409      8463.7599      5487.1208      502.6337      -673.00492     -1713.8354    
  96104000   261.71828     -419.68634     -332.03348     -419.61833      0              5995.2766      30.957001      21.340725      32.381149      21392.439      4368.2284      6888.8083      6728.7931      317.28627     -1037.615      -1373.8425    
  96106000   260.69142     -418.9053      -331.59634     -418.83399      0              6491.9893      30.957001      21.340725      32.384286      21394.511      4831.6182      6955.975       7688.3748      628.79835     -662.39094      573.94653    
  96108000   264.04098     -421.26016     -332.8294      -421.18618      0              5110.7127      30.957001      21.340725      32.356282      21376.011      5995.4703      5537.9336      3798.7342     -624.44742      1142.7084      443.72332    
  96110000   253.17192     -419.02647     -334.2359      -418.94858      0              4737.7991      30.957001      21.340725      32.4139        21414.076      2188.3027      6215.9622      5809.1324     -276.93663      1769.2831     -374.35896    
  96112000   259.10443     -419.74822     -332.97077     -419.67001      0              8599.1939      30.957001      21.340725      32.353929      21374.456      9943.3989      8299.2535      7554.9293      710.39911      1347.0542     -681.21109    
  96114000   261.67734     -422.36991     -334.73075     -422.29726      0              5842.3759      30.957001      21.340725      32.482408      21459.336      6361.4449      5957.4728      5208.2102     -560.27232     -1222.8263      946.20967    
  96116000   262.47049     -420.16303     -332.25824     -420.09074      0              8993.1287      30.957001      21.340725      32.460963      21445.168      8416.8382      8649.2137      9913.3343      355.43476      733.57849     -637.21967    
  96118000   255.32382     -420.42883     -334.91755     -420.34255      0              6750.4576      30.957001      21.340725      32.363366      21380.691      8812.3571      6725.1126      4713.903      -1044.7741     -1030.5701     -447.90281    
  96120000   264.35795     -419.88175     -331.34483     -419.80107      0              6714.16        30.957001      21.340725      32.380514      21392.02       7948.3016      7145.8137      5048.3647      529.54356      1244.9072     -809.5744     
  96122000   264.67873     -420.56283     -331.91847     -420.48254      0              7074.8079      30.957001      21.340725      32.316284      21349.587      7879.7248      7090.3262      6254.3726      263.73615      140.19961     -701.08931    
  96124000   260.11317     -420.14254     -333.02725     -420.05765      0              4462.8824      30.957001      21.340725      32.38456       21394.693      4705.7674      4973.8258      3709.054       429.09377      89.040286      36.481807    
  96126000   260.25874     -425.43529     -338.27124     -425.35477      0              6233.4103      30.957001      21.340725      32.304578      21341.853      5979.3442      7463.1383      5257.7484      806.27977     -48.823193      1601.7451    
  96128000   257.70007     -420.65923     -334.35212     -420.58618      0              6734.4117      30.957001      21.340725      32.411057      21412.198      6224.0204      8063.3136      5915.901       893.79725     -254.91091     -544.53984    
  96130000   257.55595     -423.32394     -337.06509     -423.24564      0              6624.1908      30.957001      21.340725      32.331253      21359.476      6002.4522      7437.6672      6432.453      -434.53575     -603.98152      456.58628    
  96132000   263.46666     -421.18565     -332.94723     -421.09845      0              6850.2257      30.957001      21.340725      32.326447      21356.301      3876.9106      8702.6421      7971.1243     -228.832       -253.83191      355.53363    
  96134000   266.47852     -421.00645     -331.75932     -420.94299      0              6366.6013      30.957001      21.340725      32.263106      21314.455      6924.1897      4760.0822      7415.5321     -157.27546      850.80903     -369.08418    
  96136000   259.7753      -420.26263     -333.2605      -420.17203      0              5688.0646      30.957001      21.340725      32.260406      21312.671      7280.607       4039.8654      5743.7215     -278.59948     -1506.9598      432.22403    
  96138000   261.45512     -420.3533      -332.78857     -420.26501      0              6590.825       30.957001      21.340725      32.430523      21425.058      7272.6933      5514.0563      6985.7253     -713.83126     -877.62176     -453.39421    
  96140000   263.4032      -422.40535     -334.18819     -422.31361      0              4175.5591      30.957001      21.340725      32.362826      21380.334      3356.2619      4768.0472      4402.3682     -1381.6651      2178.987       856.13219    
  96142000   251.55144     -420.41949     -336.17163     -420.33817      0              5645.4135      30.957001      21.340725      32.336474      21362.925      7022.3831      4931.1215      4982.7359     -723.12342     -251.98822      60.361331    
  96144000   258.06717     -418.24442     -331.81436     -418.15936      0              7097.4156      30.957001      21.340725      32.277651      21324.064      8625.889       5382.5999      7283.758       343.68933      861.1615      -1252.3213    
  96146000   259.76533     -420.29006     -333.29126     -420.19639      0              7531.4281      30.957001      21.340725      32.389436      21397.914      7779.2035      7923.3619      6891.719      -218.86186     -551.72814     -500.45256    
  96148000   256.25078     -421.61657     -335.79485     -421.54178      0              7168.4444      30.957001      21.340725      32.574425      21520.126      9338.0127      5374.6489      6792.6715      463.54448      1852.1095      2358.8311    
  96150000   262.48078     -419.74278     -331.83455     -419.66449      0              5196.4167      30.957001      21.340725      32.566896      21515.152      7249.2062      3454.0704      4885.9736     -1595.8753      661.39326      662.81841    
  96152000   264.81831     -418.34438     -329.65328     -418.27117      0              5693.3481      30.957001      21.340725      32.662777      21578.495      4882.7575      5958.3533      6238.9335     -690.12586      1148.1905     -1294.1955    
  96154000   259.98531     -419.56251     -332.49003     -419.47435      0              5074.2558      30.957001      21.340725      32.66056       21577.031      4408.1142      4047.8049      6766.8482     -1481.1496     -250.92616      869.14653    
  96156000   261.76125     -419.30099     -331.63374     -419.22922      0              5362.9747      30.957001      21.340725      32.521901      21485.426      5190.4866      5493.3889      5405.0484      1149.889      -154.45716     -1298.1885    
  96158000   267.98829     -419.28158     -329.5288      -419.20668      0              7914.3205      30.957001      21.340725      32.629018      21556.192      10167.046      5810.6699      7765.246      -1638.4991     -2358.1646      1773.8587    
  96160000   257.21851     -418.97479     -332.82896     -418.89167      0              7093.9566      30.957001      21.340725      32.574604      21520.244      7434.7105      6734.0662      7113.0931      997.84843     -2337.3039      776.13611    
  96162000   252.48184     -418.90135     -334.34189     -418.81627      0              5015.3426      30.957001      21.340725      32.453825      21440.452      5193.3042      5527.6985      4325.0251      457.97546     -2969.0976     -2406.3783    
  96164000   263.30171     -419.32379     -331.14062     -419.23683      0              6828.2509      30.957001      21.340725      32.302833      21340.7        5844.4598      7321.0701      7319.2228      1856.4635      102.5734       669.38785    
  96166000   260.93082     -421.94899     -334.55985     -421.85604      0              5526.8766      30.957001      21.340725      32.378283      21390.546      5689.8442      5934.2335      4956.5523      671.9055      -229.81126      991.16251    
  96168000   266.07998     -421.69699     -332.58334     -421.60364      0              5504.6851      30.957001      21.340725      32.49622       21468.46       6620.9332      4105.9484      5787.1739      740.3626       1094.504       964.19881    
  96170000   264.30365     -424.17386     -335.65513     -424.10688      0              3575.8795      30.957001      21.340725      32.413833      21414.032      4592.7227      796.04512      5338.8707      768.34649      1876.5702     -27.977067    
  96172000   260.16148     -420.01941     -332.88793     -419.92687      0              6536.8239      30.957001      21.340725      32.521362      21485.07       8179.5056      5623.3732      5807.593      -1369.6984     -18.278867     -989.59158    
  96174000   260.48591     -419.40081     -332.16068     -419.31454      0              4770.3026      30.957001      21.340725      32.468253      21449.984      5084.3021      4928.8653      4297.7405     -213.68269      236.80971      1539.4101    
  96176000   264.91599     -417.76094     -329.03712     -417.68554      0              4805.7246      30.957001      21.340725      32.220594      21286.369      4667.4125      4600.2039      5149.5575      58.679607      747.94355     -1336.454     
  96178000   262.87837     -419.4872      -331.4458      -419.42111      0              7539.8659      30.957001      21.340725      32.296781      21336.702      6222.8913      8924.7202      7471.9862      904.73464      632.78973      1491.7727    
  96180000   255.81933     -421.83731     -336.16008     -421.76373      0              5639.0227      30.957001      21.340725      32.332735      21360.455      6721.9874      5790.9944      4404.0863      1154.856      -356.77589     -937.83321    
  96182000   262.335       -419.46302     -331.6036      -419.36984      0              5960.225       30.957001      21.340725      32.414374      21414.389      6012.6158      6146.8202      5721.2389     -167.00886      487.49185     -2012.091     
  96184000   254.22998     -420.42083     -335.2759      -420.33158      0              7775.7004      30.957001      21.340725      32.401822      21406.096      7888.4387      7364.6795      8073.9832     -265.59116      1123.1694     -320.8778     
  96186000   260.6198      -422.93636     -335.65139     -422.84977      0              6803.7021      30.957001      21.340725      32.360186      21378.59       7506.0418      5332.87        7572.1946     -981.77363      1405.5289     -740.36919    
  96188000   259.04304     -421.81455     -335.05766     -421.72087      0              5335.5864      30.957001      21.340725      32.425687      21421.863      3989.5086      6444.0957      5573.1548     -1842.0024      1932.8658      350.55146    
  96190000   264.29778     -421.64599     -333.12922     -421.5643       0              4655.9319      30.957001      21.340725      32.371146      21385.831      3594.4628      4369.7305      6003.6024      764.71443      482.7617       1098.7967    
  96192000   259.92885     -421.64334     -334.58978     -421.56065      0              7468.3107      30.957001      21.340725      32.564161      21513.345      7531.4534      6210.2174      8663.2614      1039.3743      1561.0587      286.26369    
  96194000   256.22972     -421.31915     -335.50447     -421.22584      0              6269.7981      30.957001      21.340725      32.487111      21462.442      8003.9545      6334.0992      4471.3406      459.91742     -284.09947     -769.65134    
  96196000   258.04885     -424.42089     -337.99697     -424.33455      0              6345.2811      30.957001      21.340725      32.451385      21438.84       7381.5589      6945.3232      4708.9613      764.55335      866.52034     -1431.2136    
  96198000   262.16139     -421.59404     -333.79277     -421.50986      0              5719.8085      30.957001      21.340725      32.416936      21416.081      7566.2848      4317.0882      5276.0524      558.00082     -2238.5171      1847.4614    
  96200000   256.90813     -422.77028     -336.7284      -422.68085      0              9459.3507      30.957001      21.340725      32.387533      21396.657      10425.87       8270.0937      9682.0887      2406.012       367.45644     -51.834352    
  96202000   257.45367     -422.94156     -336.71697     -422.85072      0              7503.2135      30.957001      21.340725      32.458442      21443.503      6306.3534      7367.6446      8835.6425     -43.869543      419.46895     -1033.4416    
  96204000   263.39069     -421.81832     -333.60535     -421.7422       0              4401.3996      30.957001      21.340725      32.505703      21474.725      4287.2925      3279.6198      5637.2864      1690.7505     -164.48136     -29.469175    
  96206000   261.4276      -422.13833     -334.58281     -422.04824      0              4521.9155      30.957001      21.340725      32.363256      21380.618      5285.9527      3999.7232      4280.0706     -69.741303      2072.8907     -1561.3727    
  96208000   258.20062     -422.72573     -336.25097     -422.66175      0              8248.1235      30.957001      21.340725      32.418864      21417.356      8894.5433      8357.5002      7492.327       66.274284      579.86939      822.45846    
  96210000   263.60666     -420.36222     -332.07691     -420.27291      0              6161.5124      30.957001      21.340725      32.603045      21539.034      8224.9116      3549.9744      6709.6511      126.67515     -249.3531      -1602.418     
  96212000   264.87402     -421.38852     -332.67876     -421.30152      0              6095.5271      30.957001      21.340725      32.498107      21469.707      5059.5337      5152.7998      8074.2479     -760.53537      267.47004     -414.17987    
[...]
 102824000   261.07189     -418.59914     -331.16276     -418.56217      0              5125.998       30.957001      21.340725      32.429977      21424.697      5536.8724      5350.7652      4490.3563      1481.2704     -331.41701      630.41145    
 102826000   264.99321     -420.14257     -331.39289     -420.1125       0              7815.2176      30.957001      21.340725      32.447526      21436.291      8797.4745      8454.9262      6193.252       1778.4179     -415.86617     -685.91821    
 102828000   255.86007     -421.25063     -335.55975     -421.20187      0              7268.3089      30.957001      21.340725      32.315048      21348.77       8010.9758      6123.2063      7670.7447     -748.08378     -470.47594      313.27041    
 102830000   255.63872     -418.65685     -333.04011     -418.61017      0              5751.26        30.957001      21.340725      32.461965      21445.83       4316.4859      5491.3879      7445.9063     -9.5443509      1939.9123     -643.83957    
 102832000   254.43615     -417.07237     -331.85839     -417.02785      0              4566.2895      30.957001      21.340725      32.569543      21516.901      3270.8828      5599.7151      4828.2706     -13.74032       987.69539      288.12654    
 102834000   254.26599     -420.47782     -335.32082     -420.43722      0              6789.381       30.957001      21.340725      32.430796      21425.238      6843.2917      7543.8688      5980.9825     -207.31327     -272.35898      1140.1407    
 102836000   264.19379     -420.36985     -331.8879      -420.30225      0              5533.9656      30.957001      21.340725      32.33322       21360.775      4710.8113      5549.6636      6341.422       104.77465     -418.63788     -1275.1698    
 102838000   259.56512     -416.6894      -329.75766     -416.65137      0              5537.7067      30.957001      21.340725      32.393208      21400.406      3912.9373      5294.6994      7405.4833      534.42359      849.72124      662.8134     
 102840000   263.12789     -420.82248     -332.69752     -420.7552       0              6987.801       30.957001      21.340725      32.503062      21472.98       7428.7341      7505.2007      6029.468      -2324.6363      257.61524     -1143.7174    
 102842000   260.55345     -417.91192     -330.64918     -417.8469       0              5102.7327      30.957001      21.340725      32.413108      21413.553      5061.4839      4607.0687      5639.6454      1739.7459     -338.64821     -727.81566    
 102844000   261.15891     -418.55733     -331.09181     -418.50522      0              8695.5487      30.957001      21.340725      32.280357      21325.852      7897.4073      8893.3786      9295.8602      90.836321      950.35755     -496.67415    
 102846000   265.08405     -419.676       -330.89589     -419.61459      0              4388.8365      30.957001      21.340725      32.422255      21419.595      5101.8607      4146.592       3918.057       390.38472      23.466064     -828.18283    
 102848000   259.13382     -417.3192      -330.5319      -417.2765       0              7367.7634      30.957001      21.340725      32.499397      21470.559      8312.8475      7196.2881      6594.1546     -652.67481      550.79403     -1362.2125    
 102850000   256.32195     -420.93484     -335.08928     -420.89085      0              8265.8472      30.957001      21.340725      32.311646      21346.522      7847.513       8519.762       8430.2666      3110.6098     -4.5865542      338.88295    
 102852000   265.24704     -421.91926     -333.08457     -421.8724       0              7613.9728      30.957001      21.340725      32.256619      21310.169      8254.4992      7722.9007      6864.5184     -579.65981      233.41837     -8.4534178    
 102854000   259.09299     -419.64347     -332.86985     -419.61251      0              3729.1883      30.957001      21.340725      32.435349      21428.246      2723.9695      4665.5883      3798.007       1624.0171      88.018985     -120.50616    
 102856000   261.74589     -418.09984     -330.43773     -418.06634      0              6920.6794      30.957001      21.340725      32.394107      21401          6677.5299      8077.6833      6006.8251      805.53475      443.64915      1315.9043    
 102858000   261.80869     -417.36261     -329.67947     -417.32581      0              6902.7694      30.957001      21.340725      32.550212      21504.13       6311.8087      7227.7406      7168.759       382.06375     -380.84758     -629.69573    
 102860000   259.1177      -421.46758     -334.68569     -421.4249       0              5069.3442      30.957001      21.340725      32.472903      21453.056      4904.9785      4710.9104      5592.1436      49.22897       412.84738      769.16118    
 102862000   256.4687      -419.78786     -333.89315     -419.74447      0              7259.966       30.957001      21.340725      32.358357      21377.382      7496.685       7900.0592      6383.1537      1332.4672     -2805.6819     -890.80189    
 102864000   267.69699     -418.63699     -328.98178     -418.57251      0              8123.0794      30.957001      21.340725      32.245065      21302.536      8464.3539      8059.4484      7845.4358      1042.7909     -289.78898      851.52393    
 102866000   255.91241     -420.24487     -334.53646     -420.21241      0              7054.225       30.957001      21.340725      32.26244       21314.015      6563.4037      6034.1642      8565.1072      199.0289       1751.8522      1225.2925    
 102868000   264.4714      -418.10362     -329.5287      -418.04865      0              6307.2339      30.957001      21.340725      32.31512       21348.817      5494.4677      5443.628       7983.6059      827.12799     -106.82723      994.05799    
 102870000   264.32501     -422.15441     -333.62852     -422.10302      0              7818.3663      30.957001      21.340725      32.382813      21393.539      8308.2808      8381.741       6765.0772     -1018.5191     -425.9175      -1646.979     
 102872000   265.14442     -420.03764     -331.23732     -419.98269      0              7932.2986      30.957001      21.340725      32.422374      21419.674      7977.0641      7748.6474      8071.1844      1165.0547     -333.50201     -1301.5679    
 102874000   266.81461     -420.47388     -331.11419     -420.43252      0              6490.9265      30.957001      21.340725      32.532319      21492.309      5506.143       8863.3896      5103.2469      782.5586      -585.45563     -1478.926     
 102876000   253.87674     -422.01928     -336.99265     -421.95833      0              6009.9546      30.957001      21.340725      32.350859      21372.428      7098.6564      4969.6585      5961.5487     -1067.8642      793.36378      706.97003    
 102878000   258.87418     -421.23284     -334.5325      -421.20014      0              6843.2938      30.957001      21.340725      32.340143      21365.349      6893.481       5848.5474      7787.8532      498.28897     -806.28688     -311.60701    
 102880000   258.84203     -419.97563     -333.28606     -419.93984      0              7046.5992      30.957001      21.340725      32.29058       21332.605      5900.6262      6313.0127      8926.1586      2149.9064     -418.48426      221.23405    
 102882000   256.32723     -420.02391     -334.17658     -419.98731      0              6030.9007      30.957001      21.340725      32.522376      21485.74       5954.4321      7970.5711      4167.6988      7.3960824      1140.8772      1805.7031    
 102884000   253.15655     -420.88349     -336.09806     -420.83747      0              3668.953       30.957001      21.340725      32.561618      21511.665      3462.5389      4807.484       2736.8359     -82.217065      1245.0255     -136.68265    
 102886000   253.52927     -419.30362     -334.39336     -419.26725      0              5113.8373      30.957001      21.340725      32.404621      21407.946      5585.7367      5801.948       3953.8274      717.84003     -232.33291      39.105063    
 102888000   257.89766     -423.2173      -336.84401     -423.18297      0              6996.5438      30.957001      21.340725      32.298322      21337.72       7616.1066      5768.4003      7605.1246      197.16495     -2015.6368      822.20408    
 102890000   259.42951     -421.46939     -334.58307     -421.42556      0              5489.2942      30.957001      21.340725      32.243492      21301.497      5941.4524      5821.5533      4704.8769      1018.2287     -297.89526     -142.73737    
 102892000   259.32574     -419.57296     -332.72139     -419.54012      0              7562.4282      30.957001      21.340725      32.23845       21298.166      6820.2547      7725.2794      8141.7504      213.19171      548.39534      114.75049    
 102894000   256.60319     -420.2357      -334.29595     -420.21167      0              5605.028       30.957001      21.340725      32.247947      21304.44       5110.4738      6801.0489      4903.5612     -703.04723     -1523.9157     -1203.2202    
 102896000   265.56316     -418.27285     -329.33228     -418.24917      0              2360.7263      30.957001      21.340725      32.42725       21422.895      3201.3729      1326.6522      2554.1539      53.073735      683.53459     -312.97004    
 102898000   267.47471     -422.79578     -333.21502     -422.75008      0              10180.811      30.957001      21.340725      32.151901      21240.988      10310.748      8217.3018      12014.382     -362.6819       50.028672     -652.35259    
 102900000   256.9928      -420.78201     -334.71177     -420.73432      0              5594.6165      30.957001      21.340725      32.274167      21321.762      6664.748       4545.7119      5573.3896      892.70144      1431.2006     -65.260087    
 102902000   259.40281     -420.17949     -333.30211     -420.12747      0              6777.7647      30.957001      21.340725      32.508568      21476.618      7133.2509      6196.4574      7003.5857     -61.513121      2140.9977     -268.77089    
 102904000   260.97536     -419.86745     -332.4634      -419.82521      0              5307.8876      30.957001      21.340725      32.481719      21458.88       5674.3959      6609.3948      3639.8722      153.63206      465.18904     -1218.395     
 102906000   261.51041     -417.21092     -329.62767     -417.19683      0              7047.6391      30.957001      21.340725      32.580645      21524.235      8764.8986      6408.4064      5969.6122      1796.776      -907.92006      1636.7217    
 102908000   263.55513     -419.63103     -331.36298     -419.60986      0              5999.2393      30.957001      21.340725      32.391975      21399.591      8043.1237      6808.2847      3146.3093     -35.830771     -64.223128     -1755.1928    
 102910000   258.48282     -420.05826     -333.48899     -420.03891      0              7456.8216      30.957001      21.340725      32.454966      21441.206      7639.1039      9402.536       5328.8248      743.56677     -203.75827      134.21728    
 102912000   261.11375     -420.29314     -332.84274     -420.27076      0              7250.1279      30.957001      21.340725      32.402487      21406.536      6370.4465      7460.6468      7919.2904      1762.9854      1720.0481      345.84546    
 102914000   266.99391     -421.69917     -332.27943     -421.67833      0              6994.4605      30.957001      21.340725      32.494198      21467.124      8367.0303      7291.0128      5325.3385     -1800.0363     -447.67432      1577.879     
 102916000   258.98317     -419.68088     -332.94404     -419.66304      0              6084.6925      30.957001      21.340725      32.452263      21439.42       5817.7455      6471.7769      5964.555      -41.727521      1149.5676     -257.5533     
 102918000   261.88566     -418.95832     -331.24939     -418.91081      0              4303.2774      30.957001      21.340725      32.378322      21390.571      3588.7722      5538.0975      3782.9625      640.36429     -327.19984     -365.57662    
 102920000   260.14506     -420.3681      -333.24213     -420.31861      0              7820.7829      30.957001      21.340725      32.352974      21373.825      7320.581       9653.8612      6487.9064      974.50537      1930.1708     -2426.0574    
 102922000   269.72529     -419.79488     -329.46036     -419.74502      0              5416.8556      30.957001      21.340725      32.375044      21388.406      7535.2492      5169.7476      3545.57        1624.2284     -976.25976      1627.3883    
 102924000   257.63409     -418.19846     -331.91345     -418.16144      0              5542.0258      30.957001      21.340725      32.480774      21458.256      5580.132       6316.4795      4729.4658      552.09927      1357.6549     -949.62893    
 102926000   260.08275     -422.8932      -335.7881      -422.82308      0              4631.0562      30.957001      21.340725      32.500374      21471.205      5675.7996      4597.6971      3619.6718     -435.51455      642.4263      -74.319764    
 102928000   268.34144     -419.20156     -329.33051     -419.15007      0              7221.1977      30.957001      21.340725      32.518205      21482.984      8000.3744      6531.9928      7131.2257      455.46311      998.45766      786.94343    
 102930000   265.62361     -421.66869     -332.70788     -421.60597      0              6870.1757      30.957001      21.340725      32.550441      21504.281      6179.4031      8445.5036      5985.6204      211.83132      173.24891     -80.795537    
 102932000   261.00639     -420.42537     -333.01092     -420.37835      0              6037.2169      30.957001      21.340725      32.514216      21480.349      5482.8524      7755.9566      4872.8417     -1398.5336     -30.039299      513.51571    
 102934000   265.00398     -421.94978     -333.19649     -421.86897      0              5707.6718      30.957001      21.340725      32.469433      21450.764      5418.239       8968.2641      2736.5122      1592.5942     -982.41318      737.8859     
 102936000   264.31095     -420.825       -332.30382     -420.74892      0              5262.3125      30.957001      21.340725      32.554424      21506.912      4230.4815      7522.6263      4033.8299      155.15557      781.64887      1164.4408    
 102938000   263.89762     -420.55726     -332.17451     -420.49276      0              6445.7424      30.957001      21.340725      32.488942      21463.652      6344.9412      5701.7433      7290.5427      233.31731      284.60242      290.83827    
 102940000   259.39444     -418.95722     -332.08264     -418.91257      0              6117.3457      30.957001      21.340725      32.451145      21438.682      7528.5728      5342.8898      5480.5746      479.31242     -1791.9001      244.6238     
 102942000   269.82063     -419.86005     -329.49361     -419.7977       0              6731.4798      30.957001      21.340725      32.372881      21386.977      5697.7702      7625.668       6871.0013      687.15264      331.54636     -990.69513    
 102944000   263.18034     -416.7818      -328.63927     -416.72542      0              7360.8174      30.957001      21.340725      32.335896      21362.543      7510.6134      8009.5035      6562.3352      1328.8206     -2.465164      -699.82661    
 102946000   258.25254     -419.75894     -333.2668      -419.68441      0              6660.8225      30.957001      21.340725      32.221224      21286.785      8020.0826      6865.6692      5096.7158      755.87274     -3733.8525     -241.75847    
 102948000   255.54458     -420.38932     -334.8041      -420.3429       0              7279.2266      30.957001      21.340725      32.197936      21271.4        10352.731      6195.044       5289.905       35.368538     -471.84055     -2642.1881    
 102950000   260.911       -417.51687     -330.13437     -417.45386      0              5219.3683      30.957001      21.340725      32.368617      21384.16       6110.3037      4257.0057      5290.7955      683.85799      902.12075     -58.829706    
 102952000   263.91033     -420.49277     -332.10576     -420.41684      0              5960.7587      30.957001      21.340725      32.375552      21388.741      7736.7633      4274.5274      5870.9854      643.61907      545.97542     -2068.337     
 102954000   263.33545     -420.11998     -331.9255      -420.03534      0              6949.8524      30.957001      21.340725      32.38896       21397.599      6559.4287      6325.287       7964.8414      341.7242      -2320.3425     -178.05533    
 102956000   262.23651     -422.77151     -334.94509     -422.68909      0              7642.9301      30.957001      21.340725      32.248916      21305.08       5062.1558      9942.6585      7923.976       1459.4927      1364.3443      593.45358    
 102958000   259.17563     -419.73961     -332.93832     -419.6812       0              4979.5731      30.957001      21.340725      32.507575      21475.962      4814.2336      6092.7669      4031.719      -506.00075     -927.16694     -1765.3445    
 102960000   265.77091     -420.64591     -331.63577     -420.5821       0              5505.3236      30.957001      21.340725      32.404103      21407.604      5845.3584      5085.7707      5584.8418     -331.57244     -1273.9264      468.45853    
 102962000   258.34706     -420.78882     -334.26502     -420.71799      0              4227.6495      30.957001      21.340725      32.559179      21510.054      4259.6763      5163.1532      3260.1191     -760.97954     -1369.871       1575.776     
 102964000   255.87125     -421.68867     -335.99405     -421.62136      0              6231.6922      30.957001      21.340725      32.454676      21441.014      7070.1109      4242.1635      7382.8023     -1807.6047      1669.3144      186.51105    
 102966000   259.22331     -417.44989     -330.63262     -417.40542      0              7768.3385      30.957001      21.340725      32.516076      21481.578      8122.5099      8167.4251      7015.0805     -538.47471     -703.25358     -339.06885    
WARNING: Wall time limit reached (../timer.cpp:193)
Loop time of 85799.5 on 4 procs for 7322000 steps with 2592 atoms

Performance: 3.687 ns/day, 6.510 hours/ns, 85.338 timesteps/s
1426.8% CPU use with 4 MPI tasks x no OpenMP threads

MPI task timing breakdown:
Section |  min time  |  avg time  |  max time  |%varavg| %total
---------------------------------------------------------------
Pair    | 20577      | 20623      | 20677      |  26.6 | 24.04
Bond    | 0.6815     | 0.76773    | 0.85427    |   7.1 |  0.00
Neigh   | 623.7      | 631.47     | 641.55     |  30.3 |  0.74
Comm    | 2351.2     | 2417.3     | 2468.7     |  92.4 |  2.82
Output  | 7287.3     | 7287.4     | 7287.4     |   0.0 |  8.49
Modify  | 54817      | 54820      | 54822      |   0.7 | 63.89
Other   |            | 20.4       |            |       |  0.02

Nlocal:            648 ave         653 max         642 min
Histogram: 1 0 0 0 0 1 1 0 0 1
Nghost:        4255.25 ave        4271 max        4235 min
Histogram: 1 0 0 0 0 1 0 1 0 1
Neighs:              0 ave           0 max           0 min
Histogram: 4 0 0 0 0 0 0 0 0 0
FullNghs:       167275 ave      169291 max      164746 min
Histogram: 1 0 0 0 0 1 0 1 0 1

Total # of neighbors = 669100
Ave neighs/atom = 258.14043
Ave special neighs/atom = 0
Neighbor list builds = 146440
Dangerous builds not checked
unfix 3
unfix 1
unfix 2


# Finalize simulation
write_restart	restart.lmp.${pid}
write_restart	restart.lmp.0
System init for write_restart ...
Generated 0 of 1 mixed pair_coeff terms from geometric mixing rule
write_data	data.final.${pid} nocoeff
write_data	data.final.0 nocoeff
System init for write_data ...
Generated 0 of 1 mixed pair_coeff terms from geometric mixing rule
Total wall time: 23:50:14
