LAMMPS (23 Jun 2022)
include procedure.lmp
echo both
include		in.partitions
variable        pid world 0
include		in.temp
variable	temperature equal 260
variable        tempDamp equal 0.100 # this is 0.1 ps
include		in.pressure
variable        pressure equal 6079.5
variable        pressureDamp equal 1.0 #this is 1ps

variable	barostat string	   tri
variable	direction string   z
variable	direction_x_bool equal 0
variable	direction_y_bool equal 0
variable	direction_z_bool equal 1

include		in.seed
variable        seed world 745823

units           metal
atom_style	full
box tilt large
read_restart 	restart.lmp.${pid}
read_restart 	restart.lmp.0
Reading restart file ...
  restart file = 23 Jun 2022, LAMMPS = 23 Jun 2022
  restoring atom style full from restart
  triclinic box = (0 0 -0.76609188) to (30.957001 21.340725 31.631256) with tilt (-9.151055 1.0545787 -10.725)
WARNING: Triclinic box skew is large (../domain.cpp:224)
  2 by 1 by 2 MPI processor grid
Summary of lammps deepmd module ...
  >>> Info of deepmd-kit:
  installed to:       /u/sigbjobo/software/DEEPMD_FROM_SOURCE/deepmd-kit/install
  source:             v2.1.3
  source branch:       master
  source commit:      5a32c49
  source commit at:   2022-07-01 09:52:58 +0800
  surpport model ver.:1.1 
  build float prec:   double
  build with tf inc:  /u/sigbjobo/software/DEEPMD_FROM_SOURCE/tensorflow/install/include;/u/sigbjobo/software/DEEPMD_FROM_SOURCE/tensorflow/install/include
  build with tf lib:  /u/sigbjobo/software/DEEPMD_FROM_SOURCE/tensorflow/install/lib/libtensorflow_cc.so;/u/sigbjobo/software/DEEPMD_FROM_SOURCE/tensorflow/install/lib/libtensorflow_framework.so
  set tf intra_op_parallelism_threads: 0
  set tf inter_op_parallelism_threads: 0
  >>> Info of lammps module:
  use deepmd-kit at:  /u/sigbjobo/software/DEEPMD_FROM_SOURCE/deepmd-kit/install
  source:             v2.1.3
  source branch:      master
  source commit:      5a32c49
  source commit at:   2022-07-01 09:52:58 +0800
  build float prec:   double
  build with tf inc:  /u/sigbjobo/software/DEEPMD_FROM_SOURCE/tensorflow/install/include;/u/sigbjobo/software/DEEPMD_FROM_SOURCE/tensorflow/install/include
  build with tf lib:  /u/sigbjobo/software/DEEPMD_FROM_SOURCE/tensorflow/install/lib/libtensorflow_cc.so;/u/sigbjobo/software/DEEPMD_FROM_SOURCE/tensorflow/install/lib/libtensorflow_framework.so
  restoring pair style deepmd from restart
  2592 atoms
Finding 1-2 1-3 1-4 neighbors ...
  special bond factors lj:    0        0        0       
  special bond factors coul:  0        0        0       
     0 = max # of 1-2 neighbors
     0 = max # of 1-3 neighbors
     0 = max # of 1-4 neighbors
     1 = max # of special neighbors
  special bonds CPU = 0.000 seconds
  read_restart CPU = 0.050 seconds
include 	in.setup
variable	out_freq equal 2000
variable	out_freq2 equal 2000

timestep        0.0005

neigh_modify    delay 7 every 1

include         in.deepmd
# This is deepMD model

# create groups ###
#group ox type 2
#group hy type 1

mass 2 15.999
mass 1 1.008

pair_style      deepmd ../graph.pb
pair_coeff      * *

bond_style      none
angle_style     none
dihedral_style  none
improper_style  none
neigh_modify exclude none


neighbor        2.0 bin
neigh_modify    every 50 delay 0 check no

thermo          ${out_freq}
thermo          2000
thermo_style 	custom step temp pe etotal epair emol press lx ly lz vol pxx pyy pzz pxy pxz pyz

restart 	${out_freq} restart.lmp.${pid} restart2.lmp.${pid}
restart 	2000 restart.lmp.${pid} restart2.lmp.${pid}
restart 	2000 restart.lmp.0 restart2.lmp.${pid}
restart 	2000 restart.lmp.0 restart2.lmp.0


timer           timeout 23:50:00 every 1000
New timer settings: style=normal  mode=nosync  timeout=23:50:00


# Set number of time steps
variable 	nsteps_wall		equal	 6000000
variable 	nsteps_enhanced_coex    equal	20000000

variable     nsteps_enhanced_coex_upto equal (${nsteps_wall}+${nsteps_enhanced_coex})
variable     nsteps_enhanced_coex_upto equal (6000000+${nsteps_enhanced_coex})
variable     nsteps_enhanced_coex_upto equal (6000000+20000000)


# Set temperature for first step
if "$(step) < 1  " then    "velocity 	all create ${temperature} ${seed} dist gaussian"


# Always run thermo and barostat


######################################
# Run simulation with wall potential #
######################################
if " $(step) < ${nsteps_wall} " then    "fix             3 all plumed plumedfile plumed.equil.dat outfile plumed.equil.out"   "fix             1 all nph ${direction} ${pressure} ${pressure} ${pressureDamp}"   "fix             2 all temp/csvr ${temperature} ${temperature} ${tempDamp} ${seed}"   "run             ${nsteps_wall} upto"
if " $(step) == ${nsteps_wall} " then    "unfix 3"   "unfix 1"   "unfix 2"


############################
# Run enhanced coesistence #
############################
if "$(step) == ${nsteps_wall}" then    "fix             3 all plumed plumedfile plumed.start.dat outfile plumed.out" else    "fix             3 all plumed plumedfile plumed.dat outfile plumed.out"
fix             3 all plumed plumedfile plumed.dat outfile plumed.out

if "$(step) < ${nsteps_enhanced_coex_upto} && $(step) >= ${nsteps_wall} " then    "include         in.dump"    "fix             1 all nph ${direction} ${pressure} ${pressure} ${pressureDamp}"   "fix             2 all temp/csvr ${temperature} ${temperature} ${tempDamp} ${seed}"   "run             ${nsteps_enhanced_coex_upto} upto"    "unfix 3"   "unfix 1"   "unfix 2"
include         in.dump
dump            myDump all atom ${out_freq2} dump.water.${pid}
dump            myDump all atom 2000 dump.water.${pid}
dump            myDump all atom 2000 dump.water.0
dump            myDump2 all dcd ${out_freq2} dump.${pid}.dcd
dump            myDump2 all dcd 2000 dump.${pid}.dcd
dump            myDump2 all dcd 2000 dump.0.dcd
dump_modify     myDump append yes
dump_modify     myDump2 append yes

fix             1 all nph ${direction} ${pressure} ${pressure} ${pressureDamp}
fix             1 all nph z ${pressure} ${pressure} ${pressureDamp}
fix             1 all nph z 6079.5 ${pressure} ${pressureDamp}
fix             1 all nph z 6079.5 6079.5 ${pressureDamp}
fix             1 all nph z 6079.5 6079.5 1
fix             2 all temp/csvr ${temperature} ${temperature} ${tempDamp} ${seed}
fix             2 all temp/csvr 260 ${temperature} ${tempDamp} ${seed}
fix             2 all temp/csvr 260 260 ${tempDamp} ${seed}
fix             2 all temp/csvr 260 260 0.1 ${seed}
fix             2 all temp/csvr 260 260 0.1 745823
run             ${nsteps_enhanced_coex_upto} upto
run             26000000 upto

CITE-CITE-CITE-CITE-CITE-CITE-CITE-CITE-CITE-CITE-CITE-CITE-CITE

Your simulation uses code contributions which should be cited:

- USER-DEEPMD package:

@article{Wang_ComputPhysCommun_2018_v228_p178,
  author = {Wang, Han and Zhang, Linfeng and Han, Jiequn and E, Weinan},
  doi = {10.1016/j.cpc.2018.03.016},
  url = {https://doi.org/10.1016/j.cpc.2018.03.016},
  year = 2018,
  month = {jul},
  publisher = {Elsevier {BV}},
  volume = 228,
  journal = {Comput. Phys. Commun.},
  title = {{DeePMD-kit: A deep learning package for many-body potential energy representation and molecular dynamics}},
  pages = {178--184}
}

CITE-CITE-CITE-CITE-CITE-CITE-CITE-CITE-CITE-CITE-CITE-CITE-CITE

Generated 0 of 1 mixed pair_coeff terms from geometric mixing rule
Neighbor list info ...
  update every 50 steps, delay 0 steps, check no
  max neighbors/atom: 2000, page size: 100000
  master list distance cutoff = 8
  ghost atom cutoff = 8
  binsize = 4, bins = 11 9 9
  1 neighbor lists, perpetual/occasional/extra = 1 0 0
  (1) pair deepmd, perpetual
      attributes: full, newton on
      pair build: full/bin
      stencil: full/bin/3d
      bin: standard
Per MPI rank memory allocation (min/avg/max) = 7.311 | 7.312 | 7.312 Mbytes
   Step          Temp          PotEng         TotEng         E_pair         E_mol          Press            Lx             Ly             Lz           Volume          Pxx            Pyy            Pzz            Pxy            Pxz            Pyz      
  22360000   264.51308     -421.12935     -332.54048     -421.12935      0              8158.9147      30.957001      21.340725      32.397348      21403.141      9745.8351      6334.5368      8396.3722      2794.8044     -2943.8637     -19.380066    
  22362000   259.71867     -418.77716     -331.79399     -418.77716      0              8352.4964      30.957001      21.340725      32.469523      21450.823      9808.8181      8109.9361      7138.7349     -380.62191     -1312.5419     -1506.3924    
  22364000   257.64049     -422.96287     -336.67571     -422.96287      0              6834.9109      30.957001      21.340725      32.532057      21492.136      8803.0397      6190.1601      5511.5328      2135.9437      429.61625     -176.42392    
  22366000   261.37065     -422.21852     -334.68208     -422.21852      0              5188.6203      30.957001      21.340725      32.539866      21497.295      4157.292       3617.5718      7790.9969     -1816.566      -903.36014     -134.41047    
  22368000   261.27717     -423.31652     -335.81138     -423.31652      0              5708.3456      30.957001      21.340725      32.556942      21508.576      6483.2017      6933.5566      3708.2785     -465.5114       705.26494     -1580.6401    
  22370000   257.76736     -418.48495     -332.15531     -418.48495      0              7401.9944      30.957001      21.340725      32.610195      21543.757      7206.0575      4895.3684      10104.557     -427.78361     -830.53977     -884.09726    
  22372000   261.31486     -420.5425      -333.02475     -420.5425       0              5925.1695      30.957001      21.340725      32.67844       21588.843      5950.3804      7018.4771      4806.6511      2610.4677     -279.75012      607.67725    
  22374000   260.3329      -425.40893     -338.22005     -425.40893      0              6491.684       30.957001      21.340725      32.44684       21435.837      8056.6025      5483.8683      5934.5812      858.773       -955.09606     -1511.7413    
  22376000   265.00021     -423.80809     -335.05607     -423.80809      0              6718.0481      30.957001      21.340725      32.383935      21394.279      8710.545       8236.4497      3207.1495     -1456.6767     -753.31477     -2994.8449    
  22378000   259.94198     -424.89445     -337.83649     -424.89445      0              6613.3938      30.957001      21.340725      32.400257      21405.063      6369.1441      7960.6036      5510.4336     -1285.5117     -990.28534     -492.39264    
  22380000   258.5684      -424.43879     -337.84086     -424.43879      0              6581.0692      30.957001      21.340725      32.422227      21419.577      6605.7996      7090.4379      6046.9699     -318.47029     -1052.9906     -260.15517    
  22382000   260.47174     -423.56354     -336.32816     -423.56354      0              4067.4415      30.957001      21.340725      32.480119      21457.823      3344.0379      4275.2242      4583.0624     -2486.2155      252.21927     -2063.5185    
  22384000   260.26135     -420.4613      -333.29638     -420.4613       0              5360.427       30.957001      21.340725      32.601415      21537.957      6360.3313      6499.0538      3221.896       658.84912      1304.8707     -331.56692    
  22386000   268.34903     -420.78316     -330.90957     -420.78316      0              6095.3636      30.957001      21.340725      32.53926       21496.895      6092.5684      6642.6845      5550.838       416.83936     -1656.2335      1212.1204    
  22388000   257.7566      -422.96527     -336.63922     -422.96527      0              5638.2296      30.957001      21.340725      32.508902      21476.838      5116.2514      6109.8672      5688.57        1346.0533     -80.060841     -197.10013    
  22390000   269.23457     -419.63168     -329.46151     -419.63168      0              5641.6805      30.957001      21.340725      32.598008      21535.706      5650.9609      5748.7246      5525.356       677.10497     -726.46641     -1308.2822    
  22392000   258.819       -422.54871     -335.86685     -422.54871      0              5175.6687      30.957001      21.340725      32.718518      21615.32       5548.8732      6234.4201      3743.7128      1011.312      -667.06218     -1475.3218    
  22394000   257.05358     -423.32495     -337.23435     -423.32495      0              7874.2579      30.957001      21.340725      32.477122      21455.844      7827.2295      7946.9686      7848.5757      395.6591      -2526.1242     -1943.2765    
  22396000   257.82974     -421.93286     -335.58232     -421.93286      0              7401.5206      30.957001      21.340725      32.409767      21411.345      6808.1395      8639.1282      6757.2942      367.81869      2206.8859     -858.63017    
  22398000   265.50819     -421.34123     -332.41908     -421.34123      0              6001.6451      30.957001      21.340725      32.485224      21461.196      5949.2518      5880.7269      6174.9565      1726.5204     -485.68349     -1391.2073    
  22400000   257.94252     -422.60612     -336.21781     -422.60612      0              8574.2403      30.957001      21.340725      32.575238      21520.663      8769.3736      7814.1996      9139.1477     -460.8799      -333.8787      -2367.7581    
  22402000   254.61632     -419.97852     -334.7042      -419.97852      0              4684.038       30.957001      21.340725      32.712689      21611.469      3110.3678      4367.6067      6574.1393      1482.817       269.797       -501.28451    
  22404000   260.24325     -423.83355     -336.67469     -423.83355      0              6166.7295      30.957001      21.340725      32.643586      21565.817      5244.3184      6766.8105      6489.0597      1240.7474     -802.21495      1631.3728    
  22406000   260.53671     -422.36459     -335.10745     -422.36459      0              7685.0308      30.957001      21.340725      32.522464      21485.798      8553.9874      7338.2556      7162.8495     -54.462431      124.4683       931.61294    
  22408000   258.11277     -422.00294     -335.55761     -422.00294      0              8124.5761      30.957001      21.340725      32.390349      21398.517      7727.6517      7105.9986      9540.0781      97.177218     -593.3769       749.59824    
  22410000   269.57991     -421.72195     -331.43612     -421.72195      0              6799.1844      30.957001      21.340725      32.369527      21384.761      6621.3392      6183.0296      7593.1844     -843.5509       1407.7508     -423.4714     
  22412000   261.87203     -423.70723     -336.00288     -423.70723      0              5889.2524      30.957001      21.340725      32.53746       21495.706      4696.429       5252.7356      7718.5925     -1233.4188     -292.39468      626.15326    
  22414000   264.79318     -420.71375     -332.03106     -420.71375      0              6104.342       30.957001      21.340725      32.548085      21502.724      5604.2554      7754.18        4954.5908      1653.5156     -394.87059      290.43552    
  22416000   260.45372     -419.01863     -331.78928     -419.01863      0              4541.4051      30.957001      21.340725      32.611277      21544.472      6802.4396      3276.4783      3545.2975      566.09486     -1656.4483     -1698.3194    
  22418000   257.56548     -422.06137     -335.79934     -422.06137      0              8034.7252      30.957001      21.340725      32.527655      21489.228      9443.3326      8576.9376      6083.9054     -207.91147     -594.90281     -61.652866    
  22420000   257.33211     -421.82042     -335.63655     -421.82042      0              7516.039       30.957001      21.340725      32.51516       21480.973      8004.2261      7030.5516      7513.3393     -1263.3571      243.44078     -1117.1302    
  22422000   263.89353     -421.51987     -333.13849     -421.51987      0              8120.0521      30.957001      21.340725      32.562712      21512.388      7594.7952      8482.5257      8282.8353      1139.2436     -1122.9126      159.70188    
  22424000   267.67299     -422.33275     -332.68558     -422.33275      0              5419.6478      30.957001      21.340725      32.501219      21471.763      4617.4451      6307.1636      5334.3348      165.86056      809.84331     -108.75971    
  22426000   264.60519     -420.28828     -331.66856     -420.28828      0              8584.8312      30.957001      21.340725      32.570851      21517.765      7847.899       9226.6355      8679.9591      791.9622       52.541851     -856.13423    
  22428000   255.88571     -422.733       -337.03354     -422.733        0              5225.9834      30.957001      21.340725      32.660827      21577.207      5808.7261      4892.7118      4976.5123     -72.457279      606.96148     -461.21112    
  22430000   256.83947     -421.55439     -335.53551     -421.55439      0              5058.6374      30.957001      21.340725      32.539822      21497.266      4150.4969      4194.4843      6830.9311      2159.8158     -188.54816      858.43901    
  22432000   267.81793     -419.84241     -330.14669     -419.84241      0              5100.395       30.957001      21.340725      32.584328      21526.668      4590.3484      4315.2012      6395.6354      754.95339     -701.85122     -697.07765    
  22434000   262.22044     -422.7404      -334.91936     -422.7404       0              5533.9599      30.957001      21.340725      32.539959      21497.356      5877.3266      4164.0984      6560.4548     -665.79695     -681.65301     -1168.4548    
  22436000   255.70829     -421.86781     -336.22777     -421.86781      0              6394.4325      30.957001      21.340725      32.760209      21642.863      6640.6588      6807.7044      5734.9343     -350.41179     -604.30994      1142.4981    
  22438000   266.92629     -422.018       -332.6209      -422.018        0              4360.4976      30.957001      21.340725      32.710383      21609.946      3896.5592      5853.032       3331.9017      1499.5459     -1444.3796     -1038.3642    
  22440000   261.52531     -421.59709     -334.00886     -421.59709      0              4534.1243      30.957001      21.340725      32.785162      21659.349      3766.9412      3322.9325      6512.4991     -743.40851      1127.7521      335.60983    
  22442000   255.62531     -421.87275     -336.2605      -421.87275      0              4980.8022      30.957001      21.340725      32.824964      21685.643      4454.9239      6394.5821      4092.9007     -771.10968     -1545.455       933.40865    
  22444000   266.64366     -421.3684      -332.06596     -421.3684       0              7031.6706      30.957001      21.340725      32.588414      21529.368      8878.4562      4597.1449      7619.4107     -363.66733      599.40538      630.34614    
  22446000   259.18553     -421.91953     -335.11492     -421.91953      0              7051.48        30.957001      21.340725      32.728189      21621.71       8311.8468      6149.2505      6693.3425      1657.2643     -975.5273       1523.0189    
  22448000   264.33081     -422.97876     -334.45093     -422.97876      0              7091.4225      30.957001      21.340725      32.623246      21552.379      5252.9968      6975.577       9045.6936     -411.37244      1510.4377      1951.7229    
  22450000   258.51245     -425.9665      -339.38731     -425.9665       0              4554.3895      30.957001      21.340725      32.622618      21551.964      6165.1149      2626.3245      4871.7292      1159.4452      474.60792     -1127.321     
  22452000   262.78661     -422.01957     -334.0089      -422.01957      0              5840.9727      30.957001      21.340725      32.646246      21567.574      4386.0654      5204.5124      7932.3403      302.63212      871.9711       71.299874    
  22454000   259.36911     -423.12681     -336.26072     -423.12681      0              5561.6887      30.957001      21.340725      32.610621      21544.038      5359.9978      4622.5937      6702.4745      1388.9405     -1317.06        623.95802    
  22456000   256.45722     -422.14678     -336.25592     -422.14678      0              7720.2349      30.957001      21.340725      32.798924      21668.44       8790.1636      6490.5533      7879.9877      6.1557434      52.643894     -850.12226    
  22458000   255.39546     -421.09679     -335.56152     -421.09679      0              5915.2527      30.957001      21.340725      32.691912      21597.743      6405.3633      5014.8472      6325.5474      219.08287      590.17431      506.59157    
  22460000   260.53696     -420.37492     -333.1177      -420.37492      0              5962.8901      30.957001      21.340725      32.691094      21597.203      5934.5596      5972.2067      5981.9041     -436.15369      119.34914     -25.750909    
  22462000   258.17798     -420.74353     -334.27636     -420.74353      0              7576.445       30.957001      21.340725      32.801102      21669.879      4780.6158      8792.2877      9156.4313      597.3392       41.491114     -632.68071    
  22464000   264.29689     -422.76285     -334.24638     -422.76285      0              5401.8022      30.957001      21.340725      32.722194      21617.749      4843.1264      4108.4862      7253.794       1678.0506      2213.6548      226.37985    
  22466000   260.65539     -420.74202     -333.44513     -420.74202      0              6665.4136      30.957001      21.340725      32.563192      21512.705      6813.1141      6441.5913      6741.5355      1576.4069     -1886.4216     -62.850252    
  22468000   267.6925      -421.74502     -332.09131     -421.74502      0              5446.2409      30.957001      21.340725      32.73514       21626.301      5345.9716      6955.0728      4037.6781     -543.73494     -1416.6556     -2879.574     
  22470000   265.07564     -421.81468     -333.03739     -421.81468      0              6966.0666      30.957001      21.340725      32.566179      21514.678      5508.5407      8590.7479      6798.9113     -1873.4489      2344.1779     -1635.5686    
  22472000   257.06728     -421.58099     -335.48581     -421.58099      0              3509.8081      30.957001      21.340725      32.662169      21578.094      2452.7866      5299.4947      2777.1429     -592.18289     -350.66202     -709.41988    
  22474000   262.65527     -421.35427     -333.3876      -421.35427      0              3970.2514      30.957001      21.340725      32.639439      21563.077      4919.4417      2757.8196      4233.4931      1155.116       203.87193     -1612.2748    
  22476000   261.07475     -423.1399      -335.70256     -423.1399       0              6814.2843      30.957001      21.340725      32.811095      21676.481      6545.6723      5740.4353      8156.7452      889.27669     -605.4467       715.38921    
  22478000   254.841       -421.26253     -335.91296     -421.26253      0              2522.5213      30.957001      21.340725      32.569705      21517.008      2696.4409      3525.1883      1345.9347     -358.35185      1091.6885     -1058.6332    
  22480000   260.74085     -421.02907     -333.70356     -421.02907      0              6304.3636      30.957001      21.340725      32.49823       21469.788      5451.6917      7056.4301      6404.9689     -30.386549      515.18675     -520.6083     
  22482000   266.31318     -422.84136     -333.64961     -422.84136      0              5190.739       30.957001      21.340725      32.648724      21569.211      5103.2128      5425.7801      5043.2241      338.90483      518.24871     -186.93702    
  22484000   263.48392     -420.42536     -332.18116     -420.42536      0              6036.5713      30.957001      21.340725      32.625036      21553.562      6953.6211      6384.0496      4772.0432      874.10556      51.134789     -1167.7251    
  22486000   265.12251     -420.3728      -331.57982     -420.3728       0              5963.0202      30.957001      21.340725      32.480029      21457.764      6885.0747      5032.8257      5971.1603      441.97323     -770.2084      -328.27363    
  22488000   263.12053     -421.96761     -333.84512     -421.96761      0              6327.3133      30.957001      21.340725      32.382103      21393.069      5097.2299      8396.0986      5488.6115      907.31445     -1164.9362     -2454.2503    
  22490000   256.77127     -419.80856     -333.81251     -419.80856      0              5272.2591      30.957001      21.340725      32.386977      21396.289      5128.277       6015.4693      4673.0311     -1150.3059      196.7728       872.69928    
  22492000   256.0667      -420.77978     -335.01971     -420.77978      0              4396.0737      30.957001      21.340725      32.447611      21436.347      5400.6016      4203.6225      3583.9969     -561.30724     -299.87191     -25.759941    
  22494000   259.24793     -421.77095     -334.94544     -421.77095      0              7607.1516      30.957001      21.340725      32.298893      21338.097      5796.7304      8913.0701      8111.6543      653.86763      188.3604       1207.8028    
  22496000   259.76502     -422.17804     -335.17934     -422.17804      0              8811.4895      30.957001      21.340725      32.284723      21328.736      8126.6421      6767.6784      11540.148      880.88769      17.256747      47.812773    
  22498000   258.51938     -419.72931     -333.1478      -419.72931      0              5799.7588      30.957001      21.340725      32.489529      21464.04       7733.7346      3490.3115      6175.2302     -604.82947     -52.619573     -228.88219    
  22500000   268.54429     -422.18169     -332.2427      -422.18169      0              6999.0056      30.957001      21.340725      32.393605      21400.668      6851.1957      7497.9331      6647.8879     -478.82072      358.80996      290.5541     
  22502000   262.46893     -422.00285     -334.09858     -422.00285      0              8811.3949      30.957001      21.340725      32.363214      21380.591      9845.9638      6977.2099      9611.0109      42.868233      205.40454      1275.0851    
  22504000   259.05933     -419.50187     -332.73953     -419.50187      0              5263.0403      30.957001      21.340725      32.450675      21438.371      3416.6805      6522.9376      5849.5028      456.90354      687.88683      398.22087    
  22506000   262.75234     -422.74423     -334.74505     -422.74423      0              8649.6164      30.957001      21.340725      32.573245      21519.346      9091.6331      8719.7543      8137.4617      659.32519      1151.8361     -1569.4384    
  22508000   256.78316     -420.62069     -334.62066     -420.62069      0              5321.1793      30.957001      21.340725      32.50044       21471.248      7260.7801      3120.2082      5582.5497      1386.6946      1624.3022     -1996.3721    
  22510000   255.36675     -420.6332      -335.10755     -420.6332       0              4301.7092      30.957001      21.340725      32.548574      21503.047      4374.4396      6371.2317      2159.4562     -319.85395      238.55642     -581.97505    
  22512000   263.99781     -422.15385     -333.73754     -422.15385      0              6796.1841      30.957001      21.340725      32.583539      21526.147      5122.5232      8498.6058      6767.4233      1593.2312      1178.6393     -1109.0001    
  22514000   259.68801     -420.13685     -333.16395     -420.13685      0              3785.714       30.957001      21.340725      32.650655      21570.487      3383.2445      3707.3634      4266.534      -1140.277      -791.14049      61.210443    
  22516000   255.67416     -423.41021     -337.7816      -423.41021      0              5894.1086      30.957001      21.340725      32.615076      21546.982      6399.9766      6612.2081      4670.1412     -529.61488      1081.5156     -1875.716     
  22518000   251.64086     -420.59041     -336.31261     -420.59041      0              6414.6383      30.957001      21.340725      32.538641      21496.486      6240.4052      7713.9782      5289.5315      1924.3686      559.45054      1603.0656    
  22520000   256.72653     -419.65888     -333.67782     -419.65888      0              5859.6604      30.957001      21.340725      32.562797      21512.444      5288.8344      5309.7012      6980.4456      1256.4664     -801.82511     -1378.6955    
  22522000   259.78498     -421.12144     -334.11606     -421.12144      0              6887.3169      30.957001      21.340725      32.489068      21463.735      6972.9268      6592.9567      7096.067       742.79885      1827.4356      1344.4291    
  22524000   263.15015     -420.8102      -332.67778     -420.8102       0              4947.0485      30.957001      21.340725      32.353585      21374.229      3717.8646      2620.2968      8502.9841     -121.54352      1138.4412      77.565051    
  22526000   260.32771     -419.56919     -332.38205     -419.56919      0              6210.5807      30.957001      21.340725      32.58329       21525.982      6095.3996      7314.9141      5221.4282     -296.24731      947.79932     -175.50737    
  22528000   257.62282     -420.64253     -334.36129     -420.64253      0              3350.3121      30.957001      21.340725      32.618237      21549.07       3521.1744      4678.6406      1851.1212     -1109.2763     -372.7261       13.700931    
  22530000   254.3833      -418.33401     -333.13773     -418.33401      0              7489.0832      30.957001      21.340725      32.545378      21500.936      8527.3573      6155.9695      7783.9228      1423.5217      457.68998      918.73175    
  22532000   262.05995     -422.3311      -334.5638      -422.3311       0              4576.8274      30.957001      21.340725      32.526738      21488.622      2832.7716      5502.8776      5394.833       753.59553      987.54843     -1065.1363    
  22534000   257.13618     -423.16205     -337.0438      -423.16205      0              6271.099       30.957001      21.340725      32.587774      21528.945      7128.5395      6597.3535      5087.4039      974.49342     -613.75671      1312.4603    
  22536000   252.66118     -423.32951     -338.70999     -423.32951      0              5504.5505      30.957001      21.340725      32.757215      21640.885      5064.5849      7389.7262      4059.3404      1210.423       1710.8183     -128.63848    
  22538000   264.33748     -420.87086     -332.34079     -420.87086      0              6535.7946      30.957001      21.340725      32.581922      21525.079      7723.5064      6701.5174      5182.3601     -1378.7098      169.28591      737.84471    
  22540000   262.05957     -422.40122     -334.63406     -422.40122      0              7027.0365      30.957001      21.340725      32.530791      21491.299      7392.2733      5224.4209      8464.4153     -1260.7828     -1140.1263     -689.82588    
  22542000   259.23077     -419.98717     -333.16741     -419.98717      0              5076.138       30.957001      21.340725      32.456926      21442.501      5739.7451      4685.8167      4802.8522      386.5487       1785.303       374.0535     
  22544000   261.49039     -419.35661     -331.78007     -419.35661      0              6386.9641      30.957001      21.340725      32.547426      21502.289      5631.6293      7118.1799      6411.0832      41.994748      25.325515      1654.4832    
  22546000   265.57521     -420.21197     -331.26737     -420.21197      0              5571.2865      30.957001      21.340725      32.673975      21585.893      5378.4203      7148.6209      4186.8184      121.20844     -657.16961     -60.665684    
  22548000   259.11982     -418.88893     -332.10633     -418.88893      0              6815.3193      30.957001      21.340725      32.713059      21611.714      5082.7142      7889.1873      7474.0563      538.73201      834.19091      1302.6484    
  22550000   259.47614     -416.05954     -329.1576      -416.05954      0              5858.2013      30.957001      21.340725      32.787369      21660.806      5713.9463      5860.9511      5999.7065     -1328.8201      1272.7527      1036.5167    
  22552000   264.07716     -420.07145     -331.62856     -420.07145      0              3707.3546      30.957001      21.340725      32.68932       21596.031      3337.4664      4196.0946      3588.5027     -148.47265     -603.16018     -1097.7859    
  22554000   259.37398     -420.82521     -333.95748     -420.82521      0              4922.361       30.957001      21.340725      32.774979      21652.621      6841.5421      3874.8441      4050.697      -167.78498      841.52923     -823.02515    
  22556000   267.08477     -420.78418     -331.33401     -420.78418      0              7107.7904      30.957001      21.340725      32.764882      21645.95       7387.1294      8579.6824      5356.5593      999.97671      1092.7691     -339.28333    
  22558000   259.46857     -420.08243     -333.18303     -420.08243      0              6164.8743      30.957001      21.340725      32.673147      21585.346      6194.3716      5883.9624      6416.289      -32.407884     -1544.011      -465.86216    
  22560000   262.10228     -421.1906      -333.40913     -421.1906       0              5354.7149      30.957001      21.340725      32.870822      21715.939      3444.2684      6153.6072      6466.269       769.31503      506.17389      1939.0942    
  22562000   260.02595     -419.10965     -332.02357     -418.55752      0              4452.2359      30.957001      21.340725      32.928833      21754.263      5540.03        1979.6267      5837.0509      458.1245      -1867.548      -1623.1365    
  22564000   257.46328     -420.98767     -334.75986     -420.47642      0              3205.1025      30.957001      21.340725      32.959786      21774.713      2562.1169      3506.9178      3546.2728     -252.5184       1142.0354     -147.51844    
  22566000   258.78401     -423.42419     -336.75405     -422.88279      0              2812.0877      30.957001      21.340725      32.887141      21726.72       2399.1966      2286.412       3750.6544     -680.34598      449.20727     -476.17574    
  22568000   260.65919     -420.09932     -332.80116     -419.64987      0              5262.7005      30.957001      21.340725      32.63104       21557.528      3674.4459      5295.0681      6818.5876     -982.90616      434.47856      891.06104    
  22570000   263.97117     -420.57452     -332.16713     -420.05942      0              6783.772       30.957001      21.340725      32.780927      21656.55       5283.086       6760.0536      8308.1764      25.978993      179.36825     -322.66622    
  22572000   260.34989     -421.58545     -334.39088     -421.1564       0              5791.0716      30.957001      21.340725      32.672527      21584.937      4884.8656      5708.6481      6779.7009     -914.37467      1202.3621      2087.1166    
  22574000   261.56942     -417.09981     -329.4968      -416.55117      0              6159.5821      30.957001      21.340725      32.643706      21565.896      5773.431       7110.7222      5594.5933      552.00741      961.00154      1178.6321    
  22576000   256.21957     -419.46245     -333.65118     -418.9913       0              8946.1877      30.957001      21.340725      32.687422      21594.777      9435.3847      7564.825       9838.3533      1127.0535      1587.9882      591.22966    
  22578000   262.08801     -418.53338     -330.75669     -418.13079      0              5223.095       30.957001      21.340725      32.750506      21636.453      6196.3846      4796.1135      4676.7867     -131.21131      870.68556      158.24961    
  22580000   259.57448     -420.21406     -333.27919     -419.84582      0              5153.8798      30.957001      21.340725      32.740188      21629.636      5511.1247      4934.1328      5016.3819     -803.20963      1254.6221      718.46286    
  22582000   260.18867     -422.13931     -334.99873     -421.8194       0              9175.3063      30.957001      21.340725      32.760203      21642.859      9349.0575      9042.4192      9134.4421     -799.72921      94.524557     -596.35968    
  22584000   259.67376     -416.31587     -329.34774     -415.76429      0              5721.2534      30.957001      21.340725      32.74716       21634.243      3510.0475      6756.924       6896.7886     -667.49076      1230.377      -794.5702     
  22586000   251.99897     -417.16576     -332.76802     -416.62162      0              7847.0374      30.957001      21.340725      32.729773      21622.756      9194.4916      7417.923       6928.6975      1017.37        252.85165     -758.08947    
  22588000   267.83488     -417.86867     -328.16728     -417.39747      0              6549.1136      30.957001      21.340725      32.6982        21601.897      7902.9086      5015.9955      6728.4367     -1640.787       1491.6886     -371.14254    
  22590000   258.29819     -417.29746     -330.79003     -416.90478      0              4923.2397      30.957001      21.340725      32.770832      21649.881      5114.2784      5640.6385      4014.8022      1551.2272      260.41908     -480.50611    
  22592000   258.53094     -419.05919     -332.47381     -418.72649      0              6701.2098      30.957001      21.340725      32.830944      21689.594      4571.505       8079.3532      7452.7712      959.55077     -1435.4749     -1283.2858    
  22594000   265.10568     -419.07654     -330.28919     -418.75888      0              5237.5477      30.957001      21.340725      32.712465      21611.322      6187.693       4969.5229      4555.4271      242.55274     -21.667093     -991.07135    
  22596000   261.5597      -420.24143     -332.64168     -419.83903      0              6184.0425      30.957001      21.340725      32.65578       21573.873      5186.7391      6912.0633      6453.325      -215.26262      126.60667      703.60585    
  22598000   266.4518      -419.20137     -329.96319     -418.98567      0              5075.2255      30.957001      21.340725      32.474496      21454.108      5462.1766      5266.4092      4497.0907      472.46016     -620.11373      159.74022    
  22600000   261.67405     -418.38282     -330.74477     -417.92774      0              6851.2111      30.957001      21.340725      32.713779      21612.19       7751.7722      6878.3358      5923.5254     -427.75508      317.61138      1179.6398    
  22602000   262.77049     -416.30281     -328.29755     -415.88112      0              5774.9229      30.957001      21.340725      32.651862      21571.284      7174.9825      7863.365       2286.4212      535.57443     -1676.3746      519.8897     
  22604000   262.84697     -420.47506     -332.44418     -420.17435      0              5169.6001      30.957001      21.340725      32.571455      21518.164      5236.6221      6573.7079      3698.4701     -1487.5922     -670.94089      303.58829    
  22606000   262.76704     -418.35402     -330.34991     -417.99948      0              3744.5717      30.957001      21.340725      32.70513       21606.476      4518.646       4091.9779      2623.0913     -242.60954     -1215.1006     -93.912361    
  22608000   255.61207     -417.44566     -331.83784     -416.96451      0              6518.4732      30.957001      21.340725      32.513804      21480.077      5902.0458      8258.4018      5394.9721      1132.2201     -914.72864      532.46293    
  22610000   266.32138     -416.82647     -327.63197     -416.51956      0              6374.8353      30.957001      21.340725      32.762627      21644.461      6267.7503      6317.0281      6539.7276      2628.1433      531.65049     -274.56607    
  22612000   254.81704     -418.32533     -332.98378     -417.9023       0              5821.5733      30.957001      21.340725      32.551352      21504.883      6498.2483      6854.8893      4111.5823     -1150.3751      983.64619     -98.473265    
  22614000   262.28613     -419.73938     -331.89634     -419.47865      0              8724.9947      30.957001      21.340725      32.627874      21555.437      7537.443       10336.451      8301.0905      959.17959     -997.51324      627.43035    
  22616000   261.95759     -417.19591     -329.4629      -416.95769      0              6609.9587      30.957001      21.340725      32.606108      21541.057      7836.2416      6543.1502      5450.4842      1114.6368      435.24225      320.50183    
  22618000   255.94953     -418.82115     -333.10032     -418.63162      0              5204.6367      30.957001      21.340725      32.48209       21459.125      4236.1092      5064.3591      6313.4418      37.414594      960.77835      1222.6157    
  22620000   254.10719     -419.38896     -334.28514     -419.1409       0              6769.6135      30.957001      21.340725      32.575958      21521.138      5750.4307      8479.2091      6079.2007      1068.0185      484.52628     -371.23996    
  22622000   261.13743     -416.96607     -329.50774     -416.57242      0              6387.3076      30.957001      21.340725      32.686231      21593.99       6325.0322      9316.924       3519.9667     -1428.2366     -736.88577     -1354.7876    
  22624000   258.9398      -417.87881     -331.1565      -417.54864      0              6305.5632      30.957001      21.340725      32.604739      21540.153      5698.6138      7643.5041      5574.5716      2492.204      -209.97088     -223.22416    
  22626000   259.31448     -419.9522      -333.1044      -419.63807      0              4817.5335      30.957001      21.340725      32.548099      21502.734      4220.6516      5902.4841      4329.4648      901.71817      1170.0339     -844.89326    
  22628000   256.27104     -418.99956     -333.17105     -418.77475      0              6361.245       30.957001      21.340725      32.586646      21528.2        4897.5303      5680.8004      8505.4044      593.92015      508.15775     -330.07096    
  22630000   254.22318     -416.09531     -330.95266     -415.88532      0              4538.3432      30.957001      21.340725      32.399216      21404.375      4449.0801      4277.6873      4888.2622     -1540.1725      639.10933     -617.43874    
  22632000   260.83034     -416.1698      -328.81432     -416.00698      0              6880.2649      30.957001      21.340725      32.372379      21386.645      6037.0478      5897.6762      8706.0708     -164.9636      -1274.3499      2641.3181    
  22634000   265.80362     -416.14433     -327.12324     -415.8495       0              5297.7366      30.957001      21.340725      32.600476      21537.336      6113.9287      5731.9865      4047.2945     -564.3085      -275.70342      77.030971    
  22636000   265.76874     -419.80136     -330.79195     -419.63597      0              4889.3126      30.957001      21.340725      32.701846      21604.306      5232.8876      3594.7238      5840.3262      90.01567      -64.943709      2418.4032    
  22638000   261.60255     -418.82462     -331.21052     -418.66181      0              6305.5608      30.957001      21.340725      32.713784      21612.193      7307.8524      6716.6825      4892.1476      289.60945      143.21975     -539.22336    
  22640000   267.53517     -418.21286     -328.61184     -418.09524      0              4946.7702      30.957001      21.340725      32.844542      21698.577      6764.1409      3499.0868      4577.083      -984.99854     -1012.2362      577.08527    
  22642000   264.94943     -419.06445     -330.32943     -418.93797      0              6136.0458      30.957001      21.340725      32.617123      21548.334      6608.4471      5314.7549      6484.9353      935.59122     -697.34418     -194.19152    
  22644000   265.18283     -418.39422     -329.58104     -418.3791       0              6512.4503      30.957001      21.340725      32.596191      21534.506      5739.6732      5965.4141      7832.2634     -1605.6638     -65.824756     -1197.7484    
  22646000   259.22377     -422.69646     -335.87905     -422.69487      0              4367.8855      30.957001      21.340725      32.539099      21496.788      5466.8659      3171.7134      4465.077       711.47395     -395.39325     -584.76992    
  22648000   257.87742     -421.99794     -335.63143     -421.89012      0              7174.4145      30.957001      21.340725      32.487715      21462.842      6517.9431      7829.1519      7176.1484     -1228.7763     -1395.8606     -1000.2209    
  22650000   263.0538      -418.83127     -330.73112     -418.75144      0              6549.3167      30.957001      21.340725      32.527306      21488.997      6340.3733      6273.0529      7034.5239      1294.4499     -762.97897      895.76557    
  22652000   261.8922      -417.97296     -330.26185     -417.72122      0              4858.7447      30.957001      21.340725      32.654619      21573.106      3439.8627      4295.754       6840.6173      435.0511       1597.8432      1501.1291    
  22654000   258.85093     -419.25815     -332.56559     -419.16346      0              7474.889       30.957001      21.340725      32.617459      21548.556      7580.1094      5955.6862      8888.8713     -157.80253     -297.76461      1355.1731    
  22656000   256.03173     -416.10249     -330.35413     -415.9729       0              4283.6981      30.957001      21.340725      32.482544      21459.425      4620.7495      4259.6825      3970.6624      878.31824      1125.2915     -91.035018    
  22658000   256.09956     -418.52138     -332.7503      -418.36993      0              7243.1492      30.957001      21.340725      32.583244      21525.952      8590.7636      6919.0658      6219.6181      549.92363      692.90477     -797.80736    
  22660000   264.7655      -420.79415     -332.12073     -420.78368      0              7384.4016      30.957001      21.340725      32.43135       21425.604      7173.1167      6268.4388      8711.6492      1627.3102     -549.28718     -7.0043185    
  22662000   252.21198     -419.07158     -334.6025      -419.06627      0              6157.4386      30.957001      21.340725      32.430877      21425.292      4054.1952      7121.0951      7297.0256      188.02319      1891.4191     -12.34125     
  22664000   257.52038     -419.22757     -332.98063     -419.18685      0              5308.9417      30.957001      21.340725      32.537885      21495.986      5352.0621      5561.2343      5013.5286      290.34831     -463.84918     -1602.2284    
  22666000   261.29145     -417.7249      -330.21499     -417.44301      0              5834.3799      30.957001      21.340725      32.614083      21546.326      6781.1323      5764.407       4957.6003      342.44741      759.09868     -484.00221    
  22668000   260.11758     -419.22552     -332.10876     -419.15678      0              5834.1663      30.957001      21.340725      32.599251      21536.527      4124.4544      6233.3148      7144.7297      849.73193      1110.9369      689.09196    
  22670000   257.2869      -416.18678     -330.01805     -416.13843      0              5382.1666      30.957001      21.340725      32.545134      21500.775      4472.401       7598.8749      4075.2238     -956.28125      114.64375     -1056.6614    
  22672000   266.73363     -420.06039     -330.72782     -420.04785      0              6833.8522      30.957001      21.340725      32.671562      21584.299      4423.8282      6763.7131      9314.0153      962.3845      -719.0968       59.851975    
  22674000   263.76088     -415.2593      -326.92235     -415.01444      0              7865.6489      30.957001      21.340725      32.549417      21503.604      8278.6618      6359.6014      8958.6836     -1853.7308      339.8223       66.277977    
  22676000   266.02747     -418.31335     -329.21728     -418.21107      0              7261.7056      30.957001      21.340725      32.5319        21492.032      5982.2242      6853.7765      8949.1161     -985.67117      3232.2029      335.99591    
  22678000   256.62377     -417.97477     -332.02812     -417.86283      0              7477.4235      30.957001      21.340725      32.547284      21502.195      5128.857       10195.526      7107.8875      759.82801      237.26505      560.25951    
  22680000   266.85797     -419.58675     -330.21254     -419.57594      0              7745.0875      30.957001      21.340725      32.46559       21448.225      7698.5892      8424.978       7111.6952     -548.54051      345.05074     -153.77084    
  22682000   261.54935     -420.61751     -333.02122     -420.63707      0              3878.1748      30.957001      21.340725      32.526483      21488.453      2604.0403      3508.9259      5521.5583     -1414.7123      478.94901      1991.2606    
  22684000   255.68649     -419.39272     -333.75998     -419.36623      0              7452.21        30.957001      21.340725      32.47988       21457.665      8479.5974      8636.0183      5241.0141      1673.8872     -293.70548     -688.96466    
  22686000   264.77303     -422.08782     -333.41188     -422.08027      0              6582.1203      30.957001      21.340725      32.66371       21579.112      4921.9663      6557.5322      8266.8622      1050.4792      339.58974      71.295019    
  22688000   260.68665     -418.65471     -331.34735     -418.42633      0              7463.1068      30.957001      21.340725      32.519437      21483.798      6514.4226      8892.5326      6982.3651      1687.3802     -130.80915     -704.87145    
  22690000   261.19315     -414.99395     -327.51696     -414.7779       0              7430.9962      30.957001      21.340725      32.652108      21571.447      6742.0707      7860.5392      7690.3788     -893.89164      188.06381      1053.1882    
  22692000   261.13063     -415.01784     -327.56179     -414.82886      0              5829.0284      30.957001      21.340725      32.481277      21458.588      7018.0066      4522.6714      5946.4073      314.25208     -304.98869     -16.234095    
  22694000   261.29233     -415.32422     -327.81401     -415.22938      0              6060.721       30.957001      21.340725      32.505617      21474.669      6107.5926      7390.2123      4684.3582     -1992.7593      872.99882     -1102.9055    
  22696000   261.50889     -416.45695     -328.87421     -416.25306      0              6830.2982      30.957001      21.340725      32.72423       21619.094      5984.745       7276.7263      7229.4232     -1405.2135      853.48199      755.6652     
  22698000   253.4971      -417.96172     -333.06223     -417.80796      0              3676.3839      30.957001      21.340725      32.670665      21583.706      2652.3035      3183.6114      5193.2368      511.46397      606.30389      1659.9336    
  22700000   262.75841     -416.24049     -328.23927     -416.0443       0              5337.7104      30.957001      21.340725      32.610136      21543.718      5647.6722      4218.341       6147.1182      680.34947     -2749.8783     -1089.7872    
  22702000   263.10781     -418.65964     -330.5414      -418.51187      0              5630.583       30.957001      21.340725      32.531854      21492.001      4319.2856      5850.8636      6721.5997     -201.36744      925.78797     -590.29256    
  22704000   255.76993     -418.86397     -333.20328     -418.7007       0              5916.6662      30.957001      21.340725      32.573376      21519.433      4277.0529      4914.9611      8557.9846     -788.9806      -837.15397     -403.25392    
  22706000   254.02655     -417.99739     -332.92059     -417.86445      0              6616.8714      30.957001      21.340725      32.738557      21628.559      6607.1726      6004.2155      7239.226       348.19549     -508.31544     -1823.7547    
  22708000   251.17928     -419.80373     -335.68052     -419.69335      0              6913.3923      30.957001      21.340725      32.718853      21615.541      6457.1207      8075.1334      6207.9227      376.7677      -99.868853      484.46974    
  22710000   262.3954      -420.29641     -332.41677     -420.14735      0              5927.1167      30.957001      21.340725      32.659064      21576.042      5792.8278      6508.8789      5479.6436      48.035554     -367.56967     -1495.6486    
  22712000   264.14412     -419.75308     -331.28777     -419.63852      0              4001.7165      30.957001      21.340725      32.652485      21571.696      3638.5375      3732.2736      4634.3385      1178.6789      1173.7308      485.84144    
  22714000   265.9219      -419.25587     -330.19516     -419.1765       0              4641.0195      30.957001      21.340725      32.809828      21675.644      5423.1924      4356.5716      4143.2944      442.00325     -2274.5063     -1400.3588    
  22716000   261.34741     -420.05663     -332.52798     -419.96729      0              8444.2983      30.957001      21.340725      32.80332       21671.345      6878.5602      9218.3805      9235.9541     -222.39621     -854.98117      468.4476     
  22718000   251.79746     -418.268       -333.93775     -418.20977      0              5696.2204      30.957001      21.340725      32.824895      21685.598      7066.8449      3287.8542      6733.9619      1652.7833      1516.4771     -757.6353     
  22720000   254.7917      -417.29462     -331.96156     -417.22765      0              7106.6642      30.957001      21.340725      32.831669      21690.073      5580.8469      8385.3701      7353.7755      1.556887       1173.5424     -166.67109    
  22722000   256.84795     -420.41108     -334.38935     -420.33298      0              5975.6797      30.957001      21.340725      32.739507      21629.187      7294.5637      4660.2751      5972.2005     -94.331219      189.46153      563.42601    
  22724000   260.84146     -417.46553     -330.10633     -417.42374      0              7243.6698      30.957001      21.340725      32.935013      21758.346      6081.2231      7041.8498      8607.9365     -513.51077      611.65727     -168.35153    
  22726000   267.64912     -418.8633      -329.22412     -418.79694      0              6390.4473      30.957001      21.340725      32.686855      21594.402      6369.3793      5841.4715      6960.4912      797.68674      111.81342     -1146.4665    
  22728000   264.7565      -418.99562     -330.32522     -418.95329      0              8376.0633      30.957001      21.340725      32.673891      21585.838      6167.6081      6800.5484      12160.033      866.6333       982.48746     -40.640463    
  22730000   266.12127     -418.35611     -329.22863     -418.27027      0              7224.9275      30.957001      21.340725      32.773236      21651.47       6960.2307      7099.4654      7615.0864      1105.8333      591.70602      1208.1387    
  22732000   262.70052     -418.77035     -330.78852     -418.71805      0              5235.0491      30.957001      21.340725      32.659879      21576.581      4560.7718      5941.0202      5203.3552      573.09075      227.36127      1591.7316    
  22734000   258.43465     -417.47711     -330.92397     -417.43188      0              4184.0224      30.957001      21.340725      32.689883      21596.402      3726.4623      4524.0834      4301.5215      2809.0628     -350.36499      613.53895    
  22736000   266.53695     -417.29287     -328.02617     -417.27264      0              6151.7008      30.957001      21.340725      32.681462      21590.839      6302.3953      7434.9705      4717.7367      422.25063     -431.33084      518.77209    
  22738000   260.95377     -418.83672     -331.4399      -418.79545      0              5738.5061      30.957001      21.340725      32.878011      21720.689      5943.3996      5712.5931      5559.5254     -383.20015      1036.0646      2085.1328    
  22740000   253.20891     -421.58919     -336.78623     -421.49572      0              5344.2856      30.957001      21.340725      32.908326      21740.716      5540.1079      6464.1635      4028.5854     -463.8606      -1141.1072      1060.058     
  22742000   259.69558     -417.51644     -330.541       -417.4508       0              3881.8129      30.957001      21.340725      32.904367      21738.101      2768.1971      4897.0652      3980.1765      448.11989      327.11024     -826.78161    
  22744000   262.39535     -420.1984      -332.31878     -420.17935      0              5323.2632      30.957001      21.340725      32.750089      21636.177      4478.1864      5870.8703      5620.7328     -133.32822      1073.1199      1635.2103    
  22746000   257.28556     -416.96652     -330.79823     -416.96501      0              4397.1482      30.957001      21.340725      32.566198      21514.691      3784.7684      3516.2024      5890.4737     -769.48663      998.27633     -855.61578    
  22748000   259.75642     -420.55687     -333.56106     -420.49575      0              5084.5706      30.957001      21.340725      32.573638      21519.606      5273.5318      5018.7118      4961.4682     -667.38643     -146.16657      714.63993    
  22750000   249.25587     -420.94731     -337.46827     -420.91197      0              5440.8164      30.957001      21.340725      32.707145      21607.807      4551.0397      6297.9761      5473.4335      1474.8318     -1049.9198     -683.18876    
  22752000   254.26121     -418.49578     -333.34038     -418.48817      0              4876.0703      30.957001      21.340725      32.846105      21699.61       2933.5062      6717.3139      4977.3907      112.20412      834.85219      709.45792    
  22754000   256.38652     -418.00312     -332.13594     -417.98671      0              4451.7779      30.957001      21.340725      32.833656      21691.386      4098.8419      3210.0331      6046.4589     -354.02919      72.313216      1318.3575    
  22756000   258.88672     -420.31621     -333.61168     -420.30512      0              5363.9115      30.957001      21.340725      32.682968      21591.835      6788.0262      4452.6812      4851.0272      2378.9028     -1589.1717      163.20969    
  22758000   256.95564     -417.15011     -331.09232     -417.1186       0              6176.224       30.957001      21.340725      32.681791      21591.057      5102.53        6001.9883      7424.1539      2524.0338      2132.1559     -339.81062    
  22760000   254.88112     -420.24348     -334.88047     -420.25267      0              7587.1982      30.957001      21.340725      32.423686      21420.541      6657.4977      7781.1619      8322.9351      809.13019     -543.48854     -601.67732    
  22762000   258.07467     -417.85321     -331.42063     -417.80576      0              7881.7255      30.957001      21.340725      32.613401      21545.875      8973.6066      6673.2848      7998.2852      294.96974     -179.362        1191.0374    
  22764000   256.00599     -419.70362     -333.96388     -419.67542      0              5104.2094      30.957001      21.340725      32.745814      21633.353      5841.3586      4433.7446      5037.5251      3.2241524      326.72964     -94.694727    
  22766000   260.8725      -416.29214     -328.92254     -416.28024      0              5492.5353      30.957001      21.340725      32.552436      21505.599      7172.4675      6619.5257      2685.6127     -1254.0217      138.65499     -1144.9379    
  22768000   260.80515     -417.02344     -329.6764      -417.02624      0              5710.8131      30.957001      21.340725      32.729595      21622.638      6682.8279      5605.7605      4843.8508     -1498.1048     -250.77688     -158.19003    
  22770000   264.2423      -419.28912     -330.79093     -419.28983      0              8534.518       30.957001      21.340725      32.60197       21538.323      8431.1059      7337.3958      9835.0522      151.67551      920.80896     -1106.4704    
  22772000   259.28437     -419.08951     -332.25179     -419.08561      0              7594.1595      30.957001      21.340725      32.597306      21535.242      4755.3026      10728.637      7298.5395     -92.142259     -248.06004      14.822783    
  22774000   254.13244     -418.85513     -333.74287     -418.85381      0              5970.5809      30.957001      21.340725      32.596112      21534.453      5732.3745      8000.8029      4178.5652     -1595.9939     -303.93742     -111.9529     
  22776000   260.84537     -418.79788     -331.43736     -418.79105      0              7316.5167      30.957001      21.340725      32.623296      21552.412      6322.3414      8223.4111      7403.7975     -585.09938      98.379388     -1284.768     
  22778000   255.09231     -417.72815     -332.29441     -417.72662      0              7271.9011      30.957001      21.340725      32.654615      21573.103      8371.9621      8101.1407      5342.6007     -1014.0833     -163.35749     -1214.7893    
  22780000   257.6055      -417.90604     -331.6306      -417.91861      0              4827.9834      30.957001      21.340725      32.706311      21607.256      6939.5073      3794.6707      3749.7721     -717.79249     -1044.4141     -1284.3372    
  22782000   262.27414     -416.86618     -329.02715     -416.87437      0              6219.6515      30.957001      21.340725      32.70829       21608.563      6832.9727      5934.2115      5891.7702      209.4274      -669.68092     -838.01214    
  22784000   253.63506     -419.20989     -334.2642      -419.22009      0              3100.5469      30.957001      21.340725      32.767373      21647.596      3636.8038      3236.3726      2428.4641      46.496619      1286.8329      418.0097     
  22786000   257.93303     -417.6048      -331.21967     -417.62797      0              5895.8962      30.957001      21.340725      32.664434      21579.59       6292.5717      5142.9604      6252.1565     -572.47163     -1806.1467     -391.63072    
  22788000   260.54808     -418.39178     -331.13083     -418.36227      0              3475.0937      30.957001      21.340725      32.751834      21637.331      5199.8529      3421.5861      1803.8419     -1250.8734      699.08381     -777.09508    
  22790000   255.89532     -417.19577     -331.49309     -417.21224      0              7182.9741      30.957001      21.340725      32.685208      21593.314      8713.8262      6430.0281      6405.0681      1033.6125     -393.33414     -548.52845    
  22792000   265.77611     -417.19623     -328.18434     -417.20884      0              5979.9069      30.957001      21.340725      32.812438      21677.368      5409.512       6369.5126      6160.6961     -735.36855     -622.37029     -1422.3174    
  22794000   260.7054      -418.73977     -331.42613     -418.76397      0              4616.2664      30.957001      21.340725      32.812002      21677.08       4154.1281      5794.0559      3900.6153     -1157.4126      38.744045     -730.6717     
  22796000   260.46871     -420.61811     -333.38374     -420.63232      0              5425.1764      30.957001      21.340725      32.666022      21580.639      5442.6589      5317.2203      5515.6501      480.20963     -702.13511     -815.17863    
  22798000   258.54229     -419.99773     -333.40855     -420.02421      0              6466.5014      30.957001      21.340725      32.734453      21625.847      4982.3535      7975.0723      6442.0784     -49.650554      264.94709     -1090.1587    
  22800000   258.39175     -418.85325     -332.31448     -418.8563       0              7154.9818      30.957001      21.340725      32.813941      21678.361      7891.635       6161.614       7411.6964      1975.0877      333.48786     -2119.7242    
  22802000   261.5304      -420.40759     -332.81765     -420.4134       0              5921.8938      30.957001      21.340725      32.908187      21740.624      6348.9592      5225.2984      6191.4237     -724.0615       222.77929     -364.13662    
  22804000   257.27062     -419.45066     -333.28737     -419.48235      0              2896.2396      30.957001      21.340725      32.946791      21766.128      4018.7704      2804.7195      1865.2289      615.90016     -111.50818     -174.82706    
  22806000   259.59787     -418.41118     -331.46847     -418.40695      0              7659.8365      30.957001      21.340725      32.717962      21614.953      8190.5782      6513.91        8275.0214      108.1648       1096.2785      927.77415    
  22808000   251.70108     -417.46378     -333.16581     -417.49009      0              4239.361       30.957001      21.340725      32.754802      21639.291      4408.5056      4588.1966      3721.3808     -1387.6919      2213.1992     -1257.568     
  22810000   256.52776     -418.58114     -332.66665     -418.58489      0              7281.7688      30.957001      21.340725      32.716392      21613.915      7463.7539      8206.3455      6175.207       9.5635168      108.35829      780.23618    
  22812000   257.00639     -417.67613     -331.60134     -417.70738      0              5319.1217      30.957001      21.340725      32.679295      21589.408      4773.8309      5390.5231      5793.0111     -1483.1465     -473.71209     -679.65749    
  22814000   262.92999     -415.84208     -327.7834      -415.82511      0              7403.2905      30.957001      21.340725      32.571832      21518.413      8846.5574      6336.5302      7026.7838      312.99517      404.22391     -2790.5204    
  22816000   257.71619     -416.74585     -330.43334     -416.71868      0              6756.0853      30.957001      21.340725      32.463119      21446.592      6909.1325      4875.1235      8484           354.31166      635.07964     -66.886218    
  22818000   264.30962     -422.69338     -334.17264     -422.66585      0              8160.4265      30.957001      21.340725      32.501083      21471.673      7090.5926      8624.4149      8766.2719     -1215.9347      790.47255     -934.6493     
  22820000   256.14422     -417.76103     -331.975       -417.72654      0              8841.1836      30.957001      21.340725      32.560611      21511          9625.8282      8673.8026      8223.9201      700.24414     -277.64572     -31.740746    
  22822000   263.08291     -419.37571     -331.26582     -419.36507      0              3892.6551      30.957001      21.340725      32.756386      21640.337      4541.3881      3751.342       3385.2353      752.24892     -243.70181     -135.24033    
  22824000   258.99347     -418.93419     -332.1939      -418.9476       0              5404.341       30.957001      21.340725      32.824676      21685.453      3432.3027      5661.5101      7119.2102      461.86246      1464.8776     -161.64468    
  22826000   262.57388     -421.31834     -333.37893     -421.32216      0              6857.307       30.957001      21.340725      32.623554      21552.583      7811.6551      7569.1372      5191.1287      152.32835     -535.16667      297.06631    
  22828000   259.89388     -420.0305      -332.98865     -420.01042      0              7393.235       30.957001      21.340725      32.42744       21423.021      8435.8764      5724.3534      8019.4753     -651.40696     -66.92979      -852.95706    
  22830000   259.96797     -419.80612     -332.73945     -419.79857      0              6542.2144      30.957001      21.340725      32.612494      21545.276      7064.5912      6215.843       6346.209      -767.91374     -379.71428     -208.82969    
  22832000   262.49978     -418.61282     -330.69822     -418.6102       0              5410.3615      30.957001      21.340725      32.75347       21638.411      4402.6407      6732.7053      5095.7386      1210.8017     -515.44253      768.91457    
  22834000   258.56386     -421.43372     -334.83732     -421.42202      0              6262.4141      30.957001      21.340725      32.660821      21577.203      7019.6524      5319.2855      6448.3044      1135.8738     -1017.9826     -1297.9678    
  22836000   264.28676     -418.90043     -330.38735     -418.90321      0              5793.9003      30.957001      21.340725      32.694492      21599.447      4272.2455      6240.5402      6868.9154     -637.9432       534.12483     -975.26847    
  22838000   259.35942     -418.52084     -331.65799     -418.53067      0              4490.5577      30.957001      21.340725      32.787342      21660.788      4010.0507      4912.725       4548.8973      388.65872     -661.53733     -912.48268    
  22840000   263.42192     -422.56502     -334.34159     -422.53781      0              5721.3561      30.957001      21.340725      32.650472      21570.366      7215.3165      7018.6965      2930.0552     -366.61983     -485.99959     -347.51386    
  22842000   257.41803     -422.35912     -336.14647     -422.33703      0              5975.8107      30.957001      21.340725      32.625228      21553.689      7553.3144      5811.8113      4562.3064     -1073.8864     -1153.3714     -1522.0353    
  22844000   256.77666     -418.6432      -332.64535     -418.61945      0              4720.8071      30.957001      21.340725      32.701601      21604.144      7463.3123      5847.0242      852.08487      1754.709      -577.05253     -113.68442    
  22846000   254.77071     -422.45092     -337.12489     -422.43082      0              3818.8983      30.957001      21.340725      32.783284      21658.107      2896.9393      3703.0951      4856.6605     -546.76104      814.56553     -258.7675     
  22848000   263.59192     -420.23635     -331.95598     -420.22484      0              6863.8645      30.957001      21.340725      32.559518      21510.278      6048.2105      6907.6268      7635.7561      1161.404       584.1579      -240.40679    
  22850000   266.06342     -419.11717     -330.00906     -419.11201      0              4236.3359      30.957001      21.340725      32.494137      21467.084      3079.5338      5266.0501      4363.4238     -1016.1432      605.16029     -1797.2245    
  22852000   258.16607     -418.63643     -332.17325     -418.6161       0              5852.614       30.957001      21.340725      32.516851      21482.09       4840.4949      6667.887       6049.4602     -108.35677      1228.4754     -154.59046    
  22854000   259.69929     -418.67332     -331.69664     -418.65207      0              5420.0053      30.957001      21.340725      32.397117      21402.988      5381.2008      5183.2443      5695.5709     -609.90593     -422.1493       1760.762     
  22856000   259.24179     -420.20634     -333.38288     -420.19835      0              8205.178       30.957001      21.340725      32.486672      21462.152      7777.3681      7704.2511      9133.9148     -756.84455     -191.40957      1752.8673    
  22858000   256.04259     -420.34404     -334.59204     -420.32268      0              7153.5372      30.957001      21.340725      32.390001      21398.287      4902.7256      7329.7585      9228.1275      352.64336      2621.0525      2809.6639    
  22860000   262.15659     -419.33475     -331.53509     -419.33461      0              4205.4068      30.957001      21.340725      32.423958      21420.721      4327.4745      5259.4677      3029.2783     -427.73951      2018.8333      1414.1579    
  22862000   261.33826     -420.13636     -332.61077     -420.12309      0              5889.6926      30.957001      21.340725      32.63807       21562.173      4278.4609      7205.5082      6185.1086     -1188.0319      1006.1323     -476.44689    
  22864000   255.1346      -421.93452     -336.48661     -421.93724      0              4858.9086      30.957001      21.340725      32.642423      21565.048      3076.8415      6018.1951      5481.6893      1823.1232      639.45887      28.514774    
  22866000   259.63993     -420.46663     -333.50983     -420.46148      0              5457.3345      30.957001      21.340725      32.619344      21549.802      5351.2711      3923.7828      7096.9494      2363.1985      167.44517      1965.3047    
  22868000   270.26894     -419.31809     -328.8015      -419.3192       0              6172.9715      30.957001      21.340725      32.485873      21461.624      5574.8743      5961.1157      6982.9243      1065.4884     -695.69978      1168.2955    
  22870000   261.08021     -420.2263      -332.78713     -420.2297       0              7452.8816      30.957001      21.340725      32.572944      21519.148      7846.6768      4660.867       9851.1009     -161.04025     -190.91077      488.51387    
  22872000   264.45355     -419.34466     -330.77572     -419.35259      0              4159.5892      30.957001      21.340725      32.780295      21656.133      4328.5457      5552.1279      2598.0941      766.95038     -503.87601     -631.55259    
  22874000   258.69998     -414.96231     -328.32031     -414.95036      0              4508.4903      30.957001      21.340725      32.640519      21563.79       5069.8988      3446.059       5009.513       816.57803      404.19561     -396.35846    
  22876000   263.9063      -421.92785     -333.54219     -421.89414      0              7453.449       30.957001      21.340725      32.640591      21563.838      9089.7742      7074.6634      6195.9093      1202.8763     -747.96144     -37.25602     
  22878000   259.3304      -422.15735     -335.30422     -422.15307      0              8333.5294      30.957001      21.340725      32.605333      21540.545      8818.1901      8832.6433      7349.7547      2056.2469      1136.6054     -30.305148    
  22880000   266.31735     -419.55642     -330.36326     -419.56159      0              5470.194       30.957001      21.340725      32.647969      21568.712      4683.3574      5305.9645      6421.2603     -100.78558      1514.9036     -79.937395    
  22882000   255.22951     -418.68294     -333.20325     -418.65548      0              7047.6757      30.957001      21.340725      32.491279      21465.196      8562.4914      6789.3891      5791.1466      542.0614       606.77378     -633.23316    
  22884000   262.41289     -418.85925     -330.97375     -418.86831      0              6214.7976      30.957001      21.340725      32.67509       21586.63       6089.2569      8459.4242      4095.7118     -9.4259327      700.14149     -1725.8152    
  22886000   264.06446     -422.70218     -334.26354     -422.69165      0              7161.4484      30.957001      21.340725      32.444582      21434.346      6770.8598      7779.3977      6934.0878     -169.37184      30.017694     -1135.5016    
  22888000   264.5693      -420.23057     -331.62286     -420.21957      0              5573.1661      30.957001      21.340725      32.549136      21503.419      4383.5541      6072.035       6263.9093     -621.36751      1682.2677      1225.9929    
  22890000   257.47586     -419.57312     -333.3411      -419.57028      0              4339.2121      30.957001      21.340725      32.592337      21531.959      5768.9417      4762.6344      2486.0601     -230.50794     -1990.2141      499.83287    
  22892000   265.9139      -418.43786     -329.37983     -418.43396      0              5786.1298      30.957001      21.340725      32.688565      21595.532      5494.0211      7079.2748      4785.0935      95.840308     -514.04182      220.64579    
  22894000   260.58268     -417.78551     -330.51298     -417.79548      0              6213.0426      30.957001      21.340725      32.615965      21547.569      7191.6252      5675.8541      5771.6483     -2639.0993     -33.687917      478.71061    
  22896000   256.23563     -421.19697     -335.38031     -421.19749      0              6511.3435      30.957001      21.340725      32.549972      21503.971      4999.8648      7828.3107      6705.8551     -251.98681     -378.79909     -1283.8969    
  22898000   257.31962     -417.49008     -331.31039     -417.50214      0              5722.1735      30.957001      21.340725      32.637421      21561.744      4396.4774      5705.3427      7064.7003      1011.9191      838.82524      2016.9733    
  22900000   256.72819     -419.60121     -333.61959     -419.61574      0              4837.0109      30.957001      21.340725      32.694862      21599.692      3956.6648      4668.4659      5885.9022     -737.7971       365.59147      524.37852    
  22902000   254.61596     -419.77047     -334.49626     -419.78266      0              6619.0249      30.957001      21.340725      32.630881      21557.423      6754.3209      7379.1083      5723.6454     -1632.1997      751.0443      -306.22357    
  22904000   259.2         -419.45218     -332.64272     -419.45018      0              6400.2951      30.957001      21.340725      32.508656      21476.676      8134.9973      6874.151       4191.7369     -551.05208      40.888464      1240.0772    
  22906000   266.10826     -420.67631     -331.55318     -420.66963      0              8767.1836      30.957001      21.340725      32.414755      21414.641      9299.911       8637.752       8363.8878      155.62585      191.56008      386.99885    
  22908000   262.97924     -420.83264     -332.75746     -420.82967      0              6285.0042      30.957001      21.340725      32.531599      21491.833      5231.9396      7779.3647      5843.7083      1639.2638     -474.65364      458.52965    
  22910000   257.43625     -420.00071     -333.78196     -420.01492      0              4277.6363      30.957001      21.340725      32.491855      21465.576      3563.6887      4377.4416      4891.7786     -909.42941     -1376.8906     -1339.9075    
  22912000   256.98199     -422.4832      -336.41658     -422.48308      0              6383.4668      30.957001      21.340725      32.598087      21535.758      6146.9492      6466.8834      6536.5677      1418.6705     -2696.3301      731.87385    
  22914000   261.3853      -419.14571     -331.60437     -419.15049      0              6163.5683      30.957001      21.340725      32.430793      21425.236      4915.3889      7001.3474      6573.9686      7.2136553      186.65751      259.16143    
  22916000   259.13227     -421.55829     -334.77152     -421.55233      0              5046.0433      30.957001      21.340725      32.6244        21553.142      5897.4448      4010.7253      5229.9598     -698.09575      1123.0601     -1339.0987    
  22918000   260.53152     -421.57129     -334.31589     -421.55648      0              5872.7995      30.957001      21.340725      32.404095      21407.598      7698.4443      4497.9161      5422.0381     -734.23201     -1004.9831      319.5706     
  22920000   270.89422     -422.53505     -331.80905     -422.54914      0              7530.9895      30.957001      21.340725      32.590097      21530.48       6435.168       7321.6992      8836.1013     -139.42902     -1249.8063      1953.8423    
  22922000   253.73398     -418.24651     -333.26769     -418.19337      0              5375.7189      30.957001      21.340725      32.313673      21347.862      6629.5826      5588.384       3909.1901      127.48549     -392.21266      145.01043    
  22924000   254.50154     -420.48458     -335.24869     -420.42925      0              6484.9463      30.957001      21.340725      32.16179       21247.521      9523.9282      6018.9128      3911.9979     -228.40919     -2056.6973      696.11494    
  22926000   267.565       -420.64128     -331.03027     -420.58948      0              7421.4887      30.957001      21.340725      32.251697      21306.917      7645.7411      7669.8376      6948.8872      972.29035     -130.58151      303.65659    
  22928000   263.93706     -421.47484     -333.07888     -421.37793      0              7355.0833      30.957001      21.340725      32.3038        21341.339      5936.5968      7554.8291      8573.824       1125.2168     -1424.8599     -423.46957    
[...]
  25734000   263.26605     -417.91669     -329.74546     -417.90449      0              6580.0012      30.957001      21.340725      32.25493       21309.053      8264.3432      7022.4134      4453.2469      128.74978     -653.58882     -1281.2334    
  25736000   265.64477     -418.25047     -329.28258     -418.23814      0              7273.8618      30.957001      21.340725      32.3314        21359.573      7598.6088      7290.1494      6932.8273      627.98262      794.00153     -1023.4464    
  25738000   258.83453     -417.85261     -331.16556     -417.84521      0              6537.3356      30.957001      21.340725      32.594499      21533.388      7022.0833      5680.9002      6909.0234      449.09219      348.61796     -432.26467    
  25740000   255.86613     -417.46948     -331.77657     -417.44596      0              4786.1088      30.957001      21.340725      32.484537      21460.742      2969.3236      7085.3896      4303.6133     -301.49309     -1407.9257     -563.96581    
  25742000   261.75698     -416.08674     -328.42091     -416.08214      0              6830.9216      30.957001      21.340725      32.567062      21515.262      7522.1518      6941.6517      6028.9612      163.31755      60.367117     -162.41245    
  25744000   263.0991      -413.94301     -325.8277      -413.93788      0              7450.8035      30.957001      21.340725      32.575751      21521.002      6584.1263      6710.0537      9058.2305      2866.7279     -1055.6757      1132.8752    
  25746000   256.91397     -415.72341     -329.67958     -415.70205      0              4525.1118      30.957001      21.340725      32.454096      21440.631      5814.9602      4527.5652      3232.8099     -888.98992     -806.88792     -859.80107    
  25748000   257.26686     -418.95573     -332.7937      -418.9508       0              6425.2146      30.957001      21.340725      32.392971      21400.249      7238.4583      5130.669       6906.5164     -1808.3429      600.86929     -1354.7162    
  25750000   261.06769     -415.50234     -328.06737     -415.49837      0              6086.9397      30.957001      21.340725      32.367246      21383.254      6963.5748      4859.0739      6438.1704      338.976        669.58008      105.24145    
  25752000   255.82345     -416.04136     -330.36275     -416.01905      0              7107.5947      30.957001      21.340725      32.319416      21351.655      6607.0464      7073.5862      7642.1515      67.235802     -204.36035      241.95441    
  25754000   253.13865     -415.65308     -330.87365     -415.62934      0              4610.0456      30.957001      21.340725      32.506706      21475.388      5738.7554      5290.0093      2801.3721      381.58655      7.811938       915.87075    
  25756000   256.55829     -415.90401     -329.9793      -415.887        0              5086.9039      30.957001      21.340725      32.315104      21348.807      4610.3039      3921.4139      6728.9939      13.875554      1285.1646      1354.8234    
  25758000   259.09402     -415.88718     -329.11322     -415.86574      0              8524.7343      30.957001      21.340725      32.323929      21354.637      8029.1896      7642.476       9902.5372     -1207.1059     -291.37858     -656.87272    
  25760000   262.70918     -418.51053     -330.5258      -418.49205      0              5591.8789      30.957001      21.340725      32.45388       21440.489      3206.8457      7041.3917      6527.3993     -719.82263     -757.81331     -222.83917    
  25762000   264.80281     -417.63909     -328.95317     -417.63347      0              6497.7245      30.957001      21.340725      32.522706      21485.958      6992.6353      7076.382       5424.1561      1851.6381     -109.24881      679.9148     
  25764000   267.57226     -415.67574     -326.0623      -415.67128      0              7340.4385      30.957001      21.340725      32.568298      21516.078      8264.8303      8044.0407      5712.4445     -1520.6573     -613.73344     -492.20344    
  25766000   262.78129     -416.79822     -328.78934     -416.79384      0              4329.8285      30.957001      21.340725      32.506752      21475.418      3116.4643      4872.2557      5000.7655     -0.2834697     -1450.535       510.76846    
  25768000   263.67701     -418.51358     -330.20471     -418.49503      0              6401.3994      30.957001      21.340725      32.489532      21464.042      7127.0591      6518.5105      5558.6287     -726.18984     -716.23371      651.45594    
  25770000   258.22253     -417.04285     -330.56076     -417.03628      0              4972.9202      30.957001      21.340725      32.543862      21499.935      4269.2496      5769.9442      4879.567       580.87383      673.61764      999.4941     
  25772000   266.72823     -420.57932     -331.24856     -420.56795      0              4226.327       30.957001      21.340725      32.632399      21558.426      2246.0075      4996.5811      5436.3923      30.068775      1310.8902      117.68679    
  25774000   262.67551     -416.74074     -328.76729     -416.7189       0              7931.5654      30.957001      21.340725      32.524746      21487.306      7718.1922      7790.9947      8285.5093     -35.202626      1448.4504      1608.3312    
  25776000   261.66116     -420.16358     -332.52984     -420.15975      0              4614.3103      30.957001      21.340725      32.44312       21433.38       3681.0964      5062.3661      5099.4684      62.828764      329.43171      724.00488    
  25778000   266.84403     -418.29208     -328.92254     -418.28853      0              6722.136       30.957001      21.340725      32.474694      21454.239      5601.3591      7937.085       6627.9639     -186.65276      810.89527      973.39813    
  25780000   264.16233     -418.3353      -329.86389     -418.31329      0              5777.5492      30.957001      21.340725      32.429403      21424.318      5616.7252      5043.3055      6672.6169      1176.4265     -439.0328       904.05565    
  25782000   266.19175     -419.87852     -330.72743     -419.87434      0              5718.6105      30.957001      21.340725      32.371983      21386.384      4590.0932      7675.1342      4890.6039     -1040.8934      305.55657     -1179.5335    
  25784000   262.92545     -419.16185     -331.10469     -419.14433      0              6835.2065      30.957001      21.340725      32.444988      21434.614      8419.9707      7169.3854      4916.2635     -669.57371      431.02812     -1134.0735    
  25786000   259.86754     -414.82357     -327.79054     -414.82749      0              5643.3448      30.957001      21.340725      32.548803      21503.199      4145.1115      7045.4848      5739.438       188.23978      2408.2422      1090.8496    
  25788000   264.15708     -417.00509     -328.53545     -417.00174      0              5941.0153      30.957001      21.340725      32.579746      21523.641      5372.3148      5588.687       6862.044       693.82192      1685.6846     -3.6479508    
  25790000   260.40104     -416.88208     -329.67038     -416.88049      0              5592.4675      30.957001      21.340725      32.356184      21375.946      5818.5469      6430.1105      4528.745      -153.39965     -624.71302      831.05448    
  25792000   258.4494      -416.1207      -329.56262     -416.11727      0              6966.4473      30.957001      21.340725      32.42926       21424.224      6711.1254      4897.9704      9290.2462      1170.2538     -315.37098     -93.911186    
  25794000   261.29408     -417.95113     -330.44034     -417.9728       0              4590.869       30.957001      21.340725      32.447937      21436.563      6602.5024      5282.5454      1887.5591     -140.02532      954.26856     -1006.5648    
  25796000   264.37741     -418.52852     -329.98507     -418.52269      0              6501.8213      30.957001      21.340725      32.504767      21474.107      6533.1594      6254.9227      6717.3819      1266.633       867.46271      485.29517    
  25798000   262.78515     -422.38572     -334.37555     -422.38028      0              5558.1512      30.957001      21.340725      32.463925      21447.125      6646.9423      2765.1978      7262.3135     -666.27175      17.887767      898.73296    
  25800000   260.9147      -417.25847     -329.87473     -417.26063      0              5173.177       30.957001      21.340725      32.530914      21491.381      3573.9483      7973.7012      3971.8816      304.47988     -153.76401     -412.8991     
  25802000   258.25429     -415.30005     -328.80732     -415.31133      0              6728.2453      30.957001      21.340725      32.584992      21527.107      6412.2663      6245.0213      7527.4484     -1360.6273      230.60918     -74.380863    
  25804000   258.04891     -416.37116     -329.94722     -416.4238       0              6188.3066      30.957001      21.340725      32.651782      21571.231      5424.4708      6804.6619      6335.7871      1677.877      -1163.9025      919.64894    
  25806000   262.86419     -418.50234     -330.46569     -418.50189      0              5777.3977      30.957001      21.340725      32.556657      21508.388      4375.1894      8938.5561      4018.4476     -1502.8048     -1477.132       100.19598    
  25808000   263.87816     -413.85317     -325.47693     -413.8613       0              3188.6757      30.957001      21.340725      32.69061       21596.883      3597.8363      2540.6175      3427.5732     -3.1234781     -369.49299      854.90734    
  25810000   261.04604     -417.09774     -329.67001     -417.12134      0              6092.5408      30.957001      21.340725      32.551483      21504.969      6575.8961      5477.1889      6224.5374     -264.19597      874.50247     -843.5705     
  25812000   254.39217     -419.67126     -334.47201     -419.64949      0              6304.2912      30.957001      21.340725      32.636465      21561.113      7765.3318      5620.2129      5527.329      -96.862627     -2405.8032      78.553077    
  25814000   262.42389     -418.09057     -330.20139     -418.08088      0              9239.8137      30.957001      21.340725      32.642762      21565.273      9876.7905      9330.7321      8511.9184      1454.9034     -1277.4688     -37.723824    
  25816000   259.05276     -418.64315     -331.883       -418.64665      0              6478.5869      30.957001      21.340725      32.707729      21608.193      4746.9523      5909.7526      8779.0559      675.95256     -75.557323      1618.8828    
  25818000   257.54653     -421.49776     -335.24206     -421.49472      0              5417.8613      30.957001      21.340725      32.621002      21550.897      5626.2724      2801.235       7826.0766     -1772.8488     -70.030527      659.57143    
  25820000   260.32468     -416.12083     -328.9347      -416.10433      0              3330.4242      30.957001      21.340725      32.593776      21532.91       4806.5016      2673.2381      2511.5329     -836.0264       359.30927      493.06903    
  25822000   257.59861     -419.89356     -333.62043     -419.89046      0              6331.4444      30.957001      21.340725      32.638678      21562.575      5367.0865      6485.1821      7142.0645      1736.3156      67.554509      1645.2322    
  25824000   261.16977     -417.8282      -330.35904     -417.80514      0              4449.4674      30.957001      21.340725      32.547386      21502.263      4519.4335      3994.6974      4834.2713      144.65542     -591.14559      275.28701    
  25826000   258.00525     -418.70334     -332.29402     -418.68128      0              7954.146       30.957001      21.340725      32.404058      21407.574      6742.0898      9362.8773      7757.471       323.34489     -841.69231      720.68058    
  25828000   256.52209     -419.40423     -333.49164     -419.40136      0              4324.7173      30.957001      21.340725      32.399728      21404.713      3601.6865      3074.2691      6298.1963      683.19328      1247.4757     -649.0907     
  25830000   266.89149     -417.42349     -328.03805     -417.42331      0              7403.434       30.957001      21.340725      32.3982        21403.704      7034.7954      7344.2842      7831.2223     -354.79978      1686.8421      179.1068     
  25832000   266.40165     -416.90029     -327.6789      -416.88475      0              6833.9642      30.957001      21.340725      32.381629      21392.756      4430.3759      6628.8413      9442.6754      383.3179      -235.34519      595.04261    
  25834000   258.15606     -417.12126     -330.66144     -417.10601      0              7129.6254      30.957001      21.340725      32.555419      21507.57       7821.6096      6933.1732      6634.0935     -514.63038      1828.8733     -385.72344    
  25836000   261.92433     -422.01624     -334.29437     -422.01526      0              3429.1046      30.957001      21.340725      32.55536       21507.531      3547.6372      2747.2697      3992.4069     -6.156557       1558.7655     -187.39846    
  25838000   253.64854     -419.51891     -334.56871     -419.50573      0              5017.6757      30.957001      21.340725      32.509823      21477.447      4906.9896      6433.9537      3712.0837      374.90158      661.50499     -1591.1956    
  25840000   259.66097     -417.23275     -330.26891     -417.22384      0              6718.5695      30.957001      21.340725      32.439321      21430.87       7207.722       6404.2395      6543.7471      167.66571      95.486612     -34.437349    
  25842000   257.80267     -419.98119     -333.63971     -419.96527      0              6389.1489      30.957001      21.340725      32.337691      21363.729      7235.3282      5549.0252      6383.0933      270.89917     -325.8933      -498.79483    
  25844000   262.62807     -422.03859     -334.08103     -422.01616      0              4359.9674      30.957001      21.340725      32.541194      21498.172      3842.1547      5938.2949      3299.4526      2942.5846      1177.6548      426.85097    
  25846000   263.69021     -421.71961     -333.40632     -421.70193      0              6023.7377      30.957001      21.340725      32.553177      21506.088      6506.4399      5999.7796      5564.9937      1683.829      -150.20023     -1722.4189    
  25848000   259.96136     -421.0283      -333.96385     -421.01352      0              7332.1112      30.957001      21.340725      32.61126       21544.461      9138.3987      6371.5579      6486.3769      1869.5053     -512.4926      -781.18438    
  25850000   265.24188     -419.86154     -331.02858     -419.83917      0              6595.2474      30.957001      21.340725      32.64487       21566.665      7407.996       4820.0638      7557.6823     -223.86699     -956.61935     -1301.5735    
  25852000   259.89378     -421.82128     -334.77946     -421.8076       0              5670.2371      30.957001      21.340725      32.597925      21535.651      6905.9098      6437.8627      3666.9387     -62.607469     -623.90093     -1423.7197    
  25854000   257.3164      -420.38494     -334.20633     -420.36914      0              5013.9383      30.957001      21.340725      32.672939      21585.209      4011.8107      5324.1202      5705.884       81.862634      579.02766     -931.807      
  25856000   258.39877     -419.53301     -332.9919      -419.51087      0              4708.8688      30.957001      21.340725      32.642179      21564.888      4490.2504      6073.6323      3562.7236      603.11912      91.179729     -307.52961    
  25858000   266.34268     -421.82332     -332.62169     -421.80313      0              4259.3445      30.957001      21.340725      32.668891      21582.534      3323.0819      5446.6456      4008.3061      1907.3539      103.57002     -560.46035    
  25860000   256.56351     -419.70095     -333.77449     -419.67943      0              4965.1725      30.957001      21.340725      32.420156      21418.209      3491.7342      6717.7128      4686.0704      193.99892      632.59809     -24.003905    
  25862000   266.55353     -421.18742     -331.91516     -421.17457      0              6397.0403      30.957001      21.340725      32.567997      21515.879      6951.4406      7708.3951      4531.2852     -864.51083     -1534.2039      961.52358    
  25864000   267.18534     -420.70694     -331.22309     -420.69002      0              6974.9344      30.957001      21.340725      32.603654      21539.436      6994.5365      8227.1514      5703.1152      859.19802     -1020.3825      351.51488    
  25866000   259.09887     -422.42889     -335.6533      -422.4108       0              4607.7627      30.957001      21.340725      32.637462      21561.771      3984.9006      5610.2455      4228.142      -932.49996     -457.16934      669.3548     
  25868000   260.45604     -419.21559     -331.98547     -419.1979       0              6970.239       30.957001      21.340725      32.696539      21600.8        6672.7964      7461.62        6776.3007      2249.0644      1075.9562     -461.10512    
  25870000   263.46879     -417.40661     -329.16748     -417.38571      0              5970.0355      30.957001      21.340725      32.502394      21472.539      7433.434       5091.5605      5385.112       922.74564     -1305.3746      1489.8689    
  25872000   256.78672     -417.11169     -331.11047     -417.1169       0              4682.9183      30.957001      21.340725      32.555102      21507.36       5766.0024      2807.3775      5475.375      -1234.3561     -2019.7749     -597.09837    
  25874000   260.34285     -419.25349     -332.06128     -419.25078      0              8245.0239      30.957001      21.340725      32.588986      21529.746      7890.8079      7522.9817      9321.2819     -912.98018      1035.3293      392.17167    
  25876000   258.16281     -422.2399      -335.77781     -422.22057      0              3724.6264      30.957001      21.340725      32.5454        21500.951      1368.5816      5073.4703      4731.8273      1774.8948     -1303.8874      304.27744    
  25878000   256.66937     -416.37205     -330.41013     -416.3531       0              4294.4342      30.957001      21.340725      32.538818      21496.602      6493.7816      3234.7723      3154.7489     -1890.1377     -735.30462     -541.53626    
  25880000   256.74065     -418.65752     -332.67173     -418.63989      0              6870.4145      30.957001      21.340725      32.488602      21463.428      7394.9385      6878.3367      6337.9682     -242.7011       219.90421     -626.11968    
  25882000   256.75635     -419.85632     -333.86527     -419.83728      0              7408.5167      30.957001      21.340725      32.397515      21403.252      8280.3885      5797.8562      8147.3053      216.36982      153.79061     -1701.7918    
  25884000   260.14352     -421.49768     -334.37222     -421.487        0              6469.402       30.957001      21.340725      32.453219      21440.052      3564.2867      4721.4684      11122.451     -214.86388      1291.9994      1652.8667    
  25886000   254.26192     -419.748       -334.59237     -419.7272       0              6883.8002      30.957001      21.340725      32.537197      21495.531      5194.1923      7468.597       7988.6113     -528.45585      709.15215      723.40322    
  25888000   255.25816     -417.17314     -331.68385     -417.15279      0              5325.5614      30.957001      21.340725      32.602886      21538.928      5038.4806      6716.5474      4221.6562      1199.2983      598.9783       506.96588    
ERROR on proc 0: Cannot open restart file restart.lmp.0: Permission denied (../write_restart.cpp:233)
Last command: run             ${nsteps_enhanced_coex_upto} upto
