LAMMPS (23 Jun 2022)
units           metal
atom_style	full
box tilt large
read_data	water.data
Reading data file ...
  triclinic box = (0 0 0) to (30.957001 21.340725 30.865164) with tilt (-9.151055 1.004704 -10.217777)
  2 by 1 by 2 MPI processor grid
  reading atoms ...
  2592 atoms
  reading velocities ...
  2592 velocities
Finding 1-2 1-3 1-4 neighbors ...
  special bond factors lj:    0        0        0       
  special bond factors coul:  0        0        0       
     0 = max # of 1-2 neighbors
     0 = max # of 1-3 neighbors
     0 = max # of 1-4 neighbors
     1 = max # of special neighbors
  special bonds CPU = 0.000 seconds
  read_data CPU = 0.107 seconds
write_restart   restart.lmp.0
System init for write_restart ...
Neighbor list info ...
  update every 1 steps, delay 10 steps, check yes
  max neighbors/atom: 2000, page size: 100000
  master list distance cutoff = 0
  ghost atom cutoff = 0
  binsize = 41.11276, bins = 1 1 1
  0 neighbor lists, perpetual/occasional/extra = 0 0 0
WARNING: Communication cutoff is 0.0. No ghost atoms will be generated. Atoms may get lost. (../comm_brick.cpp:210)
clear
include procedure.lmp
echo both
include		in.partitions
variable        pid world 0
include		in.temp
variable	temperature equal 260
variable        tempDamp equal 0.100 # this is 0.1 ps
include		in.pressure
variable        pressure equal 6079.5
variable        pressureDamp equal 1.0 #this is 1ps

variable	barostat string	   tri
variable	direction string   z
variable	direction_x_bool equal 0
variable	direction_y_bool equal 0
variable	direction_z_bool equal 1

include		in.seed
variable        seed world 745823

units           metal
atom_style	full
box tilt large
read_restart 	restart.lmp.${pid}
read_restart 	restart.lmp.0
Reading restart file ...
  restart file = 23 Jun 2022, LAMMPS = 23 Jun 2022
  restoring atom style full from restart
  triclinic box = (0 0 0) to (30.957001 21.340725 30.865164) with tilt (-9.151055 1.004704 -10.217777)
  2 by 1 by 2 MPI processor grid
  2592 atoms
Finding 1-2 1-3 1-4 neighbors ...
  special bond factors lj:    0        0        0       
  special bond factors coul:  0        0        0       
     0 = max # of 1-2 neighbors
     0 = max # of 1-3 neighbors
     0 = max # of 1-4 neighbors
     1 = max # of special neighbors
  special bonds CPU = 0.000 seconds
  read_restart CPU = 0.003 seconds
include 	in.setup
variable	out_freq equal 2000
variable	out_freq2 equal 2000

timestep        0.0005

neigh_modify    delay 7 every 1

include         in.deepmd
# This is deepMD model

# create groups ###
#group ox type 2
#group hy type 1

mass 2 15.999
mass 1 1.008

pair_style      deepmd ../graph.pb
Summary of lammps deepmd module ...
  >>> Info of deepmd-kit:
  installed to:       /u/sigbjobo/software/DEEPMD_FROM_SOURCE/deepmd-kit/install
  source:             v2.1.3
  source branch:       master
  source commit:      5a32c49
  source commit at:   2022-07-01 09:52:58 +0800
  surpport model ver.:1.1 
  build float prec:   double
  build with tf inc:  /u/sigbjobo/software/DEEPMD_FROM_SOURCE/tensorflow/install/include;/u/sigbjobo/software/DEEPMD_FROM_SOURCE/tensorflow/install/include
  build with tf lib:  /u/sigbjobo/software/DEEPMD_FROM_SOURCE/tensorflow/install/lib/libtensorflow_cc.so;/u/sigbjobo/software/DEEPMD_FROM_SOURCE/tensorflow/install/lib/libtensorflow_framework.so
  set tf intra_op_parallelism_threads: 1
  set tf inter_op_parallelism_threads: 1
  >>> Info of lammps module:
  use deepmd-kit at:  /u/sigbjobo/software/DEEPMD_FROM_SOURCE/deepmd-kit/install
  source:             v2.1.3
  source branch:      master
  source commit:      5a32c49
  source commit at:   2022-07-01 09:52:58 +0800
  build float prec:   double
  build with tf inc:  /u/sigbjobo/software/DEEPMD_FROM_SOURCE/tensorflow/install/include;/u/sigbjobo/software/DEEPMD_FROM_SOURCE/tensorflow/install/include
  build with tf lib:  /u/sigbjobo/software/DEEPMD_FROM_SOURCE/tensorflow/install/lib/libtensorflow_cc.so;/u/sigbjobo/software/DEEPMD_FROM_SOURCE/tensorflow/install/lib/libtensorflow_framework.so
pair_coeff      * *

bond_style      none
angle_style     none
dihedral_style  none
improper_style  none
neigh_modify exclude none


neighbor        2.0 bin
neigh_modify    every 50 delay 0 check no

thermo          ${out_freq}
thermo          2000
thermo_style 	custom step temp pe etotal epair emol press lx ly lz vol pxx pyy pzz pxy pxz pyz

restart 	${out_freq} restart.lmp.${pid} restart2.lmp.${pid}
restart 	2000 restart.lmp.${pid} restart2.lmp.${pid}
restart 	2000 restart.lmp.0 restart2.lmp.${pid}
restart 	2000 restart.lmp.0 restart2.lmp.0


timer           timeout 23:50:00 every 1000
New timer settings: style=normal  mode=nosync  timeout=23:50:00


# Set number of time steps
variable 	nsteps_wall		equal	 6000000
variable 	nsteps_enhanced_coex    equal	20000000

variable     nsteps_enhanced_coex_upto equal (${nsteps_wall}+${nsteps_enhanced_coex})
variable     nsteps_enhanced_coex_upto equal (6000000+${nsteps_enhanced_coex})
variable     nsteps_enhanced_coex_upto equal (6000000+20000000)


# Set temperature for first step
if "$(step) < 1  " then    "velocity 	all create ${temperature} ${seed} dist gaussian"
velocity 	all create ${temperature} ${seed} dist gaussian
velocity 	all create 260 ${seed} dist gaussian
velocity 	all create 260 745823 dist gaussian


# Always run thermo and barostat


######################################
# Run simulation with wall potential #
######################################
if " $(step) < ${nsteps_wall} " then    "fix             3 all plumed plumedfile plumed.equil.dat outfile plumed.equil.out"   "fix             1 all nph ${direction} ${pressure} ${pressure} ${pressureDamp}"   "fix             2 all temp/csvr ${temperature} ${temperature} ${tempDamp} ${seed}"   "run             ${nsteps_wall} upto"
fix             3 all plumed plumedfile plumed.equil.dat outfile plumed.equil.out
fix             1 all nph ${direction} ${pressure} ${pressure} ${pressureDamp}
fix             1 all nph z ${pressure} ${pressure} ${pressureDamp}
fix             1 all nph z 6079.5 ${pressure} ${pressureDamp}
fix             1 all nph z 6079.5 6079.5 ${pressureDamp}
fix             1 all nph z 6079.5 6079.5 1
fix             2 all temp/csvr ${temperature} ${temperature} ${tempDamp} ${seed}
fix             2 all temp/csvr 260 ${temperature} ${tempDamp} ${seed}
fix             2 all temp/csvr 260 260 ${tempDamp} ${seed}
fix             2 all temp/csvr 260 260 0.1 ${seed}
fix             2 all temp/csvr 260 260 0.1 745823
run             ${nsteps_wall} upto
run             6000000 upto

CITE-CITE-CITE-CITE-CITE-CITE-CITE-CITE-CITE-CITE-CITE-CITE-CITE

Your simulation uses code contributions which should be cited:

- USER-DEEPMD package:

@article{Wang_ComputPhysCommun_2018_v228_p178,
  author = {Wang, Han and Zhang, Linfeng and Han, Jiequn and E, Weinan},
  doi = {10.1016/j.cpc.2018.03.016},
  url = {https://doi.org/10.1016/j.cpc.2018.03.016},
  year = 2018,
  month = {jul},
  publisher = {Elsevier {BV}},
  volume = 228,
  journal = {Comput. Phys. Commun.},
  title = {{DeePMD-kit: A deep learning package for many-body potential energy representation and molecular dynamics}},
  pages = {178--184}
}

CITE-CITE-CITE-CITE-CITE-CITE-CITE-CITE-CITE-CITE-CITE-CITE-CITE

Generated 0 of 1 mixed pair_coeff terms from geometric mixing rule
Neighbor list info ...
  update every 50 steps, delay 0 steps, check no
  max neighbors/atom: 2000, page size: 100000
  master list distance cutoff = 8
  ghost atom cutoff = 8
  binsize = 4, bins = 11 8 8
  1 neighbor lists, perpetual/occasional/extra = 1 0 0
  (1) pair deepmd, perpetual
      attributes: full, newton on
      pair build: full/bin
      stencil: full/bin/3d
      bin: standard
Per MPI rank memory allocation (min/avg/max) = 6.205 | 6.205 | 6.206 Mbytes
   Step          Temp          PotEng         TotEng         E_pair         E_mol          Press            Lx             Ly             Lz           Volume          Pxx            Pyy            Pzz            Pxy            Pxz            Pyz      
         0   260           -347.89078     -260.81339     -347.89078      0              13572.911      30.957001      21.340725      30.865164      20390.911      9042.6882      11487.454      20188.591     -459.15591      5424.5967     -1323.5367    
      2000   264.12086     -401.24942     -312.79191     -401.30763      0              8382.6607      30.957001      21.340725      32.07002       21186.894      8523.9475      7873.2262      8750.8082      2085.6674     -482.69427     -558.19352    
      4000   258.69079     -405.70452     -319.0656      -405.72752      0              5501.6543      30.957001      21.340725      32.304152      21341.571      6730.24        5740.7502      4033.9727      1141.3433     -2362.3616     -68.025282    
      6000   260.01834     -406.00686     -318.92333     -406.13391      0              5625.5126      30.957001      21.340725      32.326699      21356.467      4077.1042      6034.5909      6764.8426      265.87475      860.14357     -287.86773    
      8000   262.84592     -407.48326     -319.45274     -407.6682       0              6150.6003      30.957001      21.340725      32.363494      21380.776      5852.217       6097.0941      6502.4898     -516.93256     -50.556128      567.38283    
     10000   264.32702     -405.71079     -317.18423     -405.72785      0              7192.4926      30.957001      21.340725      32.445791      21435.144      7599.665       7830.1978      6147.6151     -1621.0812     -490.55803      356.18025    
     12000   259.82253     -406.84399     -319.82603     -406.91243      0              4687.7091      30.957001      21.340725      32.759442      21642.356      4260.4811      5356.6781      4445.9681     -1734.2902     -1270.5548      54.041746    
     14000   252.33381     -407.96203     -323.45215     -407.97473      0              4180.6654      30.957001      21.340725      32.663303      21578.843      4021.5887      4152.9831      4367.4243      391.79116     -350.15928      372.24034    
     16000   263.06492     -409.62169     -321.51782     -409.63494      0              3907.5433      30.957001      21.340725      32.60664       21541.409      2048.2378      4115.6534      5558.7387      405.09598      1902.3892      473.17602    
     18000   254.21748     -410.78932     -325.64857     -410.80657      0              6139.5342      30.957001      21.340725      32.600369      21537.266      4672.813       6981.6693      6764.1204     -38.996468      1486.0042      115.67289    
     20000   258.62935     -410.8698      -324.25146     -410.8698       0              4733.5039      30.957001      21.340725      32.48274       21459.555      1624.5824      5746.5822      6829.3472      477.91532     -80.439123     -1116.7431    
     22000   258.07775     -410.52517     -324.09156     -410.56419      0              4501.7686      30.957001      21.340725      32.629549      21556.543      3808.8229      5643.4864      4052.9966      122.32271      1174.4286     -1305.8906    
     24000   262.86364     -409.43495     -321.39849     -409.44028      0              5442.5653      30.957001      21.340725      32.642125      21564.852      4271.6365      7301.4401      4754.6195      1535.3296      441.64717     -10.344014    
     26000   264.56079     -408.04158     -319.43672     -408.04158      0              7155.4063      30.957001      21.340725      32.429472      21424.364      6550.749       7036.4054      7879.0643     -2101.8747      625.34012      614.91695    
     28000   263.91373     -413.11178     -324.72363     -413.1134       0              7177.4253      30.957001      21.340725      32.470586      21451.525      7470.249       8345.9612      5716.0657      828.0873       1773.3788      234.42404    
     30000   273.98265     -410.01534     -318.25498     -410.01825      0              6897.1707      30.957001      21.340725      32.765546      21646.389      8956.0045      6913.0539      4822.4538     -981.49908      812.27905      1376.0061    
     32000   255.16702     -410.25172     -324.79295     -410.27417      0              6824.8869      30.957001      21.340725      32.657575      21575.059      6717.4779      5987.0397      7770.1431     -1356.67        927.07944      975.44168    
     34000   258.15499     -414.39982     -327.94035     -414.44556      0              6725.4501      30.957001      21.340725      32.593091      21532.457      5137.8923      6037.2541      9001.2041      688.80841      137.15099     -327.9033     
     36000   262.82164     -413.19816     -325.17577     -413.19816      0              6593.3704      30.957001      21.340725      32.559485      21510.256      7390.3421      5951.9038      6437.8653     -506.72945     -23.507806      1665.5945    
     38000   266.05313     -410.24915     -321.14449     -410.26151      0              4780.0993      30.957001      21.340725      32.585776      21527.625      3148.7638      3824.6454      7366.8886      1053.8771     -677.33002      731.95034    
     40000   258.73108     -412.95409     -326.30168     -412.9547       0              6129.1118      30.957001      21.340725      32.760017      21642.736      6585.5847      5263.293       6538.4576      270.32582      315.39444      1213.6598    
     42000   255.68216     -410.45307     -324.82178     -410.45307      0              5877.2302      30.957001      21.340725      32.738859      21628.759      7538.4341      5938.3839      4154.8727     -875.06963     -1831.571       520.55485    
     44000   254.94219     -411.6711      -326.28763     -411.6711       0              3992.5146      30.957001      21.340725      32.838981      21694.903      5603.8688      4115.0409      2258.6342      1851.781      -598.25058      16.093467    
     46000   263.1293      -413.38561     -325.26017     -413.41786      0              4157.71        30.957001      21.340725      32.810149      21675.856      3178.8183      5861.6287      3432.683       1031.3524     -1870.9741     -1320.3576    
     48000   256.11099     -412.15619     -326.38128     -412.15619      0              5990.9339      30.957001      21.340725      32.741565      21630.546      6927.9309      7290.8325      3754.0382     -3477.7384     -1854.3884     -655.49271    
     50000   262.36338     -409.37        -321.50108     -409.40517      0              4251.8842      30.957001      21.340725      32.677217      21588.035      3993.9232      4835.9707      3925.7586     -177.98705      125.81675     -1583.004     
     52000   259.65109     -411.6817      -324.72117     -411.6817       0              7042.0926      30.957001      21.340725      32.429197      21424.182      3272.8597      7418.3617      10435.056     -303.92388      662.56751     -1208.6934    
     54000   266.678       -410.8357      -321.52176     -410.8357       0              6213.9161      30.957001      21.340725      32.633336      21559.045      5117.9757      7325.8449      6197.9276      1591.5621      635.95333     -886.45329    
     56000   264.31609     -411.02614     -322.50323     -411.07614      0              3781.1815      30.957001      21.340725      32.639542      21563.145      3302.2139      3726.6034      4314.7271     -902.77693      1473.3854     -148.63681    
     58000   253.76307     -410.99341     -326.00485     -410.99341      0              6826.2754      30.957001      21.340725      32.529368      21490.359      8207.1334      8006.9431      4264.7498     -42.889715     -936.45591     -1388.1561    
     60000   260.58035     -413.90501     -326.63326     -413.90501      0              3829.1587      30.957001      21.340725      32.795844      21666.405      2466.7766      3694.5048      5326.1948     -523.78361     -428.21811      2082.3815    
     62000   263.50579     -412.56721     -324.31568     -412.56721      0              5947.1622      30.957001      21.340725      32.542447      21499          5714.7741      6184.2005      5942.5119      1436.808      -1675.7661     -393.77236    
     64000   267.44058     -411.6178      -322.04846     -411.6178       0              5438.9283      30.957001      21.340725      32.568982      21516.53       5702.4722      6317.038       4297.2746     -297.51771      548.40816     -1394.9751    
     66000   264.12188     -409.48448     -321.02662     -409.48705      0              9755.8839      30.957001      21.340725      32.42722       21422.876      7165.5353      12961.64       9140.4769      692.16227     -1226.0105     -1804.6116    
     68000   252.99931     -412.05392     -327.32116     -412.05392      0              5999.059       30.957001      21.340725      32.42388       21420.669      7036.5031      4698.3128      6262.3611     -978.57553     -2385.1573      7.3297348    
     70000   262.55343     -414.88922     -326.95665     -414.88922      0              6760.668       30.957001      21.340725      32.516565      21481.901      6795.2329      8151.338       5335.4329     -1106.9886      524.21053      56.785563    
     72000   264.56499     -411.10048     -322.49421     -411.10096      0              5633.1486      30.957001      21.340725      32.648283      21568.92       5686.7009      7796.6318      3416.1129      214.69037      1858.4741     -2155.7058    
     74000   263.19602     -413.32708     -325.1793      -413.32708      0              7588.9082      30.957001      21.340725      32.415974      21415.446      8020.7662      8030.6387      6715.3198     -855.45466      11.79181       80.553526    
     76000   258.24646     -414.81465     -328.32455     -414.87883      0              4821.4638      30.957001      21.340725      32.604307      21539.867      6477.4656      3646.7257      4340.2001     -15.991575      1622.8214     -855.43497    
     78000   265.94025     -413.43845     -324.37159     -413.43845      0              6014.0159      30.957001      21.340725      32.59244       21532.028      4583.1357      7566.3591      5892.5528     -668.23368      8.6044578     -930.8184     
     80000   257.90291     -413.10847     -326.73342     -413.10847      0              5162.49        30.957001      21.340725      32.719333      21615.859      5613.7716      4353.9577      5519.7409      847.29378      605.87673      69.80302     
     82000   257.82688     -414.89496     -328.54538     -414.89496      0              8490.7272      30.957001      21.340725      32.580891      21524.398      5322.4479      8802.8951      11346.838      1235.1003      160.33696     -1191.6199    
     84000   261.72634     -411.50659     -323.85102     -411.50659      0              6192.6351      30.957001      21.340725      32.495229      21467.805      4785.5974      9195.606       4596.7018     -76.248999     -286.90662     -1100.6825    
     86000   265.32657     -416.1293      -327.26797     -416.1293       0              8044.4477      30.957001      21.340725      32.537522      21495.747      7444.8039      9472.3326      7216.2067     -528.84768     -60.328422      2245.1609    
     88000   258.91611     -413.91953     -327.20515     -413.91953      0              6539.5399      30.957001      21.340725      32.73638       21627.12       8150.8719      4580.9631      6886.7848      684.14483     -1682.415      -683.77771    
     90000   253.23766     -415.6669      -330.85431     -415.6669       0              5103.0797      30.957001      21.340725      32.581431      21524.755      4274.9915      6405.918       4628.3294     -1656.6414      1105.1936     -1251.8245    
     92000   258.94904     -411.79414     -325.06873     -411.79414      0              8067.3809      30.957001      21.340725      32.413236      21413.637      8027.8668      9379.2965      6794.9794     -2044.6892     -803.67989     -852.34296    
     94000   257.70293     -414.56682     -328.25875     -414.56682      0              4566.7724      30.957001      21.340725      32.621871      21551.471      3759.8974      4039.2092      5901.2107     -1329.019      -134.21007     -236.20085    
     96000   253.27323     -413.03156     -328.20705     -413.03156      0              5651.1373      30.957001      21.340725      32.634358      21559.721      6261.1861      5336.7978      5355.4279      1928.752       1626.6611      1844.0958    
     98000   252.73512     -413.18185     -328.53756     -413.18185      0              6219.0934      30.957001      21.340725      32.66466       21579.739      5012.0065      6945.8833      6699.3905     -336.9723       1418.2747      450.83007    
    100000   262.18531     -413.34321     -325.53393     -413.34323      0              5195.2691      30.957001      21.340725      32.733312      21625.094      5263.5805      4769.7248      5552.5019     -53.802597      246.84423      382.36066    
    102000   258.40992     -414.49497     -327.95012     -414.49531      0              5826.0562      30.957001      21.340725      32.634793      21560.008      6022.8995      4993.2064      6462.0629     -922.1493      -149.90918      1154.923     
    104000   259.58805     -415.20725     -328.26783     -415.20725      0              2467.9669      30.957001      21.340725      32.668902      21582.541      63.978989      2802.0605      4537.8613      1999.6745     -1259.1228     -687.53578    
    106000   263.7898      -415.95115     -327.6045      -415.95115      0              5781.7484      30.957001      21.340725      32.571315      21518.071      6648.0717      5153.53        5543.6435     -992.59196     -189.24056      171.78706    
    108000   261.8108      -413.86458     -326.18073     -413.86458      0              5853.8728      30.957001      21.340725      32.605369      21540.569      5375.4389      6177.8531      6008.3265     -878.17223      2961.2666      1787.4843    
    110000   265.24688     -415.60004     -326.76541     -415.60004      0              7042.4412      30.957001      21.340725      32.50548       21474.578      6968.9515      6048.124       8110.2481      65.620012     -209.27063      425.85982    
    112000   248.93522     -412.46601     -329.09436     -412.46601      0              3377.4295      30.957001      21.340725      32.732269      21624.405      4645.1339      1531.3716      3955.783       1390.5547      345.49808      412.08618    
    114000   262.89058     -415.06464     -327.01916     -415.06464      0              4757.684       30.957001      21.340725      32.819824      21682.247      3881.3807      5307.0773      5084.5938      389.60664     -773.8296      -243.05761    
    116000   257.3574      -416.09875     -329.9064      -416.09875      0              4379.0373      30.957001      21.340725      32.903893      21737.787      5718.2869      4372.2502      3046.5747      1288.8363     -978.20312      1754.1015    
    118000   253.4669      -414.6139      -329.72453     -414.6139       0              6358.4213      30.957001      21.340725      32.886753      21726.464      4050.5373      6230.9713      8793.7554     -947.8052       530.73314     -372.93348    
    120000   260.40991     -414.84966     -327.63499     -414.84966      0              6161.3635      30.957001      21.340725      32.742734      21631.318      4862.5147      5596.7478      8024.828      -268.75745     -309.00885      961.12009    
    122000   259.68268     -415.28975     -328.31863     -415.28975      0              8631.2971      30.957001      21.340725      32.556855      21508.519      10746.305      6749.0292      8398.5576     -1576.205      -137.21501      688.20453    
    124000   260.31544     -414.27757     -327.09453     -414.27757      0              6012.7546      30.957001      21.340725      32.648356      21568.968      5221.9582      6315.0337      6501.272       669.76077      1169.5619      19.570426    
    126000   255.20599     -413.06862     -327.59681     -413.06862      0              5206.4742      30.957001      21.340725      32.635915      21560.749      6565.2782      4452.198       4601.9462      316.18036      956.37723      2522.2732    
    128000   259.34335     -414.84249     -327.98502     -414.84249      0              6339.9557      30.957001      21.340725      32.694909      21599.723      5813.1846      5976.2082      7230.4742     -143.10689      1246.0101      674.59969    
    130000   260.02865     -415.20948     -328.1225      -415.20948      0              5397.967       30.957001      21.340725      32.651404      21570.982      7024.1972      2926.2495      6243.4543      69.463643      14.93517       1299.3895    
    132000   255.20201     -414.08072     -328.61024     -414.08072      0              7900.3837      30.957001      21.340725      32.383799      21394.19       7821.8287      6949.2348      8930.0875     -634.48652      681.31592      1530.6779    
    134000   258.024       -414.40549     -327.98988     -414.40549      0              7499.5771      30.957001      21.340725      32.513543      21479.905      6110.1706      8743.8793      7644.6812     -1690.6641      1119.2532      568.16693    
    136000   259.79046     -414.57692     -327.56971     -414.57692      0              8548.4696      30.957001      21.340725      32.490894      21464.942      7037.1789      8620.4205      9987.8095     -81.376228     -1760.7304     -2012.1       
    138000   264.04435     -414.15714     -325.72525     -414.15714      0              4146.802       30.957001      21.340725      32.509633      21477.322      4325.793       2719.6384      5394.9748     -331.58521      842.18734      794.87313    
    140000   262.94595     -414.05828     -325.99425     -414.05828      0              6338.6778      30.957001      21.340725      32.664642      21579.728      5730.929       6468.2578      6816.8465      906.65891      659.13404      1126.7587    
    142000   265.91112     -416.60293     -327.54583     -416.60293      0              5591.1855      30.957001      21.340725      32.553196      21506.101      5777.2447      4373.3851      6622.9265      1168.6402      924.4565       572.52142    
    144000   259.54406     -414.59619     -327.6715      -414.59619      0              4838.1299      30.957001      21.340725      32.489262      21463.864      2454.0019      6215.4094      5844.9784     -373.45667      999.89392     -276.78489    
    146000   261.63893     -416.50032     -328.87403     -416.50032      0              7221.3989      30.957001      21.340725      32.483472      21460.039      7912.7053      5971.3027      7780.1888     -657.61383     -1536.4234      1304.5003    
    148000   262.86324     -417.42731     -329.39098     -417.42731      0              6544.6698      30.957001      21.340725      32.453114      21439.983      6059.8248      7759.3827      5814.802       1269.412       1157.2376     -1172.292     
    150000   264.91344     -419.35603     -330.63307     -419.35603      0              8969.4751      30.957001      21.340725      32.446872      21435.859      10637.477      7391.5817      8879.3665      846.30826      1537.5182      18.174368    
    152000   259.97174     -415.86293     -328.79501     -415.86293      0              5822.2105      30.957001      21.340725      32.58311       21525.863      6763.7293      6013.2669      4689.6354     -373.84286     -379.01399     -560.86034    
    154000   258.95292     -414.4398      -327.71308     -414.4398       0              6767.331       30.957001      21.340725      32.717336      21614.539      7849.9863      6902.3531      5549.6538     -247.17349     -790.4635      -324.79642    
    156000   257.35028     -418.39121     -332.20125     -418.39121      0              4666.474       30.957001      21.340725      32.713429      21611.958      5013.8054      3693.3061      5292.3105      691.0785      -1171.3702      919.12716    
    158000   252.15627     -415.11835     -330.66793     -415.11835      0              6326.8143      30.957001      21.340725      32.624326      21553.093      7095.6302      8267.794       3617.0188     -534.19577      693.08624     -610.49685    
    160000   262.9175      -416.93489     -328.8804      -416.93489      0              4584.3519      30.957001      21.340725      32.826051      21686.361      3170.6937      6453.9056      4128.4563      339.05133     -746.60237      920.8867     
    162000   256.83153     -415.03247     -329.01624     -415.03247      0              5355.9755      30.957001      21.340725      32.817581      21680.766      5679.0762      6643.3443      3745.506       463.49225     -180.56682      1007.4839    
    164000   260.98923     -415.43503     -328.02634     -415.43503      0              6518.1652      30.957001      21.340725      32.75353       21638.451      5141.1761      6418.3         7995.0194     -137.11557      713.28826      1476.5893    
    166000   261.71466     -413.91233     -326.26068     -413.91233      0              6627.0208      30.957001      21.340725      32.734769      21626.056      6199.3393      8028.8104      5652.9126      897.02159     -947.10339      379.29367    
    168000   258.61578     -415.72172     -329.10792     -415.72172      0              5510.8176      30.957001      21.340725      32.690099      21596.545      6145.7691      5503.5553      4883.1285      858.56306      427.47515      878.01447    
    170000   261.58373     -414.65992     -327.05211     -414.65992      0              5548.7115      30.957001      21.340725      32.406875      21409.435      3227.4321      8133.7835      5284.919      -891.44348     -1058.5193     -764.44546    
    172000   259.46252     -416.25899     -329.36161     -416.25899      0              3770.984       30.957001      21.340725      32.300995      21339.486      4941.9973      2997.5997      3373.3549     -1030.781       325.98898      1364.8954    
    174000   254.52242     -416.79168     -331.5488      -416.79168      0              5816.0655      30.957001      21.340725      32.435523      21428.361      5735.1006      6972.5734      4740.5226     -927.46293     -1880.4785     -341.11342    
    176000   249.658       -416.85668     -333.24297     -416.85668      0              4433.8939      30.957001      21.340725      32.3476        21370.275      5771.8531      3935.0036      3594.8249     -844.2845       567.36027     -743.40926    
    178000   266.44317     -416.91472     -327.67943     -416.91472      0              4886.6006      30.957001      21.340725      32.607469      21541.956      3645.0997      4571.6705      6443.0315      687.39685     -1073.9401      647.08021    
    180000   261.0025      -416.63843     -329.22529     -416.63843      0              7002.5021      30.957001      21.340725      32.597391      21535.299      8776.8515      5195.4895      7035.1654      906.31695     -560.19609     -1616.9369    
    182000   260.9184      -416.21703     -328.83205     -416.21703      0              10167.226      30.957001      21.340725      32.452386      21439.502      7887.0869      11489.847      11124.745     -2101.8807     -291.22038     -1117.769     
    184000   256.97701     -412.16362     -326.09867     -412.16362      0              7430.2934      30.957001      21.340725      32.491748      21465.506      8522.3071      6042.5346      7726.0384     -805.00379     -443.96093      812.93629    
    186000   260.62739     -412.99384     -325.70633     -412.99384      0              6086.6648      30.957001      21.340725      32.520398      21484.433      8056.898       6573.024       3630.0724      224.73033     -1772.3788      160.9165     
    188000   262.35369     -414.25378     -326.38811     -414.25378      0              6541.5544      30.957001      21.340725      32.598155      21535.803      9519.7612      3831.4319      6273.4701      1000.0691      399.97355     -1257.3006    
    190000   267.96851     -413.56127     -323.81513     -413.56127      0              5419.2568      30.957001      21.340725      32.514496      21480.534      3082.8609      5965.5495      7209.3601      1145.1393     -91.120605     -1759.9945    
    192000   259.74203     -414.00686     -327.01587     -414.00686      0              7049.1307      30.957001      21.340725      32.558642      21509.699      6402.2676      6735.5023      8009.6221      1870.8838     -1358.3634     -395.06873    
    194000   264.34672     -417.35001     -328.81685     -417.35001      0              5091.7257      30.957001      21.340725      32.457106      21442.62       4795.6724      5345.6625      5133.8423     -288.80843     -1301.7839     -171.53052    
    196000   266.90496     -415.05227     -325.66232     -415.05227      0              7885.8871      30.957001      21.340725      32.608282      21542.493      6787.734       8156.9232      8713.0041     -80.609479     -1770.6429      596.09182    
    198000   264.50707     -415.64731     -327.06045     -415.64731      0              5623.8974      30.957001      21.340725      32.584668      21526.893      6739.1244      4686.9654      5445.6024      1794.7922      1363.0007      113.07999    
    200000   266.28592     -416.95788     -327.77525     -416.95788      0              4371.9142      30.957001      21.340725      32.765076      21646.079      4153.8651      6840.2377      2121.6399      946.43573     -541.88313     -930.97356    
    202000   259.53587     -416.21406     -329.29211     -416.21406      0              6444.4751      30.957001      21.340725      32.677776      21588.405      6819.6224      5896.9692      6616.8337      1041.1821     -476.90222     -286.88155    
    204000   257.2412      -416.63741     -330.48397     -416.63741      0              4590.6706      30.957001      21.340725      32.736134      21626.958      3629.4462      4541.4253      5601.1402      1835.4667     -342.4336      -141.32903    
    206000   254.81067     -417.95296     -332.61355     -417.95296      0              5910.0302      30.957001      21.340725      32.692613      21598.206      6279.4971      7136.6164      4313.9773      331.78412      19.374455      1614.4758    
    208000   259.99557     -416.60571     -329.52981     -416.60571      0              4482.0436      30.957001      21.340725      32.660876      21577.239      4938.1309      4485.1694      4022.8306     -909.74831      176.51683      254.44361    
    210000   265.44128     -416.71789     -327.81814     -416.71789      0              7618.4408      30.957001      21.340725      32.509413      21477.176      8635.8928      9247.0005      4972.4289      1108.9676     -449.90708      1952.4035    
    212000   256.17629     -416.03546     -330.23868     -416.03546      0              4243.0901      30.957001      21.340725      32.526739      21488.622      2944.895       5152.4701      4631.9051      2013.8815     -134.30012     -721.44042    
    214000   255.28398     -410.88026     -325.38233     -410.88026      0              7927.5608      30.957001      21.340725      32.533588      21493.147      8642.8157      6757.3774      8382.4894     -286.81495     -693.65971      562.89455    
    216000   257.11692     -415.87511     -329.7633      -415.87511      0              6488.9638      30.957001      21.340725      32.668251      21582.112      7546.8933      5656.2768      6263.7213     -716.96013     -495.3346       468.04067    
    218000   264.90465     -416.48875     -327.76873     -416.48875      0              7422.2697      30.957001      21.340725      32.708146      21608.468      8208.5534      7841.7983      6216.4575      646.08256     -1914.5723      241.85956    
    220000   254.60997     -414.04292     -328.77072     -414.04292      0              6586.9316      30.957001      21.340725      32.615827      21547.478      6922.2924      6586.9841      6251.5183     -1981.8943      1061.1162      458.99253    
    222000   260.35642     -418.06383     -330.86707     -418.06383      0              4933.1399      30.957001      21.340725      32.494413      21467.266      4264.3456      4407.5675      6127.5066      860.38989      200.86018      1390.8489    
    224000   261.18023     -412.74986     -325.27719     -412.74986      0              7117.1871      30.957001      21.340725      32.483974      21460.37       7147.4719      7841.3555      6362.734       245.16124      765.09369      394.12226    
    226000   255.903       -414.11489     -328.40964     -414.11489      0              5143.8408      30.957001      21.340725      32.741835      21630.724      6900.0139      3226.2245      5305.2842     -722.16046     -192.64492      2118.3732    
    228000   262.85191     -412.03291     -324.00038     -412.03291      0              6931.4296      30.957001      21.340725      32.655704      21573.822      8120.1988      7566.771       5107.3188      1083.2547     -15.739015      2128.1505    
    230000   256.91954     -412.79456     -326.74886     -412.79456      0              6483.8429      30.957001      21.340725      32.768992      21648.666      6212.7724      7039.8948      6198.8616     -1613.3275     -33.170439      1505.7247    
    232000   258.17237     -415.14453     -328.67924     -415.14453      0              4464.03        30.957001      21.340725      32.825752      21686.164      6022.0011      3051.3984      4318.6906     -15.708747     -1817.9477     -14.141335    
    234000   262.92014     -415.9497      -327.89431     -415.9497       0              8001.851       30.957001      21.340725      32.627276      21555.041      7418.4456      8380.3725      8206.735      -72.532611      535.90221      428.53383    
    236000   259.17834     -416.77694     -329.97473     -416.77694      0              6031.6428      30.957001      21.340725      32.713428      21611.958      5275.1213      4871.0681      7948.739      -114.83146     -1114.1082     -523.15705    
    238000   263.68254     -415.67879     -327.36807     -415.67879      0              6205.8001      30.957001      21.340725      32.694029      21599.142      6310.449       4801.0736      7505.8777     -470.56295      839.47809      1563.8327    
    240000   256.77216     -414.22749     -328.23114     -414.22749      0              5922.4981      30.957001      21.340725      32.806942      21673.737      6200.3977      5609.7768      5957.3198      1702.0371      141.67296      439.05186    
    242000   261.91021     -413.68791     -325.97077     -413.68791      0              5624.8491      30.957001      21.340725      32.915824      21745.669      5668.0261      5807.0076      5399.5135      940.81729      306.78101     -1459.1859    
    244000   266.71726     -418.55281     -329.22573     -418.55281      0              5291.8339      30.957001      21.340725      32.597199      21535.172      5571.5683      3379.5065      6924.4268     -186.81758     -21.646447     -2232.8334    
    246000   258.9648      -414.44029     -327.7096      -414.44029      0              4262.9129      30.957001      21.340725      32.623111      21552.29       3300.6722      3306.2278      6181.8386     -122.17246     -584.09534      903.93406    
    248000   260.12131     -416.89656     -329.77854     -416.89656      0              4771.0059      30.957001      21.340725      32.602877      21538.923      3231.3573      4271.8412      6809.8193     -817.89221      1211.827      -1409.0303    
    250000   262.58612     -413.59054     -325.64703     -413.59054      0              5681.8127      30.957001      21.340725      32.677712      21588.362      4955.0479      4817.8152      7272.575      -303.09628     -1015.7105      197.67575    
    252000   254.4248      -416.42771     -331.21753     -416.42771      0              8318.8319      30.957001      21.340725      32.627818      21555.4        10103.972      6835.5368      8016.9874      629.32641      1064.9463      562.76921    
    254000   259.46255     -416.69206     -329.79467     -416.69206      0              4409.7769      30.957001      21.340725      32.662074      21578.031      4291.4079      4053.5052      4884.4177     -605.6462      -584.93697     -600.51806    
    256000   265.57085     -414.58475     -325.64161     -414.58475      0              5938.4138      30.957001      21.340725      32.638631      21562.543      5692.511       5493.0774      6629.653      -523.49198      1114.6142      534.17015    
    258000   260.32289     -417.47947     -330.29394     -417.47947      0              6637.6043      30.957001      21.340725      32.5686        21516.278      4203.1952      8388.7543      7320.8635      2549.143       608.309        367.52067    
    260000   254.65683     -418.52272     -333.23483     -418.52272      0              6633.3192      30.957001      21.340725      32.562677      21512.365      6101.5649      7669.2041      6129.1887      865.29998     -164.10922     -1370.5694    
    262000   259.83367     -415.79056     -328.76887     -415.79056      0              5762.1676      30.957001      21.340725      32.686831      21594.386      6981.437       3140.4569      7164.6091      982.58469      563.86137      679.76007    
    264000   255.26418     -415.75376     -330.26246     -415.75376      0              7082.529       30.957001      21.340725      32.724833      21619.492      7161.3428      6798.6983      7287.5459      783.10816     -1962.3748      558.94657    
    266000   254.49869     -417.70933     -332.47441     -417.70933      0              5272.6703      30.957001      21.340725      32.531321      21491.65       6041.0276      3756.223       6020.7604     -1832.08        211.19007      174.9386     
    268000   262.84974     -417.95057     -329.91877     -417.95057      0              4644.188       30.957001      21.340725      32.680348      21590.103      6387.8793      4909.1028      2635.582       1595.9867     -1807.0641      437.42454    
    270000   264.03572     -417.91082     -329.48182     -417.91082      0              6785.4974      30.957001      21.340725      32.554715      21507.105      6893.3624      5456.5606      8006.5691      1584.7961      141.41704     -212.82454    
    272000   265.43393     -415.71386     -326.81657     -415.71386      0              5763.4752      30.957001      21.340725      32.549118      21503.407      5705.4899      3659.3303      7925.6052     -481.85635     -3238.375      -411.56471    
    274000   262.34346     -413.37792     -325.51568     -413.37792      0              4758.7333      30.957001      21.340725      32.553943      21506.594      4700.5044      4687.4326      4888.2628      454.46182      2097.271      -1871.8233    
    276000   265.0824      -416.92205     -328.1425      -416.92205      0              5412.7712      30.957001      21.340725      32.60353       21539.354      5298.5057      4264.5394      6675.2683      671.7228       668.54203     -63.046109    
    278000   259.66115     -414.54923     -327.58532     -414.54923      0              5379.9013      30.957001      21.340725      32.761156      21643.489      5112.5852      5895.695       5131.4237     -803.35698      430.16173      39.316292    
    280000   259.93727     -411.54789     -324.49151     -411.54789      0              5201.3136      30.957001      21.340725      32.772588      21651.041      4604.8187      5983.1085      5016.0135     -395.81715      2029.2663     -1124.346     
    282000   261.61433     -414.40583     -326.78779     -414.40583      0              5071.2221      30.957001      21.340725      32.716175      21613.772      4432.8748      4344.434       6436.3574      723.23233      282.06152     -863.19086    
    284000   267.81397     -414.77082     -325.07643     -414.77082      0              6360.1403      30.957001      21.340725      32.564548      21513.601      6575.5299      7273.3282      5231.5627      771.94052     -415.48581      1031.6501    
    286000   258.82326     -417.62384     -330.94055     -417.62384      0              6767.7518      30.957001      21.340725      32.490897      21464.944      5358.9506      9493.2453      5451.0596     -122.95906      445.92274      1359.7796    
    288000   252.27154     -416.06844     -331.57941     -416.06844      0              5287.6626      30.957001      21.340725      32.537864      21495.972      6641.8564      6540.3564      2680.7751      40.237148      48.653159      1320.6009    
    290000   259.84512     -412.47728     -325.45176     -412.47728      0              4390.8149      30.957001      21.340725      32.613177      21545.727      5847.5115      5019.4169      2305.5163      886.21936      1079.412      -768.8973     
    292000   267.66994     -416.76552     -327.11937     -416.76552      0              5642.573       30.957001      21.340725      32.581488      21524.792      5167.0079      6672.931       5087.7802      142.20501     -200.19413      272.78687    
    294000   255.54982     -413.36459     -327.77763     -413.36459      0              5827.6109      30.957001      21.340725      32.606389      21541.243      7780.6306      3471.2354      6230.9667      1108.1049     -1004.545      -1091.1202    
    296000   263.63775     -415.03907     -326.74335     -415.03907      0              6362.9413      30.957001      21.340725      32.727842      21621.48       7917.4224      6735.1644      4436.2371     -1269.3887      213.76868      1819.2601    
    298000   256.42925     -415.4481      -329.5666      -415.4481       0              5861.3049      30.957001      21.340725      32.601147      21537.78       8307.5217      4444.5847      4831.8084     -1759.9235     -1501.1721     -1248.9636    
    300000   265.38298     -415.54181     -326.66159     -415.54181      0              6051.9248      30.957001      21.340725      32.84375       21698.054      4982.2788      5773.0038      7400.4919      197.86627     -784.57273     -705.39949    
    302000   259.73826     -414.94705     -327.95732     -414.94705      0              7841.0122      30.957001      21.340725      32.666095      21580.687      7717.2751      7334.2514      8471.51       -335.93048      836.67719     -629.16445    
    304000   259.20578     -416.61029     -329.7989      -416.61029      0              6538.9402      30.957001      21.340725      32.530356      21491.012      7406.8665      5044.4055      7165.5487      338.91921     -289.68891     -399.73105    
    306000   262.46686     -415.08411     -327.18053     -415.08411      0              6988.1123      30.957001      21.340725      32.571702      21518.327      6272.9904      6832.5713      7858.7752      15.413425     -991.721        370.26372    
    308000   256.18158     -414.33089     -328.53234     -414.33089      0              5442.6701      30.957001      21.340725      32.543372      21499.611      6296.3811      6104.6492      3926.9802     -1607.173      -662.54308      906.77807    
    310000   262.41797     -414.32795     -326.44075     -414.32795      0              6817.4194      30.957001      21.340725      32.531395      21491.698      4250.7407      8557.8821      7643.6353     -175.23099      118.36531      1288.4227    
    312000   263.71047     -416.02676     -327.70668     -416.02676      0              6380.2225      30.957001      21.340725      32.565622      21514.31       5854.2414      5487.1721      7799.254      -137.97274      379.94308      101.69679    
    314000   266.43781     -414.06733     -324.83383     -414.06733      0              5496.8979      30.957001      21.340725      32.476691      21455.559      4992.9277      5603.8778      5893.8882      830.09733      894.05652     -1054.3694    
    316000   257.03653     -411.24721     -325.16232     -411.24721      0              5741.581       30.957001      21.340725      32.354473      21374.816      5529.3912      5774.9165      5920.4352      691.45268      800.16522     -167.79388    
    318000   263.63543     -417.06901     -328.77407     -417.06901      0              7611.5514      30.957001      21.340725      32.592313      21531.944      8873.1139      7837.6642      6123.8763      860.48269      1679.3253      68.982423    
    320000   261.55442     -414.54208     -326.9441      -414.54208      0              7531.9561      30.957001      21.340725      32.512926      21479.497      7943.1115      8149.4869      6503.2697      591.75159     -773.79169     -1862.9516    
    322000   266.53999     -419.07483     -329.80711     -419.07483      0              5470.8436      30.957001      21.340725      32.772208      21650.79       3949.3827      6504.6825      5958.4655     -1501.902      -232.91669     -714.28108    
    324000   262.70393     -418.4067      -330.42373     -418.4067       0              4699.8845      30.957001      21.340725      32.689737      21596.306      8131.806       3796.755       2171.0926      1151.2964     -810.48783      739.35887    
    326000   258.15865     -416.31177     -329.85108     -416.31177      0              6932.8566      30.957001      21.340725      32.853299      21704.363      6633.6783      7729.5506      6435.3408      56.678837     -418.33357     -732.15488    
    328000   261.95639     -416.63369     -328.90108     -416.63369      0              4909.2875      30.957001      21.340725      32.647528      21568.421      3997.0645      7847.9339      2882.8641      148.0749       1254.5677      1889.3715    
    330000   264.93127     -414.78216     -326.05323     -414.78216      0              4943.1873      30.957001      21.340725      32.645699      21567.213      5136.8189      3696.5036      5996.2395      2230.743      -860.3216       1391.1049    
    332000   261.08703     -412.78067     -325.33922     -412.78067      0              8937.128       30.957001      21.340725      32.641951      21564.737      9292.9709      8193.2006      9325.2126     -17.448256     -1325.2064     -24.834895    
    334000   267.25812     -416.82487     -327.31664     -416.82487      0              6406.8231      30.957001      21.340725      32.659704      21576.465      9141.9585      2703.3029      7375.2079     -1646.301      -1516.9212      1782.4743    
    336000   262.14715     -415.75636     -327.95987     -415.75636      0              4565.6746      30.957001      21.340725      32.884946      21725.27       4084.4513      5155.8831      4456.6893      656.20685     -964.73345      894.2655     
    338000   254.80334     -418.35898     -333.02202     -418.35898      0              4456.3598      30.957001      21.340725      32.901504      21736.209      5692.3447      3139.8921      4536.8426      2040.8972     -456.1521       928.37732    
    340000   262.29172     -415.76357     -327.91865     -415.76357      0              5583.577       30.957001      21.340725      32.832742      21690.782      3619.0926      6589.7857      6541.8527     -121.63755     -418.657        954.27902    
    342000   258.82017     -416.10417     -329.42192     -416.10417      0              4849.9298      30.957001      21.340725      32.648204      21568.868      5392.1376      3373.0842      5784.5675     -590.24744     -257.69484     -494.62032    
    344000   254.42083     -417.48339     -332.27453     -417.48339      0              4900.1691      30.957001      21.340725      32.535362      21494.32       3251.1722      6142.9577      5306.3775     -675.25587     -295.20018      90.53756     
    346000   257.47978     -418.54092     -332.30758     -418.54092      0              6504.2431      30.957001      21.340725      32.501418      21471.894      5929.0867      6650.2144      6933.4282      1443.429       721.03126     -145.23435    
    348000   252.24487     -416.39877     -331.91867     -416.39877      0              5658.2064      30.957001      21.340725      32.452115      21439.322      6339.2794      5060.4381      5574.9017     -687.19196     -469.50775     -586.38884    
    350000   259.77223     -416.55448     -329.55338     -416.55448      0              7884.6658      30.957001      21.340725      32.627144      21554.955      7383.9851      7923.0234      8346.9889     -722.97904      455.56168     -355.29496    
    352000   262.64024     -416.30585     -328.34421     -416.30585      0              8022.1271      30.957001      21.340725      32.493199      21466.465      9153.1687      8491.807       6421.4056      1382.8979     -1733.9936      497.66574    
    354000   258.74998     -414.54337     -327.88463     -414.54337      0              6333.788       30.957001      21.340725      32.535285      21494.269      8365.7139      5455.0686      5180.5815     -2116.2306      1184.0292     -340.01926    
    356000   260.44798     -416.07721     -328.84978     -416.07721      0              5021.0193      30.957001      21.340725      32.424326      21420.964      5436.6853      6423.311       3203.0615     -54.113816     -1935.589       1020.3898    
    358000   255.5684      -416.98854     -331.39535     -416.98854      0              6390.8414      30.957001      21.340725      32.604289      21539.855      6858.4086      6447.5878      5866.5278      1510.4884      495.28136     -342.00238    
    360000   262.62515     -417.58244     -329.62585     -417.58244      0              6581.0619      30.957001      21.340725      32.659288      21576.19       8755.1688      6274.3563      4713.6606     -648.83026      351.33123     -537.87836    
    362000   257.94824     -417.11125     -330.72102     -417.11125      0              6958.7128      30.957001      21.340725      32.57341       21519.456      7195.3565      4903.4142      8777.3678      279.20742     -1080.4654      1204.2187    
    364000   261.26865     -413.88019     -326.37791     -413.88019      0              8544.0889      30.957001      21.340725      32.463118      21446.592      8730.1775      8926.7566      7975.3326      152.48658      6.1043412     -284.01839    
    366000   260.92749     -413.45084     -326.06282     -413.45084      0              4226.0113      30.957001      21.340725      32.670838      21583.821      6671.007       2189.2277      3817.7992      640.79564     -578.0687       253.63851    
    368000   261.77944     -415.09449     -327.42114     -415.09449      0              5791.5473      30.957001      21.340725      32.594356      21533.293      7097.3577      5505.2866      4771.9977     -900.38997     -1213.552      -3.9206519    
    370000   264.00303     -415.3496      -326.93155     -415.3496       0              5611.1761      30.957001      21.340725      32.563227      21512.728      5280.9572      5992.3695      5560.2016      165.7525       73.292463     -51.131186    
    372000   264.20365     -416.4682      -327.98296     -416.4682       0              5985.6018      30.957001      21.340725      32.590779      21530.93       4349.0582      7585.8063      6021.9408      884.20898      1100.8573      76.597043    
    374000   262.84135     -416.15891     -328.12992     -416.15891      0              7028.3025      30.957001      21.340725      32.701901      21604.342      8331.9115      8428.7402      4324.2559      37.090476     -708.5718      -1690.3324    
    376000   263.73259     -413.34166     -325.01418     -413.34166      0              5067.4563      30.957001      21.340725      32.598773      21536.211      5533.0104      4976.3778      4692.9809     -808.74823      851.87325     -1203.4516    
    378000   258.69393     -414.62454     -327.98457     -414.62454      0              6959.1991      30.957001      21.340725      32.562788      21512.438      7249.23        8232.5142      5395.853       1071.689      -115.68508     -1355.7908    
    380000   254.50765     -417.30817     -332.07024     -417.30817      0              3685.6669      30.957001      21.340725      32.584607      21526.853      4558.137       3795.2611      2703.6026      206.66464     -404.88947      508.36141    
    382000   260.95341     -414.68201     -327.28531     -414.68201      0              4552.5218      30.957001      21.340725      32.45402       21440.581      3366.793       5040.2307      5250.5418      637.08569     -1586.5208     -635.77554    
    384000   264.05073     -418.10603     -329.672       -418.10603      0              6564.8832      30.957001      21.340725      32.516036      21481.552      7271.461       6584.5036      5838.6849      1144.9421     -1177.1296     -66.170277    
    386000   258.94146     -413.51865     -326.79579     -413.51865      0              5049.5666      30.957001      21.340725      32.560178      21510.714      5942.8973      5187.434       4018.3684     -206.37425      475.57264     -529.79822    
    388000   254.55425     -416.42283     -331.1693      -416.42283      0              5850.156       30.957001      21.340725      32.533685      21493.211      8367.1976      4540.8013      4642.4689     -113.70289     -116.51417     -426.56722    
    390000   249.754       -417.13595     -333.49008     -417.13595      0              4649.2685      30.957001      21.340725      32.568391      21516.14       3488.8594      5157.1632      5301.783       627.76987      1905.326       79.363514    
    392000   260.22819     -416.8414      -329.68758     -416.8414       0              5406.9989      30.957001      21.340725      32.581229      21524.621      3113.0017      5476.5603      7631.4345      672.15237     -372.90422      1353.6604    
    394000   261.87978     -416.61602     -328.90906     -416.61602      0              5800.203       30.957001      21.340725      32.424718      21421.222      5880.9865      5634.5579      5885.0644      508.4521      -253.32841     -892.26152    
    396000   256.34276     -415.83512     -329.98259     -415.83512      0              5800.1659      30.957001      21.340725      32.510741      21478.053      3758.4614      6004.2581      7637.7783     -478.36619     -2121.5338      2892.837     
    398000   259.01638     -415.06178     -328.31382     -415.06178      0              8399.5974      30.957001      21.340725      32.611778      21544.803      6741.2555      7622.348       10835.189      2066.063       2074.603      -312.95763    
    400000   251.32982     -415.72743     -331.5538      -415.72743      0              6943.1113      30.957001      21.340725      32.54604       21501.374      7736.7583      5673.6022      7418.9734     -547.6742      -405.91757      1578.291     
    402000   261.21539     -416.70385     -329.21941     -416.70385      0              7144.5403      30.957001      21.340725      32.605668      21540.766      7738.4074      4363.5387      9331.6749     -487.46202     -14.153851      1958.4876    
    404000   257.73872     -418.53566     -332.2156      -418.53566      0              4066.1199      30.957001      21.340725      32.617201      21548.386      3691.4011      3490.313       5016.6454      694.47494      35.927771     -692.05984    
    406000   263.78555     -415.29336     -326.94814     -415.29336      0              5836.3143      30.957001      21.340725      32.733659      21625.323      4899.3615      5394.0925      7215.4888      832.15576      82.853489     -514.5486     
    408000   265.9006      -416.90142     -327.84784     -416.90142      0              5781.5891      30.957001      21.340725      32.715298      21613.193      7286.2535      4418.5196      5639.9942      432.42421      1312.0561      163.18965    
    410000   261.61155     -417.72457     -330.10745     -417.72457      0              4332.2434      30.957001      21.340725      32.762733      21644.531      1808.2162      7030.6732      4157.8409      337.58804      795.00167      959.34938    
    412000   260.85605     -416.42705     -329.06296     -416.42705      0              7083.7185      30.957001      21.340725      32.680819      21590.414      8630.7129      5278.1251      7342.3174      403.99659     -924.09657     -2955.9024    
    414000   259.36059     -417.64351     -330.78027     -417.64351      0              5581.6454      30.957001      21.340725      32.644361      21566.329      5676.9378      4928.8642      6139.1341      426.86507      584.30515      204.0007     
    416000   258.67792     -414.66412     -328.02951     -414.66412      0              5152.2271      30.957001      21.340725      32.817686      21680.835      5071.4391      6586.0376      3799.2046     -630.04452     -1921.5503      143.0844     
    418000   257.15966     -415.65224     -329.52611     -415.65224      0              6329.9904      30.957001      21.340725      32.601314      21537.89       5720.9362      6606.9135      6662.1215      447.04124     -384.03201      1009.7816    
    420000   259.42876     -416.16743     -329.28135     -416.16743      0              5831.4349      30.957001      21.340725      32.713184      21611.796      5639.6449      6579.1988      5275.461       174.20811      399.90971     -48.672814    
    422000   263.80437     -415.47106     -327.11953     -415.47106      0              6122.4387      30.957001      21.340725      32.802881      21671.054      6768.7429      6733.548       4865.0251      992.91258     -386.24969     -757.85811    
    424000   259.78063     -418.80174     -331.79782     -418.80174      0              5587.628       30.957001      21.340725      32.788726      21661.703      7465.146       5304.0827      3993.6553     -1334.0702     -289.47158     -992.38854    
    426000   261.02678     -415.66727     -328.246       -415.66727      0              5211.1942      30.957001      21.340725      32.653488      21572.358      4340.3677      5318.0647      5975.1502      444.78493     -1226.5865      174.2906     
    428000   253.25301     -413.86783     -329.05009     -413.86783      0              6485.7556      30.957001      21.340725      32.842761      21697.401      6602.5873      5097.0684      7757.611      -214.39529      478.29298     -326.76332    
    430000   257.96554     -415.62186     -329.22584     -415.62186      0              7507.1812      30.957001      21.340725      32.605839      21540.879      7267.3307      8140.7591      7113.4538     -915.05499      1309.9323      311.15451    
    432000   268.11059     -416.13598     -326.34225     -416.13598      0              4801.7176      30.957001      21.340725      32.674333      21586.13       4951.3611      4343.4349      5110.3568      133.83506     -255.88174     -1059.4563    
    434000   262.48366     -416.03649     -328.12729     -416.03649      0              6819.7228      30.957001      21.340725      32.818849      21681.603      4752.1073      6687.8431      9019.2179     -887.80739      364.74475      832.48403    
    436000   253.97798     -416.68798     -331.62745     -416.68798      0              4481.4679      30.957001      21.340725      32.681694      21590.993      4067.7176      5702.3312      3674.3548     -167.44114     -594.20859      1590.094     
    438000   254.22317     -416.34511     -331.20245     -416.34511      0              7630.7895      30.957001      21.340725      32.614552      21546.636      6085.332       9601.6625      7205.374      -36.220309     -570.32453     -5.3728472    
    440000   257.32158     -416.09386     -329.91351     -416.09386      0              5282.3504      30.957001      21.340725      32.747984      21634.787      5772.4532      5296.1673      4778.4309     -570.05857     -22.417185      1047.4302    
    442000   256.07457     -415.15436     -329.39165     -415.15436      0              6149.4854      30.957001      21.340725      32.893647      21731.018      6627.958       4905.5506      6914.9476     -161.61076     -456.3759       549.97713    
    444000   259.56893     -416.09085     -329.15783     -416.09085      0              7119.7025      30.957001      21.340725      32.630263      21557.015      7746.1315      6680.8342      6932.1418      1321.6262     -847.10594      1309.9591    
    446000   257.21634     -413.42828     -327.28317     -413.42828      0              5488.3164      30.957001      21.340725      32.881903      21723.26       4574.9176      5251.5947      6638.437       356.69117     -1571.298       1209.6615    
    448000   261.376       -416.68235     -329.14412     -416.68235      0              3470.1432      30.957001      21.340725      32.968273      21780.32       4855.7048      2510.3117      3044.4131     -768.87041     -425.82893     -126.48465    
    450000   259.29615     -415.17756     -328.3359      -415.17756      0              5543.3512      30.957001      21.340725      32.843823      21698.102      7693.1165      5201.6204      3735.3166     -1805.3346     -889.51711      1006.2148    
    452000   261.89148     -415.45268     -327.74181     -415.45268      0              5542.0996      30.957001      21.340725      32.657058      21574.717      5400.4338      5252.9417      5972.9233      394.17925     -1236.3849     -1918.091     
    454000   264.89538     -413.12303     -324.40612     -413.12303      0              5397.0675      30.957001      21.340725      32.772023      21650.668      4607.7139      5780.68        5802.8085      878.77412      484.44521     -883.75946    
    456000   263.94739     -415.87663     -327.47721     -415.87663      0              8981.702       30.957001      21.340725      32.631148      21557.599      7117.7787      9210.4213      10616.906      267.97851      112.56386     -436.41716    
    458000   262.26166     -417.99299     -330.15814     -417.99299      0              5913.103       30.957001      21.340725      32.541894      21498.635      4247.5867      7096.9481      6394.774       723.09266      1122.6809     -1354.0399    
    460000   262.88659     -415.19944     -327.1553      -415.19944      0              7470.9588      30.957001      21.340725      32.576858      21521.733      6869.3541      8861.6508      6681.8716      73.075031      1654.8488     -1133.4408    
    462000   262.43422     -414.42833     -326.53568     -414.42833      0              7909.7419      30.957001      21.340725      32.587969      21529.073      7965.7784      8407.988       7355.4594     -1160.5704      1640.9933     -1017.2681    
    464000   259.69578     -414.63846     -327.66296     -414.63903      0              6285.4456      30.957001      21.340725      32.776859      21653.863      7981.6998      5913.8834      4960.7535     -1366.4388     -985.58028     -769.84985    
    466000   257.697       -416.48045     -330.17437     -416.48045      0              7339.3853      30.957001      21.340725      32.798058      21667.868      5833.7094      8050.7027      8133.7437     -73.082164      188.76819     -591.57515    
    468000   266.9952      -417.15105     -327.73087     -417.15105      0              4284.5432      30.957001      21.340725      32.694632      21599.54       5144.3142      4941.0494      2768.266       701.90045     -497.72506      847.15737    
    470000   258.99542     -414.5479      -327.80696     -414.5479       0              3732.2182      30.957001      21.340725      32.657417      21574.954      5860.3336      3772.6767      1563.6443      98.927258     -640.85967     -632.95403    
    472000   261.25741     -413.86129     -326.36278     -413.86131      0              5677.4419      30.957001      21.340725      32.633623      21559.235      4286.8285      7491.0267      5254.4706      239.6001       439.75745      1457.996     
    474000   259.59573     -415.44507     -328.50308     -415.44507      0              6180.0297      30.957001      21.340725      32.448689      21437.059      6985.2272      6780.6137      4774.2483     -1189.9925     -63.104174     -333.64796    
    476000   264.692       -414.74176     -326.09296     -414.74176      0              6384.9658      30.957001      21.340725      32.405535      21408.55       7279.6704      4848.5811      7026.6458     -1670.8151      20.971689     -1317.6023    
    478000   262.242       -414.38863     -326.56037     -414.38863      0              5731.1709      30.957001      21.340725      32.574102      21519.913      5517.0171      5832.3184      5844.1772     -184.77838     -82.533695     -783.02863    
    480000   254.44013     -412.65409     -327.43877     -412.65409      0              7044.784       30.957001      21.340725      32.538664      21496.501      6495.8671      7990.077       6648.4081      2052.8422     -900.89062     -647.9406     
    482000   259.98184     -419.05358     -331.98227     -419.05358      0              6443.2801      30.957001      21.340725      32.641227      21564.258      7689.8622      5451.9098      6188.0683     -719.37796      123.61424     -940.66282    
    484000   259.152       -415.17172     -328.37833     -415.17172      0              6877.2535      30.957001      21.340725      32.606129      21541.071      6378.3527      8258.6273      5994.7805     -1142.5852      826.07852     -502.27892    
    486000   251.28402     -416.02912     -331.87083     -416.02912      0              3794.8112      30.957001      21.340725      32.698334      21601.986      3465.9872      3851.2204      4067.226      -2048.0179      1475.9106      2286.4251    
    488000   264.30588     -415.14361     -326.62413     -415.14361      0              8089.5847      30.957001      21.340725      32.442691      21433.097      8589.8676      8616.7569      7062.1297      687.28213      604.85597      2436.3446    
    490000   268.94895     -415.15756     -325.08305     -415.15756      0              6655.2247      30.957001      21.340725      32.678433      21588.839      6003.2713      7583.0992      6379.3035     -942.93008     -64.496009      394.35933    
    492000   258.15041     -414.72886     -328.27092     -414.72886      0              6175.6292      30.957001      21.340725      32.576441      21521.458      7573.6627      3983.0857      6970.1392     -788.64977      1155.554       1077.9546    
    494000   261.71258     -414.06881     -326.41785     -414.06881      0              4340.7187      30.957001      21.340725      32.523008      21486.157      3602.6164      4234.1277      5185.4121      716.07475     -684.07858      1451.5759    
    496000   260.52792     -415.53709     -328.2829      -415.53709      0              5671.2448      30.957001      21.340725      32.460869      21445.106      6582.2371      6094.8233      4336.674      -1332.078      -186.03509     -1243.0095    
    498000   251.44021     -414.08791     -329.8773      -414.08791      0              7220.9812      30.957001      21.340725      32.353835      21374.395      7998.9324      6562.3757      7101.6355      1635.9966      27.574966     -237.79989    
    500000   262.80289     -415.28383     -327.26771     -415.28383      0              8164.666       30.957001      21.340725      32.479645      21457.51       9288.4441      7969.2484      7236.3056      797.16172     -1668.2794      1147.0114    
    502000   263.83437     -416.44792     -328.08635     -416.44792      0              4484.5215      30.957001      21.340725      32.528003      21489.457      3099.3595      4180.1452      6174.0597     -128.6606      -159.88281     -542.95978    
    504000   255.30678     -415.68964     -330.18407     -415.68964      0              6945.8919      30.957001      21.340725      32.659219      21576.145      7073.168       7744.1752      6020.3326      669.42747      1346.073       1767.303     
    506000   261.85359     -414.71447     -327.01629     -414.71447      0              3541.3398      30.957001      21.340725      32.811218      21676.562      3637.7625      4095.0584      2891.1984     -698.64463      696.53231      426.89547    
    508000   262.00639     -410.83361     -323.08425     -410.83361      0              4786.1569      30.957001      21.340725      32.628622      21555.931      4065.5895      3640.7627      6652.1186      186.36568      1170.0913      3026.2722    
    510000   257.18335     -414.52664     -328.39258     -414.52664      0              5054.8017      30.957001      21.340725      32.618225      21549.062      4362.2271      5780.0338      5022.1443      1074.8003      1027.7747      853.42183    
    512000   259.74412     -413.18058     -326.18889     -413.18058      0              7107.3627      30.957001      21.340725      32.539766      21497.229      7213.4969      5051.6262      9056.9652      49.03647       895.02211      11.288455    
    514000   263.84492     -412.76718     -324.40208     -412.76718      0              7168.7539      30.957001      21.340725      32.574502      21520.177      7130.3587      6143.5774      8232.3255     -508.01217      1395.3278     -1115.0892    
    516000   259.09296     -414.07846     -327.30485     -414.07846      0              7372.3236      30.957001      21.340725      32.669565      21582.98       5848.6689      7008.0587      9260.2432      1734.9323      328.86578      1611.1336    
    518000   257.86306     -414.44328     -328.08158     -414.44328      0              3409.3517      30.957001      21.340725      32.773667      21651.754      1370.4359      4380.7432      4476.876       392.89783      596.34912     -867.54041    
    520000   264.52751     -415.16502     -326.5713      -415.16502      0              5499.9912      30.957001      21.340725      33.023024      21816.491      3362.1592      7803.4026      5334.4117      479.56664      645.56147      585.0048     
    522000   266.15394     -418.80752     -329.66909     -418.80752      0              5179.3323      30.957001      21.340725      32.716102      21613.724      5449.9549      4490.8032      5597.2387      994.03387      1627.8464      80.778211    
    524000   264.94057     -416.16011     -327.42806     -416.16011      0              5967.7162      30.957001      21.340725      32.767404      21647.616      4176.2664      6502.3365      7224.5457      1756.2059      1400.0626     -910.01068    
    526000   256.51066     -416.06003     -330.15126     -416.06003      0              7492.7431      30.957001      21.340725      32.698045      21601.795      7924.1127      7025.4588      7528.6579      1058.0796      1457.7069      303.70085    
    528000   263.66876     -416.1738      -327.86769     -416.1738       0              6872.9796      30.957001      21.340725      32.712661      21611.451      5177.1361      7763.5835      7678.2191     -257.51549      1764.3496      481.7756     
    530000   257.77783     -414.56431     -328.23116     -414.56431      0              5936.3104      30.957001      21.340725      32.672714      21585.06       6083.6235      6003.1677      5722.14        1430.6928      1508.5423      1135.6334    
    532000   266.15983     -413.51122     -324.37083     -413.51122      0              7875.7077      30.957001      21.340725      32.864524      21711.779      8398.8141      7256.9405      7971.3683     -114.69977      299.93042      512.71269    
    534000   259.60732     -413.09782     -326.15194     -413.09782      0              6644.4116      30.957001      21.340725      32.823688      21684.8        6439.7339      7813.5681      5679.9329      803.6213      -1697.7339     -1505.4846    
    536000   253.87644     -416.55773     -331.5312      -416.55773      0              7644.6262      30.957001      21.340725      32.909969      21741.801      7699.6717      10218.78       5015.4265      705.00336      242.59337      1623.8038    
    538000   260.76166     -414.35503     -327.02256     -414.35503      0              5629.5358      30.957001      21.340725      32.916001      21745.787      7002.946       5600.1805      4285.481      -687.00193      460.41524     -164.90005    
    540000   259.1016      -416.35842     -329.58191     -416.35842      0              4200.0391      30.957001      21.340725      32.912302      21743.343      4594.5573      4033.0814      3972.4787     -284.5335       536.26245      462.67923    
    542000   256.22836     -417.01754     -331.20332     -417.01754      0              6936.3008      30.957001      21.340725      32.899823      21735.098      8577.0545      6195.1752      6036.6727     -1131.5956     -530.09502     -1137.6131    
    544000   253.29338     -415.12295     -330.2917      -415.12295      0              6034.3916      30.957001      21.340725      32.720237      21616.456      4148.1463      7487.4963      6467.532       903.64228      97.391461     -764.18284    
    546000   262.45866     -417.58903     -329.68821     -417.58903      0              6142.6158      30.957001      21.340725      32.496307      21468.518      6005.5568      5301.9134      7120.3772      834.45232     -628.47773     -1889.6806    
    548000   259.88775     -417.18447     -330.14467     -417.18447      0              7373.5983      30.957001      21.340725      32.597615      21535.446      7425.8094      7540.8374      7154.1481     -1390.4831      25.88432       787.4829     
    550000   252.82671     -415.9915      -331.31654     -415.9915       0              5855.1734      30.957001      21.340725      32.692842      21598.357      6925.7779      6620.5766      4019.1657     -908.10882     -1424.7798     -1112.6117    
    552000   253.58513     -419.41819     -334.48923     -419.41819      0              5708.5325      30.957001      21.340725      32.856348      21706.377      4477.5817      7048.7306      5599.2852      35.784985      899.90722      184.46738    
    554000   264.59523     -417.60322     -328.98683     -417.60322      0              4793.6579      30.957001      21.340725      32.78526       21659.413      7716.7995      3633.4216      3030.7524      96.568211     -24.960077     -1091.6903    
    556000   248.8145      -414.73132     -331.4001      -414.73132      0              7316.8977      30.957001      21.340725      32.663989      21579.296      7816.7298      6308.3892      7825.5742     -759.58516      974.62358      838.72069    
    558000   257.60998     -417.92343     -331.64649     -417.92343      0              4792.0288      30.957001      21.340725      32.905772      21739.029      5096.3949      4899.6059      4380.0854      1475.3023      653.22531      917.62954    
    560000   264.77665     -417.28443     -328.60728     -417.28443      0              3940.3888      30.957001      21.340725      32.946516      21765.946      5014.6323      2723.5985      4082.9355     -877.77169      580.81921      1765.6228    
    562000   259.45374     -416.75274     -329.8583      -416.75274      0              5765.4952      30.957001      21.340725      32.904403      21738.124      4991.2956      6134.182       6171.0079     -1369.1091      853.28009      154.03629    
    564000   257.36573     -417.8883      -331.69316     -417.8883       0              5267.3075      30.957001      21.340725      32.864194      21711.56       6494.6118      4914.1388      4393.1718     -125.62525      459.71483      786.27659    
    566000   261.33153     -414.44622     -326.92288     -414.44622      0              3883.5572      30.957001      21.340725      33.107207      21872.105      3869.8231      3797.8821      3982.9663     -315.87109     -1627.5675     -1524.6534    
    568000   267.09047     -418.28961     -328.83754     -418.28961      0              5077.4571      30.957001      21.340725      32.855791      21706.009      5752.2109      4887.1248      4593.0356     -2433.9033     -806.75893      478.03382    
[...]
   6918000   255.9205      -416.17411     -330.463       -416.2135       0              6161.6059      30.957001      21.340725      32.668393      21582.206      5808.9354      8209.8439      4466.0385     -221.07398      373.52488      844.78697    
   6920000   256.05763     -418.18621     -332.42917     -418.19531      0              5062.1614      30.957001      21.340725      32.727367      21621.166      5073.2199      4447.2483      5666.0161      698.87244     -819.48071     -651.40621    
   6922000   257.37012     -416.75387     -330.55726     -416.7816       0              7103.0898      30.957001      21.340725      32.663303      21578.843      6429.6029      8792.599       6087.0676     -1660.7667      572.19083      699.79446    
   6924000   258.29669     -416.33281     -329.82588     -416.33579      0              4283.8913      30.957001      21.340725      32.480648      21458.173      6201.3687      3776.0745      2874.2308      715.6765      -1132.4827     -544.31269    
   6926000   256.77415     -415.55884     -329.56183     -415.58472      0              7861.5004      30.957001      21.340725      32.370722      21385.551      7650.517       8457.5173      7476.4668      405.61099     -761.71819      263.90316    
   6928000   253.86457     -417.06938     -332.04683     -417.08588      0              6365.8197      30.957001      21.340725      32.514994      21480.863      7043.3824      5336.4532      6717.6235     -652.67529      39.138769      874.05251    
   6930000   260.10236     -419.50766     -332.39599     -419.50432      0              7254.1886      30.957001      21.340725      32.572215      21518.666      6705.4213      6910.2975      8146.8471      389.23344     -366.32494      1057.929     
   6932000   262.75732     -419.63557     -331.63472     -419.53383      0              5770.7639      30.957001      21.340725      32.643916      21566.035      5430.8179      6736.2803      5145.1935     -190.99438     -900.74261      676.36209    
   6934000   257.50399     -419.26431     -333.02287     -419.13889      0              6915.8851      30.957001      21.340725      32.572004      21518.526      7649.142       6975.9195      6122.5937      146.40863     -470.03754      912.06866    
   6936000   263.20764     -417.80215     -329.65048     -417.75136      0              8353.1235      30.957001      21.340725      32.454819      21441.109      9348.7837      5978.6529      9731.934      -71.082737      409.22753      882.76706    
   6938000   263.25197     -418.08016     -329.91365     -417.93716      0              3538.864       30.957001      21.340725      32.335996      21362.609      4327.9019      3171.4604      3117.2297     -744.22218      1263.7032     -539.7386     
   6940000   263.50436     -420.23144     -331.9804      -420.04524      0              6363.9412      30.957001      21.340725      32.316705      21349.865      7404.3359      6139.9092      5547.5785     -572.60923     -2069.0815     -1405.0633    
   6942000   254.78848     -418.84919     -333.51721     -418.72512      0              5697.2091      30.957001      21.340725      32.39766       21403.347      5457.3635      5126.8403      6507.4235     -13.333022      773.84844      479.4801     
   6944000   259.6756      -422.09714     -335.1284      -421.93989      0              5688.9695      30.957001      21.340725      32.42973       21424.534      6237.2614      5515.9895      5313.6574      850.63022      541.48299      98.140207    
   6946000   257.6177      -415.86445     -329.58493     -415.71583      0              5323.941       30.957001      21.340725      32.308971      21344.755      5328.6043      6353.3598      4289.859      -1295.9688      2299.6279     -797.20279    
   6948000   250.29495     -418.80413     -334.97709     -418.65913      0              6794.2611      30.957001      21.340725      32.360077      21378.518      5968.1009      8263.9739      6150.7085      597.80503      29.700034     -1906.9342    
   6950000   253.62074     -417.723       -332.78211     -417.68856      0              6816.2238      30.957001      21.340725      32.540445      21497.677      7733.1935      6990.7486      5724.7292     -1033.2829     -282.30603      28.164135    
   6952000   261.1992      -417.34715     -329.86813     -417.28422      0              2672.4894      30.957001      21.340725      32.579533      21523.5        4040.1736      959.16753      3018.1269     -1630.5137      187.67631      255.78341    
   6954000   265.72891     -418.27357     -329.27749     -417.94934      0              4673.6696      30.957001      21.340725      32.275452      21322.611      5957.5141      5018.9043      3044.5903      397.44329     -98.061627      537.3916     
   6956000   265.10767     -419.22293     -330.43491     -418.75738      0              5310.2517      30.957001      21.340725      32.323029      21354.042      4382.8276      5750.83        5797.0974     -422.0855       2007.1173     -875.04449    
   6958000   261.07455     -420.684       -333.24673     -420.19105      0              5874.3086      30.957001      21.340725      32.151102      21240.46       5747.9609      5254.0453      6620.9196      2155.3253      1134.5698      636.92658    
   6960000   255.30824     -422.30481     -336.79875     -421.86383      0              5397.966       30.957001      21.340725      32.280338      21325.839      5831.1885      4078.4704      6284.239      -628.4186       1518.7709     -103.55099    
   6962000   262.11963     -421.44323     -333.65595     -420.84875      0              7917.5773      30.957001      21.340725      32.387175      21396.42       7475.1297      6720.9578      9556.6445     -1637.0237      1050.7924     -775.23464    
   6964000   254.96231     -422.05219     -336.66199     -421.43352      0              5130.1472      30.957001      21.340725      32.544803      21500.557      6034.4024      6323.8176      3032.2215      843.16012     -201.19641     -2297.5267    
   6966000   267.93992     -420.74619     -331.00962     -420.16789      0              4810.1047      30.957001      21.340725      32.462808      21446.387      6103.7399      3619.6253      4706.9488      70.718799     -395.64869     -3370.257     
   6968000   255.92826     -420.64308     -334.92937     -420.02359      0              6159.1856      30.957001      21.340725      32.449396      21437.526      4717.4416      7971.1753      5788.9397      1495.5732      337.27031     -1048.805     
   6970000   255.12473     -417.41304     -331.96844     -417.10051      0              7205.0695      30.957001      21.340725      32.399948      21404.859      9069.3968      6535.6253      6010.1863     -744.28297     -1239.1912      959.70997    
   6972000   266.54196     -419.80832     -330.53994     -419.3294       0              6467.5487      30.957001      21.340725      32.414964      21414.779      5087.4317      8154.3401      6160.8742      801.21417      495.68275      312.48589    
   6974000   264.81605     -420.66316     -331.97281     -420.13038      0              5771.628       30.957001      21.340725      32.476411      21455.374      5994.7324      3653.6351      7666.5164      1050.5944      798.02038      1777.4331    
   6976000   265.42256     -423.29985     -334.40637     -422.71058      0              6410.3549      30.957001      21.340725      32.508644      21476.668      6062.2058      7116.3519      6052.5069     -503.6968       728.81463      979.58572    
   6978000   260.51804     -422.32399     -335.0731      -421.82966      0              5899.3859      30.957001      21.340725      32.515858      21481.434      7330.2232      5349.169       5018.7653     -224.36736     -2816.1319     -443.71849    
   6980000   256.43113     -420.61112     -334.72899     -420.02624      0              4980.4001      30.957001      21.340725      32.333914      21361.233      1778.3292      6494.2613      6668.6098     -419.88613      239.05726      913.67678    
   6982000   260.9789      -421.4331      -334.02786     -420.97232      0              5037.8131      30.957001      21.340725      32.421451      21419.064      6768.9194      4981.0084      3363.5114     -1217.0053     -758.70191      1035.8117    
   6984000   261.13622     -424.80488     -337.34696     -424.24777      0              6602.3456      30.957001      21.340725      32.211613      21280.436      5398.8605      5320.6341      9087.5424      15.182376      548.35628      1675.3495    
   6986000   257.06342     -420.77284     -334.67895     -420.1693       0              5752.1504      30.957001      21.340725      32.328846      21357.886      6018.3609      3189.6367      8048.4535      988.53497     -127.21908      2916.2399    
   6988000   250.4404      -418.72689     -334.85114     -418.39563      0              5416.0079      30.957001      21.340725      32.419126      21417.529      5306.2958      6309.1273      4632.6007     -605.05054      617.48009      1025.8564    
   6990000   260.53773     -420.09737     -332.83989     -419.523        0              6627.6374      30.957001      21.340725      32.3563        21376.023      7064.5982      5589.3419      7228.972      -1155.4659      717.96267     -371.57446    
   6992000   263.79277     -421.74433     -333.39669     -421.40486      0              5416.6649      30.957001      21.340725      32.480924      21458.355      5557.5114      5526.8854      5165.5979     -463.48154     -732.6465      -99.86351     
   6994000   268.91813     -419.97005     -329.90586     -419.42964      0              4596.0093      30.957001      21.340725      32.581569      21524.846      3099.048       5157.8151      5531.1648     -1202.7014      177.72945      1104.789     
   6996000   254.77628     -419.45279     -334.1249      -419.1062       0              6096.6991      30.957001      21.340725      32.534138      21493.51       4814.2531      5952.7127      7523.1315     -505.28349      1538.7576      146.68761    
   6998000   261.6932      -418.99792     -331.35346     -418.41216      0              6650.1591      30.957001      21.340725      32.449892      21437.854      7485.5723      6250.6654      6214.2397     -388.53497     -219.54016      865.04818    
   7000000   255.41065     -418.58613     -333.04577     -418.09447      0              5956.4215      30.957001      21.340725      32.541661      21498.481      7271.0607      6035.3884      4562.8155      668.04181     -199.50208     -864.96731    
   7002000   263.69294     -420.77543     -332.46122     -420.23777      0              5486.521       30.957001      21.340725      32.445928      21435.235      5137.9911      5148.0002      6173.5717     -5.660322       536.3567       1269.9983    
   7004000   261.54762     -423.00875     -335.41304     -422.48588      0              3861.0992      30.957001      21.340725      32.499608      21470.699      4472.4755      2736.9736      4373.8485     -860.72581     -990.52702     -1409.693     
   7006000   261.15778     -419.48096     -332.01581     -418.92842      0              6885.4814      30.957001      21.340725      32.422103      21419.496      5288.1939      7546.076       7822.1742      1340.958       3705.2837      441.78173    
   7008000   256.47288     -422.20291     -336.3068      -421.64339      0              5352.5113      30.957001      21.340725      32.315956      21349.37       4674.6182      5262.2431      6120.6725     -1572.4678      1825.1381      321.80342    
   7010000   263.83956     -420.32451     -331.9612      -419.80661      0              7169.5709      30.957001      21.340725      32.326817      21356.545      6650.8911      6615.1184      8242.7032     -423.96774     -476.05779     -678.19018    
   7012000   259.84939     -420.00234     -332.97539     -419.41633      0              7563.2638      30.957001      21.340725      32.359941      21378.428      6891.6172      5724.7262      10073.448      1235.5496     -727.44705      1101.6397    
   7014000   257.94389     -420.2318      -333.84302     -419.65237      0              4207.7251      30.957001      21.340725      32.35621       21375.963      2589.9313      4546.6634      5486.5807     -907.12651      1779.5727      517.36956    
   7016000   266.9992      -418.30974     -328.88823     -417.76571      0              4680.6158      30.957001      21.340725      32.479864      21457.654      5071.0233      3911.6053      5059.219       66.584349     -831.71973     -264.08983    
   7018000   268.75909     -420.38709     -330.37617     -419.8058       0              5927.4294      30.957001      21.340725      32.417329      21416.341      5833.1647      4736.9339      7212.1896      321.2936       794.63688      1372.3181    
   7020000   253.07842     -418.52759     -333.76833     -417.93155      0              6125.6527      30.957001      21.340725      32.451098      21438.65       7192.0591      5652.8534      5532.0456     -2138.6336     -693.85237     -110.29594    
   7022000   250.80615     -418.22273     -334.22449     -417.65021      0              7343.2768      30.957001      21.340725      32.491154      21465.114      6208.0528      7165.7422      8656.0353     -1081.4838      442.34575      695.457      
   7024000   256.31173     -420.59701     -334.75487     -419.97972      0              6394.4244      30.957001      21.340725      32.370553      21385.439      7888.4064      3781.8371      7513.0297      510.46393     -737.94449     -529.45967    
   7026000   251.98615     -418.24397     -333.85053     -417.69309      0              3492.7151      30.957001      21.340725      32.475722      21454.918      3717.898       3713.0988      3047.1484      185.5899      -416.51176     -610.4953     
   7028000   267.15682     -419.0447      -329.5704      -418.514        0              5817.2602      30.957001      21.340725      32.546161      21501.453      7965.2962      4989.6276      4496.8568     -299.20466      67.063484      506.53803    
   7030000   267.20085     -421.07978     -331.59073     -420.4675       0              5497.408       30.957001      21.340725      32.466706      21448.962      4439.3717      5917.9249      6134.9272      683.0531       1742.3149     -326.8896     
   7032000   253.35296     -418.05652     -333.20531     -417.52772      0              5049.0511      30.957001      21.340725      32.449526      21437.612      4164.7354      6041.5508      4940.8671      1813.8518     -730.79252     -1080.0079    
   7034000   263.74469     -419.84724     -331.51571     -419.38204      0              6250.2632      30.957001      21.340725      32.301712      21339.96       3789.2145      8426.9837      6534.5913     -128.74954      1536.4347     -197.51514    
   7036000   264.59463     -420.5743      -331.95811     -419.98683      0              5474.1568      30.957001      21.340725      32.36681       21382.966      5617.3024      5937.2527      4867.9152     -1771.0773      1629.2819     -572.99672    
   7038000   260.10586     -418.82916     -331.71631     -418.21572      0              6021.5662      30.957001      21.340725      32.355419      21375.441      6373.4576      5656.7136      6034.5276      73.994416      376.50126     -1198.6257    
   7040000   261.80374     -419.95127     -332.26978     -419.33705      0              6163.479       30.957001      21.340725      32.34399       21367.89       7502.9152      4414.3419      6573.18        623.57822      278.36538     -531.9728     
   7042000   262.76864     -419.15386     -331.14922     -418.54126      0              6455.1856      30.957001      21.340725      32.411201      21412.293      4992.2614      7724.755       6648.5404      809.07174     -262.18576      332.25983    
   7044000   247.42585     -417.84998     -334.98383     -417.23993      0              4859.8038      30.957001      21.340725      32.544776      21500.538      6773.4246      4121.2379      3684.7489      1057.0936     -994.89108     -259.3767     
   7046000   264.40203     -420.73608     -332.1844      -420.14931      0              4345.5883      30.957001      21.340725      32.632583      21558.548      4737.7213      3718.4786      4580.5651     -1256.4462      1490.7817      906.16823    
   7048000   263.81815     -421.54782     -333.19169     -421.04051      0              5486.7293      30.957001      21.340725      32.569796      21517.068      4757.9533      6895.8888      4806.3457     -699.37974      1878.5103      2047.4533    
   7050000   257.31338     -420.03096     -333.85335     -419.41865      0              5142.3253      30.957001      21.340725      32.534949      21494.047      4816.0818      3260.5089      7350.3853     -1615.1573      1342.4123      1268.9981    
   7052000   259.14247     -420.09701     -333.30681     -419.4866       0              7143.254       30.957001      21.340725      32.533119      21492.837      8441.3848      7041.3896      5946.9875      795.24945     -1330.3754      301.59928    
   7054000   257.38533     -421.08562     -334.88392     -420.56277      0              7661.3074      30.957001      21.340725      32.577357      21522.063      7351.1738      10297.068      5335.6808      1427.959       1152.4337     -1268.6668    
   7056000   256.36943     -418.3391      -332.47763     -417.74416      0              6183.4004      30.957001      21.340725      32.529752      21490.613      7412.3899      5408.7255      5729.0858     -906.3239       999.71377      1250.6688    
   7058000   253.36122     -418.65212     -333.79814     -418.09541      0              5884.0573      30.957001      21.340725      32.592574      21532.116      6168.5226      4681.423       6802.2263     -1329.6672      665.03241      354.62418    
   7060000   250.43557     -418.2614      -334.38726     -417.65639      0              6721.3389      30.957001      21.340725      32.488962      21463.665      8428.6962      3512.9004      8222.4201     -618.68371     -149.86698      575.60868    
WARNING: Wall time limit reached (../timer.cpp:193)
Loop time of 13626.8 on 4 procs for 1060000 steps with 2592 atoms

Performance: 3.360 ns/day, 7.142 hours/ns, 77.788 timesteps/s
1459.2% CPU use with 4 MPI tasks x no OpenMP threads

MPI task timing breakdown:
Section |  min time  |  avg time  |  max time  |%varavg| %total
---------------------------------------------------------------
Pair    | 3031.6     | 3103.8     | 3146.5     |  83.9 | 22.78
Bond    | 0.10788    | 0.11121    | 0.11531    |   0.9 |  0.00
Neigh   | 88.23      | 90.469     | 93.912     |  24.1 |  0.66
Comm    | 584.73     | 625.27     | 696.9      | 181.6 |  4.59
Output  | 755.06     | 755.32     | 756.07     |   1.6 |  5.54
Modify  | 9047.8     | 9048.1     | 9048.5     |   0.3 | 66.40
Other   |            | 3.701      |            |       |  0.03

Nlocal:            648 ave         652 max         645 min
Histogram: 1 1 0 0 0 1 0 0 0 1
Nghost:         4259.5 ave        4266 max        4256 min
Histogram: 1 0 2 0 0 0 0 0 0 1
Neighs:              0 ave           0 max           0 min
Histogram: 4 0 0 0 0 0 0 0 0 0
FullNghs:       167438 ave      169026 max      165372 min
Histogram: 1 0 0 1 0 0 0 0 0 2

Total # of neighbors = 669754
Ave neighs/atom = 258.39275
Ave special neighs/atom = 0
Neighbor list builds = 21200
Dangerous builds not checked
unfix 3
unfix 1
unfix 2


# Finalize simulation
write_restart	restart.lmp.${pid}
write_restart	restart.lmp.0
System init for write_restart ...
Generated 0 of 1 mixed pair_coeff terms from geometric mixing rule
write_data	data.final.${pid} nocoeff
write_data	data.final.0 nocoeff
System init for write_data ...
Generated 0 of 1 mixed pair_coeff terms from geometric mixing rule
Total wall time: 23:50:15
