LAMMPS data file via MDAnalysis

        2592  atoms
           0  bonds
           0  angles
           0  dihedrals
           0  impropers

           2  atom types
           0  bond types
           0  angle types
           0  dihedral types
           0  improper types

0.000000 30.957001 xlo xhi
0.000000 21.340725 ylo yhi
0.000000 30.865164 zlo zhi
-9.151055 1.004704 -10.217777 xy xz yz


Masses

1 1.008000
2 15.999000

Atoms

1 0 1 0.000000 8.513000 19.110001 5.062000
2 0 2 0.000000 8.136000 18.195999 4.913000
3 0 2 0.000000 8.012000 19.724001 4.568000
4 0 1 0.000000 16.333000 17.964001 8.846000
5 0 2 0.000000 26.325001 -2.892000 8.999000
6 0 2 0.000000 16.427000 17.457001 8.028000
7 0 1 0.000000 18.815001 5.281000 30.450001
8 0 2 0.000000 19.412001 5.929000 30.051001
9 0 2 0.000000 18.450001 14.907000 0.054000
10 0 1 0.000000 14.148000 12.391000 12.431000
11 0 2 0.000000 13.543000 12.882000 12.932000
12 0 2 0.000000 13.735000 11.937000 11.677000
13 0 1 0.000000 26.003000 -2.783000 13.240000
14 0 2 0.000000 26.711000 -3.136000 13.677000
15 0 2 0.000000 26.476000 -2.439000 12.429000
16 0 1 0.000000 2.143000 7.353000 8.621000
17 0 2 0.000000 2.438000 6.829000 9.411000
18 0 2 0.000000 1.220000 7.071000 8.366000
19 0 1 0.000000 27.400999 0.207000 9.330000
20 0 2 0.000000 28.034000 0.884000 9.620000
21 0 2 0.000000 27.002001 0.395000 8.419000
22 0 1 0.000000 11.242000 -2.545000 12.154000
23 0 2 0.000000 12.074000 -2.144000 12.303000
24 0 2 0.000000 10.724000 -1.976000 11.519000
25 0 1 0.000000 -0.676000 -0.821000 11.130000
26 0 2 0.000000 0.282000 -0.673000 11.195000
27 0 2 0.000000 -1.088000 0.022000 11.109000
28 0 1 0.000000 14.856000 14.220000 4.634000
29 0 2 0.000000 14.009000 13.880000 4.956000
30 0 2 0.000000 15.236000 14.642000 5.384000
31 0 1 0.000000 -0.455000 6.636000 7.450000
32 0 2 0.000000 -0.330000 6.278000 6.580000
33 0 2 0.000000 -1.056000 5.994000 7.987000
34 0 1 0.000000 9.945000 -0.872000 5.541000
35 0 2 0.000000 10.138000 -0.727000 4.601000
36 0 2 0.000000 9.460000 -0.113000 5.811000
37 0 1 0.000000 8.090000 -2.864000 15.047000
38 0 2 0.000000 8.828000 -3.504000 14.967000
39 0 2 0.000000 8.312000 -2.370000 14.219000
40 0 1 0.000000 17.149000 12.136000 3.938000
41 0 2 0.000000 17.506001 12.315000 2.990000
42 0 2 0.000000 16.252001 12.564000 3.982000
43 0 1 0.000000 28.028000 3.364000 12.427000
44 0 2 0.000000 -2.418000 4.117000 12.814000
45 0 2 0.000000 28.114000 2.701000 13.105000
46 0 1 0.000000 15.000000 16.521000 13.084000
47 0 2 0.000000 14.665000 16.737000 12.201000
48 0 2 0.000000 24.725000 -4.108000 13.353000
49 0 1 0.000000 2.137000 10.253000 8.946000
50 0 2 0.000000 1.937000 9.298000 8.900000
51 0 2 0.000000 3.099000 10.220000 9.192000
52 0 1 0.000000 8.328000 11.179000 14.156000
53 0 2 0.000000 8.387000 11.523000 15.085000
54 0 2 0.000000 8.559000 10.224000 14.128000
55 0 1 0.000000 -3.946000 12.640000 7.810000
56 0 2 0.000000 -3.238000 12.547000 8.460000
57 0 2 0.000000 -4.768000 12.518000 8.340000
58 0 1 0.000000 9.095000 4.138000 12.954000
59 0 2 0.000000 9.571000 3.996000 13.788000
60 0 2 0.000000 8.298000 3.534000 13.045000
61 0 1 0.000000 9.198000 12.678000 5.226000
62 0 2 0.000000 9.473000 11.991000 5.813000
63 0 2 0.000000 9.794000 12.777000 4.479000
64 0 1 0.000000 21.523001 -0.093000 11.095000
65 0 2 0.000000 21.674999 0.245000 12.002000
66 0 2 0.000000 20.532000 -0.017000 11.052000
67 0 1 0.000000 15.818000 9.146000 2.784000
68 0 2 0.000000 15.775000 10.079000 2.457000
69 0 2 0.000000 16.354000 9.069000 3.621000
70 0 1 0.000000 11.397000 16.516001 5.326000
71 0 2 0.000000 11.100000 16.353001 6.240000
72 0 2 0.000000 11.079000 17.368000 5.031000
73 0 1 0.000000 -7.822000 15.275000 11.802000
74 0 2 0.000000 -7.813000 16.305000 11.723000
75 0 2 0.000000 -6.912000 14.961000 11.955000
76 0 1 0.000000 23.118000 7.385000 13.460000
77 0 2 0.000000 23.243999 7.304000 12.466000
78 0 2 0.000000 23.135000 8.301000 13.727000
79 0 1 0.000000 17.257999 8.122000 13.565000
80 0 2 0.000000 16.757999 8.188000 12.781000
81 0 2 0.000000 16.643000 8.339000 14.284000
82 0 1 0.000000 17.471001 18.587999 1.369000
83 0 2 0.000000 17.305000 19.490999 1.145000
84 0 2 0.000000 18.294001 18.549000 1.922000
85 0 1 0.000000 21.450001 6.587000 4.123000
86 0 2 0.000000 20.575001 6.790000 4.538000
87 0 2 0.000000 21.214001 6.308000 3.200000
88 0 1 0.000000 23.440001 12.676000 13.973000
89 0 2 0.000000 23.349001 11.709000 14.249000
90 0 2 0.000000 23.993000 12.642000 13.161000
91 0 1 0.000000 20.808001 0.667000 13.905000
92 0 2 0.000000 20.388000 1.513000 13.821000
93 0 2 0.000000 21.278000 0.613000 14.741000
94 0 1 0.000000 24.768000 6.679000 2.737000
95 0 2 0.000000 24.155001 5.912000 2.847000
96 0 2 0.000000 24.309999 7.342000 2.203000
97 0 1 0.000000 5.461000 13.823000 2.312000
98 0 2 0.000000 6.285000 13.891000 1.817000
99 0 2 0.000000 5.827000 13.459000 3.134000
100 0 1 0.000000 0.981000 15.101000 3.079000
101 0 2 0.000000 1.633000 15.188000 3.840000
102 0 2 0.000000 0.642000 14.197000 3.174000
103 0 1 0.000000 20.070999 17.738001 6.492000
104 0 2 0.000000 20.598000 18.117001 7.193000
105 0 2 0.000000 19.344000 18.337000 6.363000
106 0 1 0.000000 13.237000 1.760000 13.981000
107 0 2 0.000000 13.089000 0.883000 14.373000
108 0 2 0.000000 13.296000 1.729000 12.968000
109 0 1 0.000000 0.884000 15.747000 9.498000
110 0 2 0.000000 -0.009000 15.469000 9.796000
111 0 2 0.000000 1.453000 14.971000 9.497000
112 0 1 0.000000 -5.389000 14.058000 11.692000
113 0 2 0.000000 -4.789000 14.805000 11.643000
114 0 2 0.000000 -5.413000 13.903000 12.625000
115 0 1 0.000000 12.998000 16.714001 2.651000
116 0 2 0.000000 13.626000 16.096001 2.227000
117 0 2 0.000000 13.396000 17.160000 3.475000
118 0 1 0.000000 8.678000 19.364000 2.424000
119 0 2 0.000000 9.348000 19.544001 1.729000
120 0 2 0.000000 8.862000 18.472000 2.653000
121 0 1 0.000000 25.596001 5.681000 13.419000
122 0 2 0.000000 24.813999 6.239000 13.284000
123 0 2 0.000000 26.103001 5.701000 12.619000
124 0 1 0.000000 4.294000 6.152000 12.524000
125 0 2 0.000000 4.666000 6.590000 13.285000
126 0 2 0.000000 4.872000 5.436000 12.378000
127 0 1 0.000000 3.538000 14.868000 3.994000
128 0 2 0.000000 4.131000 15.612000 4.122000
129 0 2 0.000000 3.947000 14.370000 3.286000
130 0 1 0.000000 23.099001 4.918000 5.450000
131 0 2 0.000000 22.784000 4.035000 5.228000
132 0 2 0.000000 22.559999 5.486000 4.864000
133 0 1 0.000000 10.165000 17.327000 12.095000
134 0 2 0.000000 9.932000 16.478001 11.674000
135 0 2 0.000000 10.709000 17.077000 12.857000
136 0 1 0.000000 1.529000 -2.073000 13.484000
137 0 2 0.000000 0.788000 -1.533000 13.652000
138 0 2 0.000000 1.507000 -2.868000 14.008000
139 0 1 0.000000 25.820000 3.129000 10.929000
140 0 2 0.000000 25.030001 2.710000 11.167000
141 0 2 0.000000 26.406000 3.096000 11.654000
142 0 1 0.000000 9.315000 8.639000 14.090000
143 0 2 0.000000 10.127000 8.445000 13.665000
144 0 2 0.000000 8.602000 8.040000 13.773000
145 0 1 0.000000 18.504000 0.138000 12.391000
146 0 2 0.000000 18.944000 0.320000 13.211000
147 0 2 0.000000 18.101999 -0.722000 12.374000
148 0 1 0.000000 8.872000 15.686000 2.442000
149 0 2 0.000000 9.654000 15.475000 2.924000
150 0 2 0.000000 8.240000 15.870000 3.154000
151 0 1 0.000000 9.929000 16.761000 8.436000
152 0 2 0.000000 9.845000 16.104000 9.152000
153 0 2 0.000000 10.908000 16.945999 8.383000
154 0 1 0.000000 -1.527000 9.949000 2.881000
155 0 2 0.000000 -1.992000 9.676000 3.736000
156 0 2 0.000000 -0.584000 9.868000 2.979000
157 0 1 0.000000 13.554000 -0.059000 1.867000
158 0 2 0.000000 13.111000 -0.690000 2.471000
159 0 2 0.000000 4.272000 20.900999 0.976000
160 0 1 0.000000 15.093000 5.214000 13.954000
161 0 2 0.000000 14.964000 5.159000 14.889000
162 0 2 0.000000 14.543000 4.515000 13.595000
163 0 1 0.000000 17.046000 5.736000 12.140000
164 0 2 0.000000 16.489000 5.758000 12.871000
165 0 2 0.000000 17.933001 5.739000 12.517000
166 0 1 0.000000 0.097000 7.737000 4.895000
167 0 2 0.000000 0.664000 8.288000 5.451000
168 0 2 0.000000 0.409000 7.969000 3.994000
169 0 1 0.000000 14.738000 10.353000 5.698000
170 0 2 0.000000 15.675000 9.990000 5.643000
171 0 2 0.000000 14.679000 11.054000 6.349000
172 0 1 0.000000 -2.824000 15.718000 2.839000
173 0 2 0.000000 -3.068000 16.245001 3.642000
174 0 2 0.000000 -2.050000 16.247000 2.434000
175 0 1 0.000000 4.873000 -0.513000 8.703000
176 0 2 0.000000 4.806000 -0.840000 7.795000
177 0 2 0.000000 4.160000 0.182000 8.817000
178 0 1 0.000000 4.453000 7.015000 14.992000
179 0 2 0.000000 4.620000 7.973000 14.791000
180 0 2 0.000000 3.480000 7.122000 15.305000
181 0 1 0.000000 -1.887000 7.999000 10.709000
182 0 2 0.000000 -1.113000 8.495000 10.678000
183 0 2 0.000000 -2.467000 8.291000 9.986000
184 0 1 0.000000 18.098000 -3.775000 15.149000
185 0 2 0.000000 17.339001 -3.282000 14.826000
186 0 2 0.000000 18.065001 -4.622000 14.664000
187 0 1 0.000000 10.943000 6.741000 11.987000
188 0 2 0.000000 11.820000 6.967000 11.660000
189 0 2 0.000000 11.083000 6.025000 12.634000
190 0 1 0.000000 11.562000 10.632000 8.513000
191 0 2 0.000000 12.098000 9.898000 8.112000
192 0 2 0.000000 10.755000 10.767000 7.960000
193 0 1 0.000000 13.179000 -1.143000 4.543000
194 0 2 0.000000 3.598000 19.434000 3.989000
195 0 2 0.000000 12.566000 -0.424000 4.501000
196 0 1 0.000000 0.251000 9.916000 11.056000
197 0 2 0.000000 0.983000 9.982000 10.429000
198 0 2 0.000000 0.726000 9.759000 11.907000
199 0 1 0.000000 25.899000 0.087000 6.912000
200 0 2 0.000000 26.124001 0.611000 6.081000
201 0 2 0.000000 25.033001 0.433000 7.156000
202 0 1 0.000000 1.655000 11.245000 14.990000
203 0 2 0.000000 1.322000 12.103000 14.707000
204 0 2 0.000000 1.506000 10.518000 14.305000
205 0 1 0.000000 23.231001 13.928000 2.289000
206 0 2 0.000000 23.190001 13.441000 1.436000
207 0 2 0.000000 22.629999 14.724000 2.260000
208 0 1 0.000000 27.827000 0.899000 2.469000
209 0 2 0.000000 27.500999 0.363000 1.746000
210 0 2 0.000000 28.146000 0.260000 3.147000
211 0 1 0.000000 0.623000 0.101000 1.260000
212 0 2 0.000000 0.044000 0.867000 1.063000
213 0 2 0.000000 1.413000 0.307000 0.819000
214 0 1 0.000000 21.934999 2.762000 0.633000
215 0 2 0.000000 22.546000 2.546000 1.331000
216 0 2 0.000000 23.247999 -7.940000 30.731001
217 0 1 0.000000 -3.117000 14.701000 6.104000
218 0 2 0.000000 -3.684000 15.459000 5.953000
219 0 2 0.000000 -3.584000 14.020000 6.664000
220 0 1 0.000000 7.638000 11.706000 8.755000
221 0 2 0.000000 7.397000 12.538000 9.237000
222 0 2 0.000000 7.441000 11.039000 9.401000
223 0 1 0.000000 24.101999 13.260000 4.721000
224 0 2 0.000000 24.937000 12.786000 4.848000
225 0 2 0.000000 23.882999 13.192000 3.778000
226 0 1 0.000000 14.401000 14.639000 8.165000
227 0 2 0.000000 15.070000 15.022000 7.594000
228 0 2 0.000000 14.807000 14.460000 9.069000
229 0 1 0.000000 7.983000 17.455999 0.590000
230 0 2 0.000000 9.020000 6.888000 30.561001
231 0 2 0.000000 7.979000 16.639999 1.089000
232 0 1 0.000000 17.129000 10.660000 7.854000
233 0 2 0.000000 17.691000 11.011000 7.103000
234 0 2 0.000000 17.773001 10.474000 8.572000
235 0 1 0.000000 -0.250000 12.400000 1.840000
236 0 2 0.000000 -0.714000 12.861000 1.105000
237 0 2 0.000000 -0.967000 12.173000 2.451000
238 0 1 0.000000 11.939000 11.455000 14.107000
239 0 2 0.000000 11.485000 11.495000 13.261000
240 0 2 0.000000 12.109000 12.344000 14.361000
241 0 1 0.000000 2.916000 1.628000 9.083000
242 0 2 0.000000 3.477000 2.443000 9.014000
243 0 2 0.000000 2.450000 1.442000 8.244000
244 0 1 0.000000 1.324000 3.933000 6.888000
245 0 2 0.000000 1.049000 3.895000 7.800000
246 0 2 0.000000 0.529000 3.870000 6.285000
247 0 1 0.000000 4.713000 10.614000 9.538000
248 0 2 0.000000 5.103000 11.469000 9.638000
249 0 2 0.000000 5.181000 10.244000 8.760000
250 0 1 0.000000 19.087999 10.408000 0.901000
251 0 2 0.000000 19.548000 10.754000 1.698000
252 0 2 0.000000 19.563000 9.602000 0.659000
253 0 1 0.000000 18.834999 15.784000 3.581000
254 0 2 0.000000 17.921000 15.812000 3.352000
255 0 2 0.000000 19.219999 14.902000 3.215000
256 0 1 0.000000 3.349000 5.212000 5.806000
257 0 2 0.000000 2.620000 4.808000 6.305000
258 0 2 0.000000 4.070000 4.778000 6.279000
259 0 1 0.000000 1.401000 17.622000 4.944000
260 0 2 0.000000 1.160000 18.466999 5.422000
261 0 2 0.000000 1.360000 16.837000 5.607000
262 0 1 0.000000 28.843000 2.472000 7.369000
263 0 2 0.000000 -1.884000 2.764000 6.461000
264 0 2 0.000000 27.847000 2.562000 7.427000
265 0 1 0.000000 7.897000 10.285000 2.448000
266 0 2 0.000000 7.309000 9.582000 2.608000
267 0 2 0.000000 7.446000 11.089000 2.370000
268 0 1 0.000000 12.100000 5.905000 1.371000
269 0 2 0.000000 11.448000 5.489000 1.899000
270 0 2 0.000000 11.675000 6.280000 0.548000
271 0 1 0.000000 29.672001 2.310000 1.610000
272 0 2 0.000000 28.951000 1.677000 1.918000
273 0 2 0.000000 -0.633000 2.224000 2.365000
274 0 1 0.000000 11.608000 10.441000 0.713000
275 0 2 0.000000 11.472000 9.568000 0.240000
276 0 2 0.000000 11.224000 10.318000 1.611000
277 0 1 0.000000 3.828000 2.364000 15.091000
278 0 2 0.000000 3.027000 2.410000 14.657000
279 0 2 0.000000 3.109000 2.936000 15.304000
280 0 1 0.000000 20.981001 6.159000 1.632000
281 0 2 0.000000 21.670000 6.360000 0.985000
282 0 2 0.000000 20.422001 6.981000 1.554000
283 0 1 0.000000 2.405000 13.472000 9.331000
284 0 2 0.000000 3.326000 13.578000 9.661000
285 0 2 0.000000 2.568000 13.083000 8.480000
286 0 1 0.000000 15.587000 1.887000 11.746000
287 0 2 0.000000 14.796000 2.348000 11.504000
288 0 2 0.000000 16.375999 2.406000 11.386000
289 0 1 0.000000 7.831000 5.838000 5.631000
290 0 2 0.000000 7.644000 5.966000 4.726000
291 0 2 0.000000 8.336000 6.563000 5.987000
292 0 1 0.000000 23.042999 4.534000 2.314000
293 0 2 0.000000 22.138000 4.454000 2.361000
294 0 2 0.000000 23.429001 3.693000 2.564000
295 0 1 0.000000 6.353000 0.283000 14.024000
296 0 2 0.000000 6.785000 -0.009000 14.871000
297 0 2 0.000000 5.375000 0.247000 14.337000
298 0 1 0.000000 10.685000 2.185000 14.263000
299 0 2 0.000000 11.592000 1.782000 14.206000
300 0 2 0.000000 10.066000 1.689000 13.702000
301 0 1 0.000000 21.844999 15.610000 14.256000
302 0 2 0.000000 -8.339000 15.800000 14.836000
303 0 2 0.000000 22.236000 15.232000 13.466000
304 0 1 0.000000 -1.902000 5.949000 4.556000
305 0 2 0.000000 -2.566000 6.031000 3.803000
306 0 2 0.000000 -1.461000 6.807000 4.599000
307 0 1 0.000000 -2.653000 19.031000 1.445000
308 0 2 0.000000 -1.827000 18.930000 1.928000
309 0 2 0.000000 -3.300000 19.197001 2.139000
310 0 1 0.000000 7.594000 -0.616000 16.330999
311 0 2 0.000000 8.534000 -0.511000 16.201000
312 0 2 0.000000 7.474000 -1.507000 15.968000
313 0 1 0.000000 18.885000 2.661000 13.443000
314 0 2 0.000000 19.034000 3.557000 13.778000
315 0 2 0.000000 17.972000 2.446000 13.757000
316 0 1 0.000000 9.497000 6.015000 9.893000
317 0 2 0.000000 9.802000 6.352000 10.724000
318 0 2 0.000000 10.293000 5.735000 9.388000
319 0 1 0.000000 11.930000 5.443000 8.653000
320 0 2 0.000000 12.616000 5.998000 9.035000
321 0 2 0.000000 12.008000 4.547000 9.030000
322 0 1 0.000000 21.858000 16.146999 2.049000
323 0 2 0.000000 22.695999 16.573000 1.894000
324 0 2 0.000000 21.627001 16.450001 2.915000
325 0 1 0.000000 24.510000 7.408000 7.623000
326 0 2 0.000000 25.042000 8.058000 8.111000
327 0 2 0.000000 23.575001 7.637000 7.685000
328 0 1 0.000000 19.750000 1.518000 6.492000
329 0 2 0.000000 19.624001 2.038000 7.319000
330 0 2 0.000000 18.884001 1.138000 6.364000
331 0 1 0.000000 8.459000 7.744000 7.902000
332 0 2 0.000000 9.420000 7.730000 7.757000
333 0 2 0.000000 8.479000 7.327000 8.790000
334 0 1 0.000000 15.768000 -0.627000 10.671000
335 0 2 0.000000 15.847000 0.194000 11.134000
336 0 2 0.000000 16.603001 -1.052000 10.965000
337 0 1 0.000000 16.867001 5.643000 4.426000
338 0 2 0.000000 16.117001 5.683000 5.030000
339 0 2 0.000000 17.671000 5.635000 4.927000
340 0 1 0.000000 2.070000 -0.542000 10.908000
341 0 2 0.000000 2.706000 -0.986000 11.523000
342 0 2 0.000000 2.536000 0.275000 10.714000
343 0 1 0.000000 22.212000 1.959000 5.230000
344 0 2 0.000000 21.318001 1.645000 5.529000
345 0 2 0.000000 22.433001 1.399000 4.460000
346 0 1 0.000000 22.120001 16.495001 8.317000
347 0 2 0.000000 21.347000 16.586000 8.930000
348 0 2 0.000000 21.844999 15.731000 7.749000
349 0 1 0.000000 23.483000 10.316000 13.303000
350 0 2 0.000000 23.018999 10.433000 12.464000
351 0 2 0.000000 24.400999 10.109000 13.077000
352 0 1 0.000000 25.577000 7.920000 4.888000
353 0 2 0.000000 24.997000 7.580000 5.550000
354 0 2 0.000000 25.313000 7.411000 4.067000
355 0 1 0.000000 15.191000 5.687000 9.903000
356 0 2 0.000000 15.568000 5.318000 9.128000
357 0 2 0.000000 15.883000 5.663000 10.604000
358 0 1 0.000000 10.891000 14.444000 3.954000
359 0 2 0.000000 11.209000 15.283000 4.300000
360 0 2 0.000000 11.579000 14.112000 3.312000
361 0 1 0.000000 -0.494000 13.488000 6.141000
362 0 2 0.000000 -1.389000 13.797000 6.064000
363 0 2 0.000000 -0.408000 12.881000 5.363000
364 0 1 0.000000 0.039000 7.193000 1.826000
365 0 2 0.000000 0.751000 7.290000 1.133000
366 0 2 0.000000 -0.771000 7.612000 1.515000
367 0 1 0.000000 8.045000 1.074000 6.106000
368 0 2 0.000000 7.154000 1.312000 5.767000
369 0 2 0.000000 7.902000 0.669000 7.004000
370 0 1 0.000000 -5.792000 16.086000 2.225000
371 0 2 0.000000 -4.973000 16.023001 2.680000
372 0 2 0.000000 -6.146000 15.220000 2.193000
373 0 1 0.000000 16.184000 3.047000 3.575000
374 0 2 0.000000 16.412001 3.954000 3.716000
375 0 2 0.000000 16.274000 2.997000 2.629000
376 0 1 0.000000 7.228000 2.720000 14.544000
377 0 2 0.000000 8.081000 2.284000 14.731000
378 0 2 0.000000 6.734000 1.877000 14.331000
379 0 1 0.000000 2.205000 5.780000 10.723000
380 0 2 0.000000 1.265000 5.824000 11.053000
381 0 2 0.000000 2.818000 5.639000 11.489000
382 0 1 0.000000 -4.118000 8.536000 8.886000
383 0 2 0.000000 -3.910000 9.440000 8.685000
384 0 2 0.000000 -3.690000 8.087000 8.153000
385 0 1 0.000000 17.594000 11.819000 10.792000
386 0 2 0.000000 16.893000 12.471000 10.793000
387 0 2 0.000000 17.437000 11.344000 11.616000
388 0 1 0.000000 -5.738000 13.388000 15.725000
389 0 2 0.000000 -6.577000 13.170000 15.266000
390 0 2 0.000000 -6.087000 13.659000 16.596001
391 0 1 0.000000 19.771000 13.382000 2.948000
392 0 2 0.000000 20.535999 13.241000 3.552000
393 0 2 0.000000 20.271999 13.492000 2.133000
394 0 1 0.000000 17.797001 19.033001 6.210000
395 0 2 0.000000 26.820000 -1.428000 6.539000
396 0 2 0.000000 17.257999 18.893999 5.479000
397 0 1 0.000000 17.167999 0.773000 5.969000
398 0 2 0.000000 16.507999 0.432000 5.430000
399 0 2 0.000000 16.914000 0.704000 6.855000
400 0 1 0.000000 29.142000 -0.609000 4.465000
401 0 2 0.000000 19.760000 19.792999 4.414000
402 0 2 0.000000 29.332001 -0.483000 5.416000
403 0 1 0.000000 3.798000 7.851000 6.580000
404 0 2 0.000000 3.786000 6.952000 6.147000
405 0 2 0.000000 3.244000 7.692000 7.363000
406 0 1 0.000000 -0.966000 -1.230000 13.892000
407 0 2 0.000000 30.023001 -1.283000 12.910000
408 0 2 0.000000 29.535999 -0.409000 14.040000
409 0 1 0.000000 1.260000 16.253000 12.833000
410 0 2 0.000000 1.533000 17.028000 12.379000
411 0 2 0.000000 0.273000 16.243999 12.791000
412 0 1 0.000000 21.402000 0.058000 3.092000
413 0 2 0.000000 21.368000 -0.747000 3.610000
414 0 2 0.000000 20.510000 0.383000 3.245000
415 0 1 0.000000 3.851000 15.812000 7.713000
416 0 2 0.000000 3.171000 16.278000 7.180000
417 0 2 0.000000 3.351000 15.001000 7.970000
418 0 1 0.000000 -7.332000 18.239000 2.411000
419 0 2 0.000000 -7.887000 18.348000 3.161000
420 0 2 0.000000 -6.793000 17.438000 2.501000
421 0 1 0.000000 25.566000 -0.382000 14.409000
422 0 2 0.000000 25.486000 -0.262000 15.392000
423 0 2 0.000000 25.518999 -1.318000 14.208000
424 0 1 0.000000 23.236000 -1.368000 8.537000
425 0 2 0.000000 23.680000 -0.704000 9.141000
426 0 2 0.000000 23.799999 -2.132000 8.638000
427 0 1 0.000000 -6.377000 15.705000 8.440000
428 0 2 0.000000 -7.369000 16.066999 8.551000
429 0 2 0.000000 -6.215000 14.897000 8.941000
430 0 1 0.000000 14.872000 6.437000 6.191000
431 0 2 0.000000 14.044000 5.926000 6.244000
432 0 2 0.000000 14.549000 7.245000 5.704000
433 0 1 0.000000 -1.804000 8.389000 13.509000
434 0 2 0.000000 -1.523000 9.252000 13.860000
435 0 2 0.000000 -2.141000 8.417000 12.607000
436 0 1 0.000000 -2.958000 10.655000 11.706000
437 0 2 0.000000 -2.872000 11.202000 12.560000
438 0 2 0.000000 -2.514000 11.171000 10.973000
439 0 1 0.000000 23.426001 0.314000 1.468000
440 0 2 0.000000 14.506000 20.712000 1.333000
441 0 2 0.000000 22.538000 0.253000 1.882000
442 0 1 0.000000 22.329000 13.443000 9.954000
443 0 2 0.000000 21.441000 13.351000 10.417000
444 0 2 0.000000 22.642000 14.239000 10.436000
445 0 1 0.000000 21.451000 12.487000 5.026000
446 0 2 0.000000 21.386000 13.183000 5.760000
447 0 2 0.000000 22.381001 12.337000 4.966000
448 0 1 0.000000 3.187000 4.781000 29.872000
449 0 2 0.000000 3.487000 3.897000 30.108999
450 0 2 0.000000 3.703000 5.435000 30.375999
451 0 1 0.000000 23.384001 10.283000 6.739000
452 0 2 0.000000 23.674999 10.049000 7.616000
453 0 2 0.000000 22.385000 10.306000 6.865000
454 0 1 0.000000 17.735001 6.497000 2.326000
455 0 2 0.000000 16.899000 6.399000 2.817000
456 0 2 0.000000 17.282000 6.837000 1.574000
457 0 1 0.000000 20.816999 3.449000 15.541000
458 0 2 0.000000 20.811001 3.386000 14.582000
459 0 2 0.000000 20.993999 4.379000 15.768000
460 0 1 0.000000 23.802000 0.616000 13.053000
461 0 2 0.000000 24.554001 0.388000 13.637000
462 0 2 0.000000 23.264000 1.199000 13.634000
463 0 1 0.000000 5.066000 -1.434000 11.919000
464 0 2 0.000000 5.096000 -0.471000 11.700000
465 0 2 0.000000 4.634000 -1.390000 12.766000
466 0 1 0.000000 18.275000 -0.730000 14.709000
467 0 2 0.000000 19.059000 -1.189000 14.972000
468 0 2 0.000000 18.150000 -0.116000 15.460000
469 0 1 0.000000 19.575001 3.864000 2.488000
470 0 2 0.000000 20.056999 4.611000 2.138000
471 0 2 0.000000 19.504999 4.227000 3.397000
472 0 1 0.000000 5.975000 4.411000 6.978000
473 0 2 0.000000 6.485000 4.914000 6.311000
474 0 2 0.000000 6.552000 4.446000 7.708000
475 0 1 0.000000 -4.058000 19.118999 6.458000
476 0 2 0.000000 4.404000 -1.764000 5.945000
477 0 2 0.000000 5.903000 -1.895000 6.015000
478 0 1 0.000000 11.987000 13.748000 13.499000
479 0 2 0.000000 11.768000 14.706000 13.759000
480 0 2 0.000000 11.115000 13.338000 13.243000
481 0 1 0.000000 -4.070000 8.326000 14.663000
482 0 2 0.000000 -4.614000 7.576000 14.974000
483 0 2 0.000000 -3.295000 7.988000 14.234000
484 0 1 0.000000 -6.844000 15.665000 5.711000
485 0 2 0.000000 -6.887000 14.696000 5.410000
486 0 2 0.000000 -6.662000 15.562000 6.688000
487 0 1 0.000000 21.186001 11.641000 1.909000
488 0 2 0.000000 21.801001 12.258000 2.295000
489 0 2 0.000000 21.521000 10.747000 2.188000
490 0 1 0.000000 13.169000 4.872000 15.921000
491 0 2 0.000000 12.875000 5.631000 16.452999
492 0 2 0.000000 12.725000 4.932000 15.041000
493 0 1 0.000000 6.773000 2.701000 0.473000
494 0 2 0.000000 7.392000 2.961000 1.167000
495 0 2 0.000000 8.298000 -8.140000 30.820000
496 0 1 0.000000 -2.319000 5.255000 8.871000
497 0 2 0.000000 -3.099000 5.320000 8.328000
498 0 2 0.000000 -2.060000 4.376000 8.653000
499 0 1 0.000000 11.273000 18.525999 2.043000
500 0 2 0.000000 11.648000 17.650000 2.172000
501 0 2 0.000000 10.864000 18.625000 2.902000
502 0 1 0.000000 14.198000 0.604000 7.004000
503 0 2 0.000000 14.716000 -0.212000 7.151000
504 0 2 0.000000 14.672000 1.239000 6.426000
505 0 1 0.000000 24.579000 0.333000 10.224000
506 0 2 0.000000 24.368999 0.292000 11.160000
507 0 2 0.000000 25.511000 0.121000 10.212000
508 0 1 0.000000 14.116000 18.990000 1.928000
509 0 2 0.000000 13.353000 19.051001 2.494000
510 0 2 0.000000 14.848000 18.872000 2.532000
511 0 1 0.000000 -1.983000 12.837000 3.807000
512 0 2 0.000000 -2.314000 13.762000 3.869000
513 0 2 0.000000 -2.687000 12.278000 4.197000
514 0 1 0.000000 16.524000 18.955000 3.604000
515 0 2 0.000000 16.197001 19.870001 3.377000
516 0 2 0.000000 17.415001 18.915001 3.251000
517 0 1 0.000000 28.476999 -3.934000 14.311000
518 0 2 0.000000 19.875000 16.631001 14.133000
519 0 2 0.000000 29.004999 -3.094000 14.168000
520 0 1 0.000000 10.073000 4.134000 27.938000
521 0 2 0.000000 10.702000 4.392000 27.242001
522 0 2 0.000000 10.467000 4.462000 28.783001
523 0 1 0.000000 15.423000 13.960000 10.619000
524 0 2 0.000000 16.011000 14.645000 10.978000
525 0 2 0.000000 15.002000 13.560000 11.410000
526 0 1 0.000000 -0.935000 10.556000 14.434000
527 0 2 0.000000 -0.634000 11.449000 14.224000
528 0 2 0.000000 -0.292000 10.315000 15.115000
529 0 1 0.000000 6.307000 12.796000 4.811000
530 0 2 0.000000 6.172000 13.394000 5.581000
531 0 2 0.000000 7.196000 12.477000 4.906000
532 0 1 0.000000 9.552000 -5.004000 15.124000
533 0 2 0.000000 0.081000 15.437000 15.317000
534 0 2 0.000000 0.946000 16.254999 14.337000
535 0 1 0.000000 5.418000 3.073000 2.784000
536 0 2 0.000000 5.837000 2.704000 2.000000
537 0 2 0.000000 5.946000 2.588000 3.411000
538 0 1 0.000000 16.188999 15.948000 6.461000
539 0 2 0.000000 15.767000 16.632000 5.857000
540 0 2 0.000000 17.198000 15.867000 6.371000
541 0 1 0.000000 19.341999 7.743000 5.828000
542 0 2 0.000000 19.840000 8.552000 5.994000
543 0 2 0.000000 19.080999 7.345000 6.678000
544 0 1 0.000000 1.202000 12.129000 4.483000
545 0 2 0.000000 1.470000 11.280000 4.858000
546 0 2 0.000000 1.691000 12.286000 3.615000
547 0 1 0.000000 13.159000 7.430000 10.017000
548 0 2 0.000000 13.325000 7.976000 9.283000
549 0 2 0.000000 14.060000 7.129000 10.207000
550 0 1 0.000000 2.746000 16.152000 1.260000
551 0 2 0.000000 2.691000 16.913000 1.829000
552 0 2 0.000000 2.413000 15.457000 1.837000
553 0 1 0.000000 13.267000 2.591000 2.341000
554 0 2 0.000000 13.582000 3.448000 2.580000
555 0 2 0.000000 14.024000 2.052000 2.114000
556 0 1 0.000000 10.169000 2.871000 8.667000
557 0 2 0.000000 10.257000 3.215000 7.785000
558 0 2 0.000000 10.699000 2.050000 8.547000
559 0 1 0.000000 2.410000 12.717000 1.803000
560 0 2 0.000000 3.044000 13.144000 1.214000
561 0 2 0.000000 1.510000 12.956000 1.448000
562 0 1 0.000000 13.809000 -1.792000 13.068000
563 0 2 0.000000 14.438000 -1.482000 12.359000
564 0 2 0.000000 13.832000 -1.123000 13.758000
565 0 1 0.000000 19.945000 3.454000 8.870000
566 0 2 0.000000 19.313000 3.335000 9.587000
567 0 2 0.000000 20.684999 2.919000 9.158000
568 0 1 0.000000 22.466000 3.785000 11.683000
569 0 2 0.000000 22.643999 3.644000 12.625000
570 0 2 0.000000 23.033001 4.510000 11.413000
571 0 1 0.000000 -1.027000 5.916000 13.768000
572 0 2 0.000000 -1.285000 6.871000 13.726000
573 0 2 0.000000 -0.091000 6.032000 13.717000
574 0 1 0.000000 0.528000 3.514000 12.899000
575 0 2 0.000000 1.364000 3.245000 13.176000
576 0 2 0.000000 0.744000 3.370000 13.782000
577 0 1 0.000000 3.905000 9.026000 11.930000
578 0 2 0.000000 4.239000 9.337000 11.066000
579 0 2 0.000000 4.165000 8.103000 11.900000
580 0 1 0.000000 23.145000 -1.268000 5.708000
581 0 2 0.000000 23.597000 -0.751000 5.057000
582 0 2 0.000000 23.565001 -1.170000 6.571000
583 0 1 0.000000 0.945000 -0.723000 3.889000
584 0 2 0.000000 1.018000 -0.959000 2.916000
585 0 2 0.000000 -0.001000 -0.778000 4.051000
586 0 1 0.000000 -0.482000 5.617000 10.952000
587 0 2 0.000000 -0.531000 5.695000 11.891000
588 0 2 0.000000 -0.981000 6.339000 10.577000
589 0 1 0.000000 8.554000 14.878000 6.709000
590 0 2 0.000000 8.980000 14.093000 6.295000
591 0 2 0.000000 9.079000 15.248000 7.424000
592 0 1 0.000000 3.660000 0.559000 5.336000
593 0 2 0.000000 3.581000 0.504000 4.361000
594 0 2 0.000000 2.880000 0.927000 5.737000
595 0 1 0.000000 1.514000 1.223000 6.766000
596 0 2 0.000000 1.105000 2.098000 6.955000
597 0 2 0.000000 0.735000 0.684000 6.720000
598 0 1 0.000000 6.686000 6.000000 3.182000
599 0 2 0.000000 5.905000 5.442000 2.914000
600 0 2 0.000000 6.328000 6.873000 3.000000
601 0 1 0.000000 5.165000 13.344000 9.589000
602 0 2 0.000000 5.745000 13.797000 10.264000
603 0 2 0.000000 5.383000 13.711000 8.751000
604 0 1 0.000000 11.748000 9.246000 13.214000
605 0 2 0.000000 12.151000 9.782000 13.936000
606 0 2 0.000000 12.454000 8.657000 12.991000
607 0 1 0.000000 20.023001 5.223000 11.821000
608 0 2 0.000000 20.718000 4.627000 11.703000
609 0 2 0.000000 20.319000 6.039000 11.555000
610 0 1 0.000000 23.954000 -3.298000 15.613000
611 0 2 0.000000 24.559000 -3.546000 14.886000
612 0 2 0.000000 23.662001 -2.402000 15.464000
613 0 1 0.000000 -1.439000 16.365000 12.845000
614 0 2 0.000000 7.804000 -4.034000 12.639000
615 0 2 0.000000 -1.387000 16.349001 13.821000
616 0 1 0.000000 0.044000 11.372000 7.928000
617 0 2 0.000000 -0.142000 12.129000 7.425000
618 0 2 0.000000 0.937000 11.306000 8.245000
619 0 1 0.000000 19.037001 -0.768000 9.594000
620 0 2 0.000000 18.336000 -1.443000 9.591000
621 0 2 0.000000 19.573999 -0.899000 8.810000
622 0 1 0.000000 -2.854000 9.336000 5.109000
623 0 2 0.000000 -2.353000 9.076000 5.905000
624 0 2 0.000000 -3.636000 8.825000 5.184000
625 0 1 0.000000 15.952000 1.237000 1.184000
626 0 2 0.000000 16.742001 0.634000 1.014000
627 0 2 0.000000 15.178000 0.727000 0.887000
628 0 1 0.000000 24.594000 2.393000 1.900000
629 0 2 0.000000 25.496000 2.660000 2.184000
630 0 2 0.000000 24.649000 1.896000 1.088000
631 0 1 0.000000 17.885000 3.159000 10.916000
632 0 2 0.000000 17.671000 4.088000 10.986000
633 0 2 0.000000 18.332001 2.976000 11.742000
634 0 1 0.000000 12.380000 14.956000 10.882000
635 0 2 0.000000 13.176000 15.392000 10.638000
636 0 2 0.000000 12.501000 14.817000 11.862000
637 0 1 0.000000 2.940000 18.374001 2.781000
638 0 2 0.000000 2.278000 18.839001 2.254000
639 0 2 0.000000 2.395000 17.816999 3.410000
640 0 1 0.000000 23.726999 11.186000 2.342000
641 0 2 0.000000 24.662001 11.157000 2.365000
642 0 2 0.000000 23.476999 10.469000 2.981000
643 0 1 0.000000 22.038000 -1.843000 30.306000
644 0 2 0.000000 21.135000 -2.007000 29.968000
645 0 2 0.000000 22.587999 -2.586000 29.993000
646 0 1 0.000000 12.347000 17.464001 7.791000
647 0 2 0.000000 13.161000 17.284000 8.353000
648 0 2 0.000000 12.199000 18.430000 7.760000
649 0 1 0.000000 12.614000 12.938000 2.445000
650 0 2 0.000000 12.174000 13.239000 1.679000