LAMMPS data file via write_data, version 29 Sep 2021, timestep = 400000

972 atoms
2 atom types

-0.1273672981601024 20.118420298159876 xlo xhi
-0.07919489919601297 20.070247899194534 ylo yhi
0.17381706969801236 20.62695493030192 zlo zhi

Masses

1 1.008
2 15.999

Atoms # full

2 0 2 0 2.5091403800235703 2.3890368194092173 1.0170153930191617 0 0 0
31 0 1 0 0.8374662698205474 2.2059608773311767 1.7341114506066586 0 0 0
32 0 2 0 0.9226095933007779 1.242949729505549 2.0601365308080335 0 0 0
33 0 2 0 1.01108528166524 2.747353310377683 2.5325425156030703 0 0 0
5 0 2 0 3.3614452774760974 1.0097169880143655 3.589987062982791 0 0 0
1 0 1 0 3.084977162170873 2.674896206841792 0.2838424998896346 0 0 0
10 0 1 0 1.3894253102332146 3.8473545849449406 3.708929762698859 0 0 0
12 0 2 0 2.34999083608569 3.829339562440406 3.8821049469161277 0 0 0
18 0 2 0 4.340156008392298 3.2248137439293396 2.7044060741359366 0 0 0
4 0 1 0 4.142684697475244 1.3986110581589757 3.2017901383684944 0 0 0
36 0 2 0 6.135157221145204 2.397808565937121 1.0123025076066399 0 0 0
67 0 1 0 7.271346966448901 2.0181188088712565 2.4185798708784074 0 0 0
68 0 2 0 7.211561988748027 2.768512868483245 2.9810748285984605 0 0 0
6 0 2 0 4.838409327506691 1.195933517147735 3.8749604421822905 0 0 0
230 0 2 0 4.458299223582832 0.0735739779474667 1.8848424085743964 0 1 0
35 0 2 0 4.722018455763233 2.462078682365075 0.23764821587521293 0 0 0
34 0 1 0 5.668014982619794 2.69644672017224 0.18097353722348558 0 0 0
272 0 2 0 7.408575523394786 0.21765064756721259 2.760340366179517 0 1 0
69 0 2 0 7.963096920553591 2.3181620217010974 1.7654469742815946 0 0 0
40 0 1 0 11.134065449301668 0.6786524426590883 3.6551646509940086 0 0 0
54 0 2 0 11.04263434592412 2.66497846893186 3.3320436066903913 0 0 0
41 0 2 0 10.276741340510224 0.7035284011217381 4.104514572112546 0 0 0
52 0 1 0 10.751051726122839 3.5622545108955377 3.5703013874676275 0 0 0
53 0 2 0 11.407937665611607 3.865952317760783 4.201934548904026 0 0 0
39 0 2 0 9.970548414425451 2.783754835145632 0.6417755977431971 0 0 0
37 0 1 0 9.076643449516668 2.659284818824588 0.40990919962409844 0 0 0
70 0 1 0 12.168830446003335 2.5766675416013554 0.8810709029704312 0 0 0
72 0 2 0 12.914079664190588 2.351543480392235 1.4626262713197458 0 0 0
103 0 1 0 14.80487166865103 1.8343017130407206 2.173919825466192 0 0 0
105 0 2 0 14.694855282250005 0.8843006232828291 2.0988215836674278 0 0 0
84 0 2 0 14.56485081824245 3.280808744979899 3.6549135894371667 0 0 0
104 0 2 0 15.272329746567447 2.0863350054448477 1.3323926724924693 0 0 0
71 0 2 0 12.491945315199597 3.3572567147823293 0.37084506493467956 0 0 0
108 0 2 0 19.6941244042203 2.3511804175640623 0.9813441895578742 0 0 0
76 0 1 0 17.7027541420822 1.354536942187125 3.507544586409002 0 0 0
77 0 2 0 17.612288546331275 0.866885369364097 2.7313777017816743 0 0 0
89 0 2 0 17.937850532519963 3.1952666181070075 3.4879426785361605 0 0 0
107 0 2 0 18.15831463573758 2.4431440366091635 0.7095101341862428 0 0 0
106 0 1 0 19.012914046563562 2.508974499612199 0.3020509318667859 0 0 0
78 0 2 0 18.442779644380888 0.9640693678538022 3.9497546211766017 0 0 0
20 0 2 0 0.7807475470189053 5.150946970103848 2.4151772156047495 0 0 0
19 0 1 0 0.6124819544184746 5.846572573276913 1.7419389582005418 0 0 0
21 0 2 0 1.0089395639859209 6.615016080574225 2.1521609216454616 0 0 0
675 0 2 0 1.8993453198595192 5.4731514447979475 0.5499955749413541 0 0 1
46 0 1 0 7.926575767745444 4.567830878860511 3.8869721804879234 0 0 0
16 0 1 0 4.267093121122566 4.029491210293712 3.2680523724925012 0 0 0
17 0 2 0 4.321756396947425 4.8493567471355385 2.722546125938508 0 0 0
112 0 1 0 3.9274878921827057 7.862448928564137 3.523605091173223 0 0 0
14 0 2 0 4.296777057737501 5.856999269827986 0.5890906379600607 0 0 0
56 0 2 0 7.719360832658324 5.642710724562212 2.6176996881484302 0 0 0
114 0 2 0 4.146848468394557 7.595963738191792 2.6208416100010834 0 0 0
13 0 1 0 4.762178200923274 6.248948221753825 1.3289323183466921 0 0 0
15 0 2 0 5.720865104465748 6.24465715797818 1.188615565124364 0 0 0
55 0 1 0 7.692751854386333 6.201532866221228 1.7851004842945897 0 0 0
177 0 2 0 7.376964979171726 7.8438420812640315 2.3064019851566733 0 0 0
113 0 2 0 4.7376174922690195 7.715652323695043 4.086914735306787 0 0 0
57 0 2 0 8.362677640717951 5.902311425399996 1.1514889599317688 0 0 0
51 0 2 0 11.021073377752074 5.105088097025005 2.402412806067202 0 0 0
49 0 1 0 11.191028347061916 5.856661467565958 1.8909825072424848 0 0 0
50 0 2 0 10.732396792997498 5.625023247326954 1.058881976111857 0 0 0
150 0 2 0 10.920777357603917 7.38203534288564 3.016707292669593 0 0 0
149 0 2 0 9.729839268663989 7.746168372707566 4.018590829253955 0 0 0
47 0 2 0 8.867123686464026 4.29940565521267 3.8938212479992513 0 0 0
82 0 1 0 14.863921680696425 4.076043127932602 4.127158512899949 0 0 0
83 0 2 0 14.784911315055126 4.762142237957978 3.4189208873893895 0 0 0
91 0 1 0 14.04066276090344 6.052876403472664 2.181563140488763 0 0 0
92 0 2 0 13.9197548124761 6.991951117801795 2.2647746340873676 0 0 0
93 0 2 0 13.180355996798628 5.708564369775883 1.874409718387738 0 0 0
747 0 2 0 15.394867035121266 5.451178014744896 0.6289474268205522 0 0 1
88 0 1 0 17.695692493863458 4.102328450133926 3.7133703226856705 0 0 0
90 0 2 0 16.76039565945248 4.074848602539689 3.9848182432757184 0 0 0
86 0 2 0 17.930302553182106 5.268101476879018 2.1902820348384986 0 0 0
85 0 1 0 18.02123032438189 5.8897894336480245 1.4703260302863275 0 0 0
87 0 2 0 18.956232042341334 5.864808247043467 1.2420877922847797 0 0 0
185 0 2 0 17.628961669766188 7.378478077494306 2.7474063989103064 0 0 0
746 0 2 0 16.88215905454248 5.622087888709288 0.3807593229988576 0 0 1
184 0 1 0 17.49942735731146 7.897407671139503 3.545430931413936 0 0 0
139 0 1 0 0.8569663746441892 8.536087203688998 2.5423389041263964 0 0 0
141 0 2 0 1.4962236621975689 8.940348220041827 1.9191171411847232 0 0 0
110 0 2 0 3.395385416835738 9.410171212356063 0.3592628410933439 0 0 0
109 0 1 0 2.419873998094164 9.512799360060722 0.4056681393851685 0 0 0
119 0 2 0 1.2828386750830034 9.87879921658812 3.6650254784797967 0 0 0
129 0 2 0 0.7534965582848064 11.626036152841953 2.4954825217970655 0 0 0
118 0 1 0 1.4185716400029336 10.779826911352325 3.9619193593532573 0 0 0
120 0 2 0 2.3826629585663857 10.890764489714687 4.179203149437478 0 0 0
126 0 2 0 3.787538008275075 9.523225330593869 3.634260772683844 0 0 0
140 0 2 0 0.03258563214659857 8.596496193588989 2.0608349708256504 0 0 0
175 0 1 0 7.164591388438668 8.786745289356467 2.2607257082815324 0 0 0
176 0 2 0 6.293266809329627 8.903260807140574 1.816705412579767 0 0 0
142 0 1 0 5.078171709916526 9.210838168602228 0.5235568495733847 0 0 0
155 0 2 0 7.744835667164113 10.099910117708962 3.2460741012481726 0 0 0
124 0 1 0 4.015682457521074 10.455899350809574 3.725176106220292 0 0 0
122 0 2 0 4.134594697241015 11.643344400722484 2.1632010166657487 0 0 0
154 0 1 0 7.888490225313902 10.83479394019563 3.848665988834837 0 0 0
156 0 2 0 7.708167275296475 11.658407078804204 3.370716962037535 0 0 0
148 0 1 0 10.567725063450832 8.088737960213564 3.552296648060548 0 0 0
147 0 2 0 8.264587387194618 9.235095221297826 0.7137489209693901 0 0 0
162 0 2 0 10.698430685125738 9.883462924107024 3.763203710083456 0 0 0
179 0 2 0 10.917718577774611 9.132241696849853 1.295476552915513 0 0 0
178 0 1 0 11.777382237595054 9.243959331998346 0.9453361510495935 0 0 0
161 0 2 0 9.602525191876351 10.85946477244032 4.023996612304958 0 0 0
160 0 1 0 10.576038080611141 10.844425421225171 3.8558310731044814 0 0 0
158 0 2 0 10.971443302700823 11.753964771040799 2.5089377846526872 0 0 0
180 0 2 0 11.874749114097344 8.69105557242344 0.19690449183406322 0 0 0
211 0 1 0 13.9736581567067 8.751438815462318 2.4310385434518587 0 0 0
213 0 2 0 13.079421666984125 8.935531663110305 2.159796977170463 0 0 0
212 0 2 0 14.202146322025886 9.29350491975676 3.2447433259858665 0 0 0
183 0 2 0 15.2626428187588 9.118360038703877 0.9908996112544974 0 0 0
191 0 2 0 14.879937782652801 11.40176296173902 3.4099061769766634 0 0 0
190 0 1 0 15.043849753808146 10.79771456492456 4.176645113919785 0 0 0
192 0 2 0 16.011204461959732 10.655997958490287 4.190381301985968 0 0 0
181 0 1 0 15.93002747795796 9.24533897204504 0.2907251056671826 0 0 0
186 0 2 0 17.639162826812708 8.839697165964088 3.357281867610025 0 0 0
216 0 2 0 17.705306384358398 9.00386102646494 0.5901939149778963 0 0 0
214 0 1 0 18.66650379013086 8.870178361812869 0.7149930103880322 0 0 0
196 0 1 0 17.5908329423081 10.549289907874114 3.570161592044843 0 0 0
197 0 2 0 17.694109521744117 11.169759079679626 2.8217531382948566 0 0 0
198 0 2 0 18.25799245803211 10.83617732654816 4.262800365674068 0 0 0
249 0 2 0 0.4014133480514921 14.055360490905324 2.2321181238020555 0 0 0
221 0 2 0 2.7559143638664216 14.222676610509994 3.8358034358924056 0 0 0
127 0 1 0 0.4390471231150873 12.331495507077673 1.9256229259975879 0 0 0
123 0 2 0 3.6253037217521964 12.387429655977476 0.7816391235277198 0 0 0
247 0 1 0 0.16290336729813792 15.021230421478608 2.393259023023385 0 0 0
218 0 2 0 1.7251246013133168 15.649875847551721 1.2397374985176237 0 0 0
217 0 1 0 2.2137966903655926 15.879053038709017 0.46811022978690076 0 0 0
220 0 1 0 3.652072047707592 14.504814458840439 3.4797678750602583 0 0 0
222 0 2 0 3.7881953443527205 13.928483727779449 2.735538429290623 0 0 0
121 0 1 0 4.207533491508074 12.45843155919087 1.6089618876325773 0 0 0
165 0 2 0 6.145922348845512 13.019618614533375 1.7811284441899853 0 0 0
163 0 1 0 7.080867797683618 13.017689038894142 2.017365212237345 0 0 0
164 0 2 0 7.2190891778501 13.934066279488274 2.3301309268112127 0 0 0
283 0 1 0 7.272059667632698 15.863760453033311 2.0149673414325564 0 0 0
818 0 2 0 10.089036331981992 12.273776255375434 0.45527685355739134 0 0 1
819 0 2 0 8.525538537167368 12.376549111147856 0.6723714756182517 0 0 1
157 0 1 0 11.085770398174892 12.414975673267183 1.7932418799744125 0 0 0
258 0 2 0 9.566430123193246 14.5685957982605 3.642266332364424 0 0 0
159 0 2 0 10.938685947701568 13.29882575352722 2.1853293872958566 0 0 0
256 0 1 0 10.474017596521984 14.694622870989832 3.2868288843113573 0 0 0
257 0 2 0 10.54537901774816 15.624006607416746 2.9737714913392046 0 0 0
255 0 2 0 10.229656331193402 15.828022436132999 0.22595629778522616 0 0 0
285 0 2 0 8.080058055075535 15.709590934094837 1.5492816252991657 0 0 0
286 0 1 0 11.972355630775224 15.661794459304849 0.5505747585542982 0 0 0
855 0 2 0 15.080067024611058 12.273014749111587 0.7459987701961425 0 0 1
199 0 1 0 13.960206216635944 12.618583888430226 1.9957706297366264 0 0 0
200 0 2 0 12.992522315430504 12.601469042468596 1.8568506122857562 0 0 0
201 0 2 0 14.1163346514466 13.500616464724171 2.4264467067761473 0 0 0
319 0 1 0 14.247785874619051 15.411633893190585 2.247210671590845 0 0 0
320 0 2 0 13.530364694059678 15.509269947295149 1.5139821918847536 0 0 0
291 0 2 0 15.73818043284801 15.745489101035709 1.1743482835170647 0 0 0
248 0 2 0 19.73325107186954 15.272414906334216 1.7515903944438218 -1 0 0
128 0 2 0 19.76068841366167 12.26570354265228 1.884554261093832 -1 0 0
195 0 2 0 17.26859691670035 12.55730692205298 0.8582941917335266 0 0 0
193 0 1 0 17.993872370643263 12.616371200849153 1.5026018064858815 0 0 0
194 0 2 0 17.72090794129483 13.389281193799167 1.9929284735145458 0 0 0
294 0 2 0 16.70808460430573 14.506434130498638 3.7938179202061564 0 0 0
292 0 1 0 17.381454936353286 14.836675197392648 3.212324295033707 0 0 0
293 0 2 0 17.56371688905749 15.718045012333574 3.4020653377643324 0 0 0
290 0 2 0 17.11399624341677 15.893390808629087 0.5304481889142032 0 0 0
227 0 2 0 1.0111445976522009 16.447148339042414 3.3336619820296898 0 0 0
235 0 1 0 0.8088821383574191 19.562340297104505 1.7148235340365365 0 0 0
236 0 2 0 0.806842773399372 18.901307914039442 2.3952871748072915 0 0 0
237 0 2 0 1.343070372641028 19.154940117254185 1.0108554709341118 0 0 0
228 0 2 0 2.1825729378979184 17.44761352232785 3.4582600411595092 0 0 0
226 0 1 0 1.226739743452272 17.41156128961343 3.4818814647574654 0 0 0
284 0 2 0 6.6368778023624655 16.05864575651914 1.3220816060260296 0 0 0
251 0 2 0 4.2277656284408 16.15709863623883 0.5333088431285304 0 0 0
233 0 2 0 4.089828041225136 16.471447422217196 3.3375805529183733 0 0 0
232 0 1 0 4.075975754113036 17.413995548962177 3.304714318651239 0 0 0
234 0 2 0 4.171430301549563 17.74035966791218 2.384054139292621 0 0 0
250 0 1 0 5.173148922994178 16.303964490713106 0.403828787517585 0 0 0
229 0 1 0 4.744883996471443 19.527545956704955 1.2359162581648082 0 0 0
271 0 1 0 7.174304887846516 19.40564803605799 2.6423408004043414 0 0 0
231 0 2 0 5.6258493542212324 19.309117414837047 1.5650599910226344 0 0 0
273 0 2 0 7.617683914265947 18.880664622286417 3.34661133177549 0 0 0
266 0 2 0 11.073633011831776 20.066415450966787 1.9490810751181245 0 0 0
263 0 2 0 8.188534778200127 16.759529441364975 3.5924075480355393 0 0 0
262 0 1 0 8.411596244937915 17.547545870775174 4.145648529697682 0 0 0
927 0 2 0 8.070392942592793 18.999625329698404 0.7656719815680204 0 0 1
265 0 1 0 11.01706841335971 19.46308836692012 1.2019904400905226 0 0 0
267 0 2 0 10.197002248990758 19.58734392126403 0.7622113499304484 0 0 0
268 0 1 0 11.063830248298506 17.511128540871518 3.389640262052868 0 0 0
269 0 2 0 10.884373545450647 18.238002874891833 2.763401443373287 0 0 0
264 0 2 0 9.39360324469444 17.51387400508201 4.124646656199272 0 0 0
270 0 2 0 11.56763901046777 17.819692180750117 4.110528911059767 0 0 0
321 0 2 0 14.12838216832968 16.141499587822658 2.9401412433323624 0 0 0
307 0 1 0 13.785710684897259 18.919907479017027 1.7795386231115018 0 0 0
308 0 2 0 12.804150363301748 19.006752399130825 1.728530666274409 0 0 0
309 0 2 0 14.177843558322039 18.726051825678496 2.667027076557517 0 0 0
298 0 1 0 14.72127560819633 17.61504677932878 4.088531128949241 0 0 0
963 0 2 0 15.198911924948789 18.594610386752116 0.77786411202859 0 0 1
300 0 2 0 15.688939777630395 17.644898810376134 4.118067821139038 0 0 0
287 0 2 0 12.167130720385625 16.53653646344727 0.2803958349599206 0 0 0
961 0 1 0 16.03354618795201 18.68099312185702 0.22471104376042406 0 0 1
322 0 1 0 19.050000116351505 16.174009214634196 0.42120680841065045 0 0 0
289 0 1 0 16.186039940656663 16.081016254998595 0.3838182205382534 0 0 0
301 0 1 0 18.05572775283783 19.53791899271178 1.770499492979878 0 0 0
302 0 2 0 17.431887513770917 19.21902342761377 1.0903284239329603 0 0 0
303 0 2 0 18.965454868552715 19.39351571597141 1.3751851675961702 0 0 0
306 0 2 0 17.688688063859658 18.0941680727397 2.7676435502535166 0 0 0
304 0 1 0 17.608582239099096 17.52302366747761 3.532104686208135 0 0 0
305 0 2 0 18.266280959158134 17.91382531349511 4.171695167306263 0 0 0
22 0 1 0 1.99103841653021 0.7694146017856311 4.739568680868048 0 0 0
23 0 2 0 2.1624624348060673 1.313803763439456 5.576998918250408 0 0 0
325 0 1 0 2.242423661316114 2.2952465729166587 7.056909017162491 0 0 0
326 0 2 0 3.167269072262781 2.357356361908802 7.118229885151502 0 0 0
101 0 2 0 0.3229598100733027 0.5881502433513877 5.037049646591131 1 0 0
327 0 2 0 1.9786528124501968 3.223265870756527 6.909963450262655 0 0 0
28 0 1 0 5.89062654261157 0.6166084720685711 5.548886094979812 0 0 0
29 0 2 0 6.8689883832170855 0.6368741681157793 5.592253780779148 0 0 0
358 0 1 0 5.118640616390274 2.3836288902801654 7.417543169313769 0 0 0
359 0 2 0 5.39156821329095 1.6712482684601033 6.752668870693056 0 0 0
360 0 2 0 5.880223495303495 2.4420777950977492 7.998836224810551 0 0 0
8 0 2 0 5.684841844952893 3.797564449644891 6.227113701380293 0 0 0
42 0 2 0 11.6815730247551 0.6676948462721506 4.464257930872969 0 0 0
58 0 1 0 8.577372524190226 0.703522895165178 5.258196656462431 0 0 0
59 0 2 0 8.872840161230545 1.4561565307587305 5.789834064485258 0 0 0
361 0 1 0 9.625127868153498 2.7711616140914983 7.127865520066798 0 0 0
363 0 2 0 9.498020081161954 3.744212733923028 6.883301917275628 0 0 0
362 0 2 0 10.503396652155262 2.686346140271841 7.506645860612046 0 0 0
60 0 2 0 8.906940564788568 -0.06336034103599006 5.756454470612289 0 0 0
394 0 1 0 12.341514447237332 2.8002089474698364 7.6504591770418156 0 0 0
396 0 2 0 12.461336107529593 3.5993135245483647 7.039160043974829 0 0 0
66 0 2 0 12.747509054919039 1.5751677938297337 6.436128858029933 0 0 0
64 0 1 0 12.961128539550797 0.9852912032135528 5.6787855747432925 0 0 0
65 0 2 0 13.997690508318035 0.987307585106252 5.578328024488277 0 0 0
395 0 2 0 13.14064055634289 2.7116158686257203 8.181567000851015 0 0 0
94 0 1 0 15.580312767466959 1.0211875608613319 5.15950829375556 0 0 0
95 0 2 0 15.81670098251837 1.8080230345767518 5.683340808476303 0 0 0
429 0 2 0 15.465764792449212 2.236403501153068 8.275099561810212 0 0 0
399 0 2 0 16.33474193424925 3.666864051468703 6.805571143783331 0 0 0
397 0 1 0 16.510757504406428 2.7842936858498075 7.09744108672738 0 0 0
96 0 2 0 16.23285508310914 0.9871420564342288 4.419256371575615 0 0 0
100 0 1 0 19.64172476806916 0.4506788071252048 5.147535371144795 0 0 0
398 0 2 0 17.4577347049525 2.665538415426635 6.9900595081370955 0 0 0
430 0 1 0 19.35562538635158 2.5485018188496866 7.284639004714728 0 0 0
431 0 2 0 19.40539126424322 2.0392660150877524 6.444148726947649 0 0 0
432 0 2 0 19.587408656251398 3.4413266332260743 6.971481667265384 0 0 0
131 0 2 0 2.3306462837110584 7.447014165957728 4.270974032832901 0 0 0
11 0 2 0 0.9340201467667806 4.256738791913136 4.46968616038495 0 0 0
25 0 1 0 2.5049135313289526 5.202397142104886 6.6642478326214105 0 0 0
26 0 2 0 2.6528610840836886 5.914281936608203 5.991491149971041 0 0 0
27 0 2 0 3.243343014685438 5.240962270180527 7.272481521677312 0 0 0
130 0 1 0 2.0655264185310864 7.384647188786687 5.202731757792007 0 0 0
344 0 2 0 1.2257322391162722 5.337791523617085 7.826247395709394 0 0 0
132 0 2 0 1.0792532360504246 7.44101083033881 5.203281699167771 0 0 0
48 0 2 0 7.471003033591725 4.481047373721171 4.734631563450909 0 0 0
9 0 2 0 5.266077276073476 4.134297199491436 4.815976548216363 0 0 0
7 0 1 0 5.767831726683995 4.487275484209239 5.555934591031362 0 0 0
137 0 2 0 5.501635557556423 6.296359288658891 5.732249869780311 0 0 0
138 0 2 0 6.565199885418048 7.308623282232916 5.265724899513348 0 0 0
136 0 1 0 5.621899826357699 7.224703663782125 5.481805502479228 0 0 0
63 0 2 0 8.578698044844478 5.599590493346814 7.372605405168959 0 0 0
61 0 1 0 9.32826405919018 5.420031050407366 6.78090077044168 0 0 0
167 0 2 0 8.657738710388921 6.447496489374929 5.2566698133560825 0 0 0
166 0 1 0 8.291393104168403 7.336365718307204 5.027994292274095 0 0 0
62 0 2 0 10.10026230330093 5.67976459845972 7.2875156244804975 0 0 0
173 0 2 0 11.96434650859144 7.6901273381737765 4.582067517378961 0 0 0
168 0 2 0 8.472978283722433 7.939201793036942 5.786498837632676 0 0 0
44 0 2 0 13.30223120995502 4.6321630732965495 5.001791237404566 0 0 0
43 0 1 0 12.55187382453996 4.7672218598330005 5.61835765261156 0 0 0
45 0 2 0 12.356506385912002 5.758326163721207 5.664469180193721 0 0 0
174 0 2 0 13.440739042099162 7.608713338172129 5.139352470136107 0 0 0
172 0 1 0 12.540122916817237 7.678352451349423 5.375776116440112 0 0 0
202 0 1 0 15.428789282276997 7.608349913234189 5.077846366847662 0 0 0
99 0 2 0 15.837460416929266 6.225225938225745 5.970291207362454 0 0 0
97 0 1 0 16.01443643699546 5.42710614759258 6.426053894967333 0 0 0
204 0 2 0 16.049971789523006 7.89333260770632 4.322438079942974 0 0 0
416 0 2 0 14.763068692947822 5.741023136122426 7.723569295757039 0 0 0
417 0 2 0 13.253877593734579 5.772728739339479 8.221602534643667 0 0 0
81 0 2 0 18.82998688028274 4.436494448857897 4.9592304545387265 0 0 0
79 0 1 0 19.644701410994493 4.667407953523138 5.473480881196482 0 0 0
209 0 2 0 18.802098994721824 7.541024486805486 4.611714667266745 0 0 0
98 0 2 0 16.89329141898652 5.624058460367925 6.83196904113566 0 0 0
80 0 2 0 19.696671249746828 5.638970842740354 5.516687691282733 0 0 0
208 0 1 0 19.60359371388233 7.4348091946343375 5.184029384823167 0 0 0
210 0 2 0 19.43187863436815 7.907208856250936 5.992322225655488 0 0 0
409 0 1 0 18.228617133332783 6.159664692725949 8.097546334442296 0 0 0
410 0 2 0 19.190059744592578 5.968617824911183 8.296447774315217 0 0 0
435 0 2 0 2.5334715499712344 8.402644999379422 6.503447195604049 0 0 0
433 0 1 0 2.470552204986862 9.046779422983876 7.250486096765978 0 0 0
434 0 2 0 3.422690635821694 9.17988068101389 7.311089977750674 0 0 0
135 0 2 0 2.5216406500335995 10.802590089300407 7.03260683726176 0 0 0
133 0 1 0 2.5233941578049457 11.780998866448257 6.8745972328232785 0 0 0
189 0 2 0 0.0006571898517686858 11.275188308551575 4.9989151893967385 1 0 0
125 0 2 0 4.785229426762567 10.546877730863269 4.329013861795823 0 0 0
468 0 2 0 5.4505066657517265 8.424170666759549 6.820285761297402 0 0 0
466 0 1 0 5.137093651683407 9.235910909929887 7.306160300324034 0 0 0
467 0 2 0 5.2691233212700475 10.054044534161196 6.71397748400172 0 0 0
116 0 2 0 6.694220841058618 10.867219225530144 5.128829833583707 0 0 0
115 0 1 0 5.856139118682141 11.1899012137141 5.527106872939534 0 0 0
469 0 1 0 9.11572350808166 9.174422640967348 7.099325057588903 0 0 0
471 0 2 0 10.040907588143192 9.18417784106538 7.374167215922131 0 0 0
470 0 2 0 8.973068322954527 10.10007629343196 6.993229698965543 0 0 0
502 0 1 0 11.77861847027358 9.764167367158272 7.365164399810254 0 0 0
504 0 2 0 12.007939054994507 10.56262780455634 6.8826498703279455 0 0 0
152 0 2 0 11.905447646126516 11.107488675936258 4.825069692516565 0 0 0
503 0 2 0 12.164879414183096 9.08974776665383 6.771872556736287 0 0 0
507 0 2 0 15.757274885569679 8.938502878211533 7.915180181687396 0 0 0
203 0 2 0 15.588103361950651 8.216560882083405 5.834319413223557 0 0 0
151 0 1 0 12.466567369077342 11.360324662796918 5.551010129691123 0 0 0
153 0 2 0 13.405169294955186 11.303581537048789 5.368256240379295 0 0 0
207 0 2 0 16.042685400849813 11.051876026762663 6.853634417229043 0 0 0
537 0 2 0 13.551710920296918 9.068427560560066 8.21597828143863 0 0 0
505 0 1 0 16.203424392746488 9.374255470615784 7.158930981325603 0 0 0
539 0 2 0 19.670175397609025 8.80667518558609 7.872258515133841 0 0 0
506 0 2 0 17.158254730755335 9.201630692237343 7.183812021140276 0 0 0
538 0 1 0 19.02053028519927 9.13728941692133 7.212108628852866 0 0 0
540 0 2 0 19.35142414175647 9.992663379483373 6.85732424892744 0 0 0
187 0 1 0 19.454959279303 11.34442269541825 5.603050791611167 0 0 0
205 0 1 0 16.082300797152545 11.989680362845 7.06882022126882 0 0 0
134 0 2 0 3.319651757139259 12.193032525155305 7.21394279468717 0 0 0
238 0 1 0 1.6225688593543315 13.920757560217659 5.16006494682948 0 0 0
239 0 2 0 0.6479119604736472 14.04384452192051 4.9392345109323355 0 0 0
240 0 2 0 1.699455361002635 13.04582745398785 5.566611203313524 0 0 0
453 0 2 0 1.175907732071745 12.277972143777854 7.755754868881604 0 0 0
542 0 2 0 2.296671327488177 15.404159805602378 5.9399844438112135 0 0 0
543 0 2 0 3.5414062172511396 15.814058867360796 6.829222668509045 0 0 0
541 0 1 0 2.6027620398128293 16.03315431969297 6.6351346052189495 0 0 0
573 0 2 0 1.635539138734073 15.5275187713196 8.313430933241344 0 0 0
451 0 1 0 0.46385892268148476 12.580442561046043 8.34715127773354 0 0 0
117 0 2 0 5.697401533217727 12.140810209157959 5.4712951392432405 0 0 0
246 0 2 0 4.927713055854652 13.89828738582448 4.502047230107813 0 0 0
244 0 1 0 5.610651234510536 13.944476891647868 5.166157899793377 0 0 0
245 0 2 0 5.311831577925713 14.507368768338601 5.878863576977362 0 0 0
276 0 2 0 7.2449116516184455 14.264361734642186 5.006097121015058 0 0 0
575 0 2 0 6.183087641809134 15.962323889565718 7.719436755730836 0 0 0
574 0 1 0 5.46499426499342 15.989947545404055 7.073923527110366 0 0 0
447 0 2 0 5.600074167799801 12.467353377349857 8.213244297443547 0 0 0
445 0 1 0 4.6145651402043795 12.589400934280883 8.251139092258546 0 0 0
169 0 1 0 8.997852165320712 12.0549988132479 6.8528673653878895 0 0 0
274 0 1 0 8.252813932564274 14.18190624596054 4.9445293723706785 0 0 0
170 0 2 0 8.774211172780413 12.797504111970008 6.2575158780551 0 0 0
171 0 2 0 9.898450138822263 12.324395706943966 7.125835893874491 0 0 0
281 0 2 0 11.826728949334912 14.55095095279054 4.57750807263057 0 0 0
275 0 2 0 8.5193165693408 14.950084210244091 5.530126543416844 0 0 0
578 0 2 0 8.63841250813424 15.694918239639385 7.719195138596013 0 0 0
611 0 2 0 11.094531920643822 15.794807190169035 7.442018661959726 0 0 0
577 0 1 0 9.210684482990896 15.902162694880786 6.917938536134663 0 0 0
612 0 2 0 12.374872250976209 15.500283366426293 6.703511683557247 0 0 0
206 0 2 0 15.336425374008325 12.201932131456566 7.60557280726912 0 0 0
282 0 2 0 12.277841025100633 13.548934908417655 5.615106922805239 0 0 0
280 0 1 0 12.535822364692185 14.411253837919809 5.199275322065949 0 0 0
311 0 2 0 14.413403095837461 14.184915240248 4.756285352610445 0 0 0
310 0 1 0 15.402421060821847 14.176526412082787 4.941889688857308 0 0 0
312 0 2 0 15.47266017431811 13.324102875335612 5.407759055560402 0 0 0
614 0 2 0 15.857000914579942 15.582606954585437 6.47385283142275 0 0 0
318 0 2 0 18.596328261729845 14.115738348010973 4.4233520555151715 0 0 0
518 0 2 0 17.470473584859956 12.635037492614215 7.692805074494066 0 0 0
188 0 2 0 19.15508138321662 12.263467702487194 5.42302945220395 0 0 0
316 0 1 0 19.240157491404844 13.937284227628478 5.22737728349137 0 0 0
519 0 2 0 19.00059132875399 12.613750988230882 8.174127005137818 0 0 0
317 0 2 0 18.903521091809242 14.454219792622846 5.966777956363688 0 0 0
648 0 2 0 19.29638950510692 15.654974896390904 7.9640260716102516 0 0 0
646 0 1 0 18.774689393227447 15.911510178633097 7.159514851319555 0 0 0
24 0 2 0 2.0714873657395025 19.987257158261848 5.114940910199867 0 -1 0
241 0 1 0 2.6293898207766824 18.850846966362184 6.410205538448708 0 0 0
242 0 2 0 2.562594231141287 17.868362840669803 6.4873077185207935 0 0 0
243 0 2 0 3.2697137815368684 19.260216757926145 7.042452252769089 0 0 0
560 0 2 0 1.2022713837250814 18.92745336648305 7.943496684177744 0 0 0
297 0 2 0 0.4294082801277864 17.64244641930322 5.112713096710132 1 0 0
30 0 2 0 5.675125960161797 19.809714104139502 5.559515126291889 0 -1 0
224 0 2 0 5.205478287325315 17.857311693037147 4.515769714382688 0 0 0
223 0 1 0 5.856286886121194 17.950260953344653 5.205870335513054 0 0 0
225 0 2 0 6.720673402943162 17.788428905527304 4.876136551639313 0 0 0
576 0 2 0 5.654198852470503 16.782014054948128 6.460600995166969 0 0 0
597 0 2 0 6.359609225562184 19.437723229332832 8.286365767874457 0 0 0
553 0 1 0 4.582084591892116 19.40855653358757 8.258299123889499 0 0 0
278 0 2 0 8.601553371043401 19.136717631477246 7.507122396222748 0 0 0
277 0 1 0 9.160747075884126 18.784749254117997 6.815853244842626 0 0 0
579 0 2 0 8.993614596621466 16.846605201436724 6.8892198058460155 0 0 0
279 0 2 0 10.036906519028964 18.899231399731462 7.207292605954569 0 0 0
610 0 1 0 12.039701863910805 16.042181749369043 7.4157084301425025 0 0 0
261 0 2 0 12.448363202243607 17.756129230191306 6.626480757460299 0 0 0
260 0 2 0 12.703769823577217 19.09321891776851 6.035338165660382 0 0 0
299 0 2 0 14.381719376922423 17.9418406280206 4.93531480637145 0 0 0
259 0 1 0 12.74171808098382 18.147095930622235 5.77961916745077 0 0 0
315 0 2 0 14.95207285754803 18.85518178169194 7.257901268851341 0 0 0
314 0 2 0 15.620986802158141 19.58416200008744 6.178377125746715 0 0 0
313 0 1 0 15.626236809849496 18.702429933318825 6.600759915245361 0 0 0
615 0 2 0 16.03897738368417 17.0018927142127 7.067903091904172 0 0 0
102 0 2 0 19.622790958502495 19.668378130200487 5.250174834903237 0 -1 0
613 0 1 0 16.073471713425597 16.058119604804254 7.291878406470609 0 0 0
647 0 2 0 17.8315284450314 16.06791909078597 7.466814588938378 0 0 0
295 0 1 0 19.807086786636255 17.750772028864397 5.493870143442254 0 0 0
296 0 2 0 19.63353499063709 17.126934998118628 6.196958299800128 0 0 0
627 0 2 0 17.305644350577335 19.085428691467655 7.499934725563114 0 0 0
626 0 2 0 18.824758062142777 19.35982378116647 7.576265725369905 0 0 0
625 0 1 0 18.012546855696936 19.464963774748227 8.053030849827906 0 0 0
356 0 2 0 1.5123410298399944 1.6323174420941742 8.567665003991042 0 0 0
355 0 1 0 0.7799681680938956 1.4295788673113028 9.175217713543114 0 0 0
335 0 2 0 1.1701453165411728 2.8728521810963357 10.520151499649591 0 0 0
346 0 1 0 2.518841894954867 0.703368299720321 12.17827992672954 0 0 0
347 0 2 0 2.965344660562145 0.7750671543894025 11.343591966813616 0 0 0
348 0 2 0 1.5714436726904524 0.8948602030308267 12.019621768079178 0 0 0
357 0 2 0 0.03041101338210464 1.9531126876155835 8.749911831749785 0 0 0
334 0 1 0 1.3364871844235 3.775036210187541 10.682128627940898 0 0 0
329 0 2 0 4.746928912739286 2.164141333592131 10.144771526051885 0 0 0
328 0 1 0 4.667851003896286 1.189070128969232 10.197406780036493 0 0 0
330 0 2 0 5.116479605533526 0.9032188904748623 11.043970532669931 0 0 0
353 0 2 0 6.985316448124307 0.4227993285508148 12.299805990915573 0 0 0
393 0 2 0 7.769303598031836 1.2804937810154908 9.11044667360592 0 0 0
391 0 1 0 7.684107224490546 2.241280944869805 9.198070957703237 0 0 0
372 0 2 0 7.93927548985112 3.404691739724112 10.770811696845328 0 0 0
340 0 1 0 4.287888004010052 3.9270768279071406 10.1471173636916 0 0 0
554 0 2 0 4.357306413280326 -0.022195960612839752 8.847054188073615 0 1 0
392 0 2 0 8.427502085966436 2.5367775722126575 8.584573277272575 0 0 0
382 0 1 0 8.691741925994677 0.5974799682057845 12.195026193077858 0 0 0
366 0 2 0 9.95213650802487 1.415367963538304 10.836647695345754 0 0 0
364 0 1 0 10.745753790319762 1.5215498916404262 10.275104154748538 0 0 0
378 0 2 0 11.06291842399028 3.2823918875310767 10.245745134794317 0 0 0
365 0 2 0 11.449448108760114 1.2519459938213162 10.925464973871447 0 0 0
591 0 2 0 11.076899424564786 0.016246756343555352 9.471484247172354 0 1 0
427 0 1 0 14.717701704046856 2.099324061727369 8.950637833617357 0 0 0
428 0 2 0 14.901292468717159 2.762234627762419 9.677478336169491 0 0 0
418 0 1 0 15.360835263612849 0.46905262836018036 11.924187997537775 0 0 0
632 0 2 0 13.894540464136757 0.3248826374310209 8.801796764992345 0 1 0
389 0 2 0 13.405269307222493 0.937739658017406 12.120593848039885 0 0 0
388 0 1 0 12.43347292055818 0.6681059467031578 12.205848819655783 0 0 0