LAMMPS (29 Sep 2021 - Update 2)
  using 1 OpenMP thread(s) per MPI task
echo both

include		in.partitions
variable        pid world 0
include		in.temp
variable        temperature equal 270
variable        tempDamp equal 0.100 # this is 0.1 ps
include		in.pressure
variable        pressure equal 3039.75
variable        pressureDamp equal 1.0 #this is 1ps
include		in.seed
variable        seed world 745823

units           metal
atom_style	full
include		in.box
read_data       iceIII.data
Reading data file ...
  orthogonal box = (0.0000000 0.0000000 0.0000000) to (19.991053 19.991053 20.800772)
  1 by 1 by 1 MPI processor grid
  reading atoms ...
  972 atoms
Finding 1-2 1-3 1-4 neighbors ...
  special bond factors lj:    0        0        0       
  special bond factors coul:  0        0        0       
     0 = max # of 1-2 neighbors
     0 = max # of 1-3 neighbors
     0 = max # of 1-4 neighbors
     1 = max # of special neighbors
  special bonds CPU = 0.000 seconds
  read_data CPU = 0.036 seconds
include 	in.setup
variable	out_freq equal 500
variable	out_freq2 equal 500

timestep        0.0005

neigh_modify    delay 7 every 1

include         in.deepmd
# This is deepMD model

# create groups ###
#group ox type 2
#group hy type 1

mass 2 15.999
mass 1 1.008

pair_style      deepmd ../graph.pb
pair_coeff      * *

bond_style      none
angle_style     none
dihedral_style  none
improper_style  none
neigh_modify exclude none


neighbor        2.0 bin
neigh_modify    every 10 delay 0 check no

thermo          ${out_freq}
thermo          500
thermo_style 	custom step temp pe etotal epair emol press lx ly lz xy xz yz vol pxx pyy pzz pxy pxz pyz cella cellb cellc cellalpha cellbeta cellgamma

restart 	${out_freq} restart.lmp.${pid} restart2.lmp.${pid}
restart 	500 restart.lmp.${pid} restart2.lmp.${pid}
restart 	500 restart.lmp.0 restart2.lmp.${pid}
restart 	500 restart.lmp.0 restart2.lmp.0


include         in.dump
dump            myDump all atom ${out_freq2} dump.water.${pid}
dump            myDump all atom 500 dump.water.${pid}
dump            myDump all atom 500 dump.water.0
dump            myDump2 all dcd ${out_freq2} dump.dcd
dump            myDump2 all dcd 500 dump.dcd
dump_modify     myDump append yes
dump_modify     myDump2 append yes


timer           timeout 04:55:00 every 1000
New timer settings: style=normal  mode=nosync  timeout=04:55:00

fix             2 all nph aniso ${pressure} ${pressure} ${pressureDamp}
fix             2 all nph aniso 3039.75 ${pressure} ${pressureDamp}
fix             2 all nph aniso 3039.75 3039.75 ${pressureDamp}
fix             2 all nph aniso 3039.75 3039.75 1
fix             3 all temp/csvr ${temperature} ${temperature} ${tempDamp} ${seed}
fix             3 all temp/csvr 270 ${temperature} ${tempDamp} ${seed}
fix             3 all temp/csvr 270 270 ${tempDamp} ${seed}
fix             3 all temp/csvr 270 270 0.1 ${seed}
fix             3 all temp/csvr 270 270 0.1 745823
velocity 	all create ${temperature} ${seed} dist gaussian
velocity 	all create 270 ${seed} dist gaussian
velocity 	all create 270 745823 dist gaussian

run             400000

CITE-CITE-CITE-CITE-CITE-CITE-CITE-CITE-CITE-CITE-CITE-CITE-CITE

Your simulation uses code contributions which should be cited:

- USER-DEEPMD package:

@article{Wang_ComputPhysCommun_2018_v228_p178,
  author = {Wang, Han and Zhang, Linfeng and Han, Jiequn and E, Weinan},
  doi = {10.1016/j.cpc.2018.03.016},
  url = {https://doi.org/10.1016/j.cpc.2018.03.016},
  year = 2018,
  month = {jul},
  publisher = {Elsevier {BV}},
  volume = 228,
  journal = {Comput. Phys. Commun.},
  title = {{DeePMD-kit: A deep learning package for many-body potential energy representation and molecular dynamics}},
  pages = {178--184}
}

CITE-CITE-CITE-CITE-CITE-CITE-CITE-CITE-CITE-CITE-CITE-CITE-CITE

Neighbor list info ...
  update every 10 steps, delay 0 steps, check no
  max neighbors/atom: 2000, page size: 100000
  master list distance cutoff = 8
  ghost atom cutoff = 8
  binsize = 4, bins = 5 5 6
  1 neighbor lists, perpetual/occasional/extra = 1 0 0
  (1) pair deepmd, perpetual
      attributes: full, newton on
      pair build: full/bin
      stencil: full/bin/3d
      bin: standard
Per MPI rank memory allocation (min/avg/max) = 7.648 | 7.648 | 7.648 Mbytes
Step Temp PotEng TotEng E_pair E_mol Press Lx Ly Lz Xy Xz Yz Volume Pxx Pyy Pzz Pxy Pxz Pyz Cella Cellb Cellc CellAlpha CellBeta CellGamma 
       0          270   -175.65013     -141.762   -175.65013            0    37872.759    19.991053    19.991053    20.800772            0            0            0    8312.8663     41637.12    42137.296    29843.861   -62.932054   -1050.3132   -453.62656    19.991053    19.991053    20.800772           90           90           90 
     500    263.07831   -160.72216   -127.70278   -160.72216            0   -948.22859    20.108033    20.013824    20.598713            0            0            0    8289.7178   -549.29445    105.88503   -2401.2764   -598.01427    -784.1684   -902.43058    20.108033    20.013824    20.598713           90           90           90 
    1000    276.23879   -159.25931   -124.58814   -159.25931            0    1076.5812    20.228771    20.096613    20.364815            0            0            0    8278.9037    1356.7131    1876.4768    -3.446227   -1594.0781    1030.3507    919.30268    20.228771    20.096613    20.364815           90           90           90 
    1500    264.33439   -159.41903   -126.24199   -159.41903            0    10700.816    20.300224    20.190786    20.334649            0            0            0    8334.7144    7753.3097    12265.225    12083.914    1700.5378   -427.34507   -813.04577    20.300224    20.190786    20.334649           90           90           90 
    2000    267.96468   -157.47058    -123.8379   -157.47058            0    -915.6707    20.212355    20.154627    20.353838            0            0            0    8291.5936   -2417.1992    1367.2561    -1697.069     -1190.67   -1231.7826    975.54607    20.212355    20.154627    20.353838           90           90           90 
    2500    270.39344   -156.67833   -122.74082   -156.67833            0    5560.8373    20.065972    20.218557    20.503595            0            0            0    8318.4113    6721.2054    4378.2694    5583.0372    585.63812   -541.01864    1187.1886    20.065972    20.218557    20.503595           90           90           90 
    3000    275.65454   -157.65504   -123.05719   -157.65504            0    962.72662    20.066608    20.237678    20.739543            0            0            0    8422.3607    3031.6443    911.83582   -1055.3003   -1953.2077    701.06909    152.59472    20.066608    20.237678    20.739543           90           90           90 
    3500    270.57648   -157.68113   -123.72065   -157.68113            0    2505.4176    20.158051    19.995901    20.681154            0            0            0    8336.1261    6907.2301    2582.8439   -1973.8212    504.30801    502.26476   -39.673763    20.158051    19.995901    20.681154           90           90           90 
    4000    260.26558   -157.04547   -124.37912   -157.04547            0    3603.9647    20.307617    19.934417     20.58096            0            0            0    8331.5946    1918.7827    5443.1625    3449.9488    1283.6354    1463.2656    17.046359    20.307617    19.934417     20.58096           90           90           90 
    4500    274.55432    -159.0066   -124.54685    -159.0066            0    4874.6128    20.187236    20.110352    20.445407            0            0            0    8300.2715     3410.071    6363.9182    4849.8491   -56.592914    525.37832    756.46264    20.187236    20.110352    20.445407           90           90           90 
    5000    257.38673   -156.23974   -123.93472   -156.23974            0    1903.3973    20.141973    20.339652    20.470936            0            0            0    8386.5475   -938.32155    7564.4202   -915.90677   -40.758951    1072.2304   -1599.1365    20.141973    20.339652    20.470936           90           90           90 
    5500    264.36378   -158.53788   -125.35716   -158.53788            0    2828.5291    20.037776    20.192697    20.409118            0            0            0    8257.8707    6748.2197   -840.60435    2577.9718    -1055.312    148.96785   -3601.0046    20.037776    20.192697    20.409118           90           90           90 
    6000    268.02812   -157.66912   -124.02848   -157.66912            0    1632.9765     20.16182    20.175853    20.680502            0            0            0    8412.4542     3274.522    429.54004    1194.8674   -763.19328   -367.87806    2504.0918     20.16182    20.175853    20.680502           90           90           90 
    6500    269.14365   -158.66069   -124.88004   -158.66069            0    882.73041    20.115899    20.096658    20.659694            0            0            0    8351.9366     5022.944   -2212.7608   -161.99196   -958.68445    4836.7598    1455.0533    20.115899    20.096658    20.659694           90           90           90 
    7000    265.11847   -155.86148   -122.58603   -155.86148            0    250.30062    20.149143     20.10706    20.535423            0            0            0    8319.7219    80.631512   -2565.3931    3235.6634   -805.00585    1212.8667   -2918.2168    20.149143     20.10706    20.535423           90           90           90 
    7500    271.59064    -156.6038   -122.51602    -156.6038            0   -82.785612    20.299398    20.131279    20.473528            0            0            0    8366.5653    3169.0809   -3775.9352    358.49745    638.02053    190.52032   -771.58233    20.299398    20.131279    20.473528           90           90           90 
    8000    272.08654   -158.05399   -123.90397   -158.05399            0    4266.3817    20.250878    20.010516    20.353238            0            0            0    8247.7532    2693.9669    5638.1379    4467.0401    1121.0127    253.11288   -1267.4493    20.250878    20.010516    20.353238           90           90           90 
    8500    263.96479   -158.67118   -125.54054   -158.67118            0    1727.9727    20.106172    20.173454    20.497876            0            0            0    8314.1625      3750.18    3370.4359   -1936.6977   -983.83379   -1143.7629    1167.8054    20.106172    20.173454    20.497876           90           90           90 
    9000    277.46674   -157.26905   -122.44375   -157.26905            0    3270.6558    20.052311    20.342847    20.742871            0            0            0    8461.4549    4797.1036   -227.54247    5242.4062    34.291255    1093.5453   -486.29067    20.052311    20.342847    20.742871           90           90           90 
    9500    273.54484    -156.7287   -122.39565    -156.7287            0    5060.6682    20.048695    20.104203    20.779008            0            0            0      8375.25    7431.2466    4942.7455    2808.0125    -94.18232   -2962.2868   -2241.1241    20.048695    20.104203    20.779008           90           90           90 
   10000    278.18011   -156.34886   -121.43403   -156.34886            0    3836.4767    20.159752    19.992348    20.646774            0            0            0    8321.4922    4613.7331    4833.8371    2061.8598   -598.23977   -283.77747   -1508.9097    20.159752    19.992348    20.646774           90           90           90 
   10500    272.84088   -154.66807   -120.42338   -154.66807            0    1703.5293    20.345237    20.170714    20.444624            0            0            0    8390.0232     992.1928   -61.449433    4179.8444     2266.126   -2494.5199    2452.3298    20.345237    20.170714    20.444624           90           90           90 
   11000    273.24935   -156.85896     -122.563   -156.85896            0    4311.6385    20.278881    20.279203    20.266828            0            0            0    8334.5213    3496.3803    4291.7301    5146.8051   -1092.2034    603.89549     824.8317    20.278881    20.279203    20.266828           90           90           90 
   11500    272.99772   -158.24643   -123.98205   -158.24643            0    2237.4182    20.191745    20.241531    20.342075            0            0            0    8314.0468    3525.7217   -1831.8959    5018.4288    366.74409    45.862003   -2939.8396    20.191745    20.241531    20.342075           90           90           90 
   12000     284.8004   -158.66093   -122.91518   -158.66093            0    2891.6095    20.164386    20.103829    20.629904            0            0            0    8362.9784    6261.2531    2373.4506     40.12484    1142.3165    421.56271   -711.42083    20.164386    20.103829    20.629904           90           90           90 
   12500     274.0542   -156.55474   -122.15776   -156.55474            0   -1050.2416    20.126838    20.146658    20.892768            0            0            0    8471.7777   -3867.6688   -2188.8145    2905.7585   -1145.3299    112.12708    958.27362    20.126838    20.146658    20.892768           90           90           90 
   13000    273.38131   -155.59859   -121.28607   -155.59859            0     6137.042    19.983832    20.103732    20.796252            0            0            0    8354.8863    8380.8932    9929.9675    100.26527    739.15096    710.40293    1400.4933    19.983832    20.103732    20.796252           90           90           90 
   13500    282.56571   -159.50483   -124.03955   -159.50483            0    2520.0385    20.109285    20.264074    20.520702            0            0            0    8362.1048    7986.8784   -403.19817    -23.56462    153.76026   -1338.4282   -817.48003    20.109285    20.264074    20.520702           90           90           90 
   14000    259.23783   -157.44375    -124.9064   -157.44375            0    3762.6119    20.315646    20.261759    20.267756            0            0            0    8342.8309     5324.704     2685.428    3277.7038   -130.46841   -4259.0559    452.66015    20.315646    20.261759    20.267756           90           90           90 
   14500    260.64041   -158.61725   -125.90386   -158.61725            0    1705.1588    20.416087    20.083942    20.321595            0            0            0    8332.5752    324.28083    3674.2849    1116.9107   -1108.9211     1613.553    -1473.617    20.416087    20.083942    20.321595           90           90           90 
   15000    276.32045   -157.87494   -123.19352   -157.87494            0    1261.7038    20.307806    19.961536    20.590736            0            0            0      8346.97    356.16446    2844.4965    584.45059   -1100.0076    353.57305   -323.22052    20.307806    19.961536    20.590736           90           90           90 
   15500    273.45447   -158.06606   -123.74435   -158.06606            0    387.43713    20.127916    20.121678    20.762394            0            0            0    8408.9237    216.37998     1604.548   -658.61659   -635.63835    1343.6561   -457.92029    20.127916    20.121678    20.762394           90           90           90 
   16000    280.12863   -158.32461   -123.16521   -158.32461            0    5672.8262    20.029851    20.234173    20.658183            0            0            0    8372.5025    7874.3306    3313.6331    5830.5151    738.96315    2414.8413   -351.73364    20.029851    20.234173    20.658183           90           90           90 
   16500    275.36288   -157.38397   -122.82274   -157.38397            0     4741.891    20.097531    20.229434    20.430288            0            0            0    8306.1724     2650.736      5466.18     6108.757   -2081.4398    1829.1601   -498.68465    20.097531    20.229434    20.430288           90           90           90 
   17000     275.3681   -157.75076   -123.18887   -157.75076            0    2311.7908    20.323695    20.201252    20.393386            0            0            0    8372.7922   -586.38899    2743.0005     4778.761    30.401479   -1239.7203   -1396.9344    20.323695    20.201252    20.393386           90           90           90 
   17500     271.2829    -157.4807   -123.43154    -157.4807            0     5057.629    20.308755     20.10986     20.48913            0            0            0    8367.8886    4323.4603     6976.509    3872.9178   -216.04606   -1720.3045    3831.2462    20.308755     20.10986     20.48913           90           90           90 
   18000    264.00795   -158.28471   -125.14865   -158.28471            0    512.86081    20.136993    20.075176    20.625201            0            0            0    8337.8134   -237.16816    884.85957    890.89102     303.3864    1631.2754   -487.49117    20.136993    20.075176    20.625201           90           90           90 
   18500    262.48632   -157.55965   -124.61457   -157.55965            0    3386.1401    20.067829    20.169185    20.622369            0            0            0    8346.9403    1523.5544    6663.2366    1971.6294     764.9236   -3273.9783    614.76839    20.067829    20.169185    20.622369           90           90           90 
   19000    269.07312   -157.54071   -123.76891   -157.54071            0    2315.8837    20.166745    20.193027    20.409282            0            0            0    8311.2235    1352.6468    5747.8876   -152.88347    1357.6936   -555.19125   -142.56718    20.166745    20.193027    20.409282           90           90           90 
   19500    265.85268   -157.17077   -123.80318   -157.17077            0     3647.457    20.399963    20.150531    20.284372            0            0            0    8338.2982   -1236.3432    6531.0363    5647.6778   -742.01609   -73.459584    981.18462    20.399963    20.150531    20.284372           90           90           90 
   20000    267.49841   -158.78453   -125.21037   -158.78453            0   -1088.5727    20.415808    20.172858    20.380042            0            0            0    8393.4224   -1375.3446   -84.187759   -1806.1858     427.9738   -4255.4009   -1475.1358    20.415808    20.172858    20.380042           90           90           90 
   20500    259.92673   -157.32693   -124.70311   -157.32693            0    4159.0789    20.011839    20.193881    20.560787            0            0            0    8308.9574    3401.2751    4666.0601    4409.9017    -1004.143    255.74218    85.377751    20.011839    20.193881    20.560787           90           90           90 
   21000     261.0795   -157.61281    -124.8443   -157.61281            0    509.88864    19.882416    20.238019    20.799469            0            0            0    8369.3053    4410.3187    363.51387   -3244.1666    625.84779    1705.5692   -240.04929    19.882416    20.238019    20.799469           90           90           90 
   21500     253.9489   -157.88125   -126.00772   -157.88125            0    4562.0128     20.13342    20.019063    20.630342            0            0            0    8315.1051    4773.0122    2309.1231    6603.9032   -22.085268    750.92564     1144.266     20.13342    20.019063    20.630342           90           90           90 
   22000    276.38169   -158.83433   -124.14522   -158.83433            0    2361.5955    20.429173    19.998387     20.47502            0            0            0    8365.0797    3012.8564    3228.8854    843.04472     1167.008   -128.69467    1925.2527    20.429173    19.998387     20.47502           90           90           90 
   22500      269.315   -157.79374   -123.99159   -157.79374            0    4549.4004    20.291026    20.113171    20.376177            0            0            0    8315.8617    6032.1419    1930.2412     5685.818   -222.51077   -11.316312    1336.0748    20.291026    20.113171    20.376177           90           90           90 
   23000    264.22638   -158.72449   -125.56102   -158.72449            0     1666.619    20.167915    20.250931    20.450005            0            0            0    8352.1719    2354.8083    1535.9215    1109.1271    443.41965     1213.061   -904.99301    20.167915    20.250931    20.450005           90           90           90 
   23500    268.48495   -157.34619   -123.64821   -157.34619            0    5836.4721    20.064253    20.208588    20.471137            0            0            0    8300.4364    6252.6028    6312.2127    4944.6007   -15.647092   -701.26844    1506.5147    20.064253    20.208588    20.471137           90           90           90 
   24000    284.66797   -157.82073   -122.09159   -157.82073            0    1498.7291    20.163106    20.103611    20.575217            0            0            0    8340.1898    808.81237    4490.8733   -803.49829    131.00521    466.00933   -1574.5743    20.163106    20.103611    20.575217           90           90           90 
   24500    272.38669   -157.31404   -123.12635   -157.31404            0    1369.8805    20.328368    20.184258    20.669778            0            0            0     8481.079   -486.11684    2421.2948    2174.4634    1470.0141    1224.9531    1855.6422    20.328368    20.184258    20.669778           90           90           90 
   25000    279.20326   -157.50297   -122.45972   -157.50297            0    3542.2133    20.175049    20.112983    20.510809            0            0            0    8322.8846    2075.1234    4656.6989    3894.8176    677.06614   -2204.7684    394.82859    20.175049    20.112983    20.510809           90           90           90 
   25500    266.25888   -155.13696   -121.71839   -155.13696            0    3962.0972     20.11978    20.158806    20.535489            0            0            0    8329.0039    4166.7076    2223.5665    5496.0174   -1277.7017   -494.26612   -465.80856     20.11978    20.158806    20.535489           90           90           90 
   26000    272.83183   -156.28472   -122.04116   -156.28472            0    691.85589    20.168387    20.223786    20.677347            0            0            0    8433.8998   -93.453973   -970.31363    3139.3353    895.55422    2298.8089    2806.9554    20.168387    20.223786    20.677347           90           90           90 
   26500     264.9739   -157.72077   -124.46348   -157.72077            0    2440.4168    20.152884    20.079035    20.563167            0            0            0     8320.895    1478.9391    1328.3285    4513.9827    1995.2347   -944.37415    1196.5454    20.152884    20.079035    20.563167           90           90           90 
   27000    272.12834   -155.74128   -121.58602   -155.74128            0     3083.033    20.217268    20.118026    20.563556            0            0            0    8363.8465    2406.9223    6372.9303    469.24642    -1000.908   -1773.5798    1681.9387    20.217268    20.118026    20.563556           90           90           90 
   27500    268.64916    -156.7055   -122.98691    -156.7055            0    2043.8183    20.268948    20.165153      20.4788            0            0            0    8370.2267    512.56022    2341.6211    3277.2737    1204.7228    1887.8552   -295.49403    20.268948    20.165153      20.4788           90           90           90 
   28000    265.88034   -157.67003   -124.29896   -157.67003            0    1529.9739    20.260269    20.134751    20.400076            0            0            0    8321.9143   -1333.1586    4478.8489    1444.2314     957.0673   -1212.6844    401.12938    20.260269    20.134751    20.400076           90           90           90 
   28500     277.1897   -157.63666   -122.84614   -157.63666            0    115.51434    20.262291    20.241076    20.498215            0            0            0    8406.9446   -1539.2408     400.8459    1484.9379   -841.98317   -330.22158   -2390.3191    20.262291    20.241076    20.498215           90           90           90 
   29000    271.13359   -157.05042   -123.02001   -157.05042            0    3685.3112    20.159637    20.114184    20.528105            0            0            0    8324.0365    5539.4803    4473.8246    1042.6286   -1322.3547   -881.03644   -313.38106    20.159637    20.114184    20.528105           90           90           90 
   29500    272.31175   -156.33462   -122.15634   -156.33462            0    4639.6091    20.092063    20.149547    20.708283            0            0            0    8383.6646    4235.6097    5495.3226    4187.8949    1037.6455    -690.6783   -709.95272    20.092063    20.149547    20.708283           90           90           90 
   30000    277.23441   -154.84345   -120.04731   -154.84345            0    2720.3587     20.12632    20.227682    20.726768            0            0            0    8438.0495    2750.9176   -908.51997    6318.6785   -1041.4407    1362.5222    2690.7981     20.12632    20.227682    20.726768           90           90           90 
   30500    270.93967   -155.63105   -121.62498   -155.63105            0     1776.803    20.154889    20.248147     20.52546            0            0            0    8376.4228    1704.5844    153.96842    3471.8563    1893.6268    3842.7418    2287.6368    20.154889    20.248147     20.52546           90           90           90 
   31000    280.64066   -156.46196    -121.2383   -156.46196            0     5597.445    20.256791    20.315612    20.325799            0            0            0     8364.658      5196.34    7069.3479    4526.6471   -1090.7248    2591.9628    1862.3542    20.256791    20.315612    20.325799           90           90           90 
   31500    276.92081   -157.15876   -122.40199   -157.15876            0   -690.79956    20.348308    20.218609    20.318787            0            0            0    8359.4431   -4155.0382    2257.1607   -174.52109    1047.2177    4452.0138   -1663.7692    20.348308    20.218609    20.318787           90           90           90 
   32000    263.19132   -156.58198   -123.54842   -156.58198            0    2791.2161    20.235679    20.051277    20.583329            0            0            0    8351.7108    2617.9593    1243.9828    4511.7062    1076.0193    1404.7807   -1120.3829    20.235679    20.051277    20.583329           90           90           90 
   32500    276.99384   -157.52608   -122.76014   -157.52608            0    1521.3334    20.046658    20.057249     20.87818            0            0            0    8394.7156    2152.8209    2530.8805   -119.70113   -1462.1673    2843.4036   -865.87527    20.046658    20.057249     20.87818           90           90           90 
   33000    279.97352   -157.43221   -122.29228   -157.43221            0    3476.7121    20.009643    20.111479    20.863497            0            0            0    8395.9615     5560.641    1189.8455    3679.6497   -691.87277    1470.1101    474.47734    20.009643    20.111479    20.863497           90           90           90 
   33500      267.916   -157.41646   -123.78989   -157.41646            0    3944.6926    20.160179    20.197612    20.572795            0            0            0    8376.9847    4765.9834    2253.7668    4814.3277    484.81045   -1335.6736    741.48043    20.160179    20.197612    20.572795           90           90           90 
   34000    265.99458   -159.03254   -125.64714   -159.03254            0    2793.6983    20.268018    20.240727    20.345265            0            0            0    8346.4295    3650.4431    1833.2099    2897.4419   -796.84883   -1335.6439   -2160.4704    20.268018    20.240727    20.345265           90           90           90 
   34500    255.02772   -158.72422   -126.71529   -158.72422            0    3496.0428    20.220717    20.164316    20.317282            0            0            0    8284.1059     2564.271    2657.4053     5266.452   -343.20074    819.37556     285.9866    20.220717    20.164316    20.317282           90           90           90 
   35000    259.46344   -159.93776   -127.37209   -159.93776            0    3635.2777    20.187148    20.149825    20.679332            0            0            0    8411.6805    2509.0135    5505.1897    2891.6298    1578.3898   -772.79653     317.5145    20.187148    20.149825    20.679332           90           90           90 
   35500    257.43346   -157.37172   -125.06084   -157.37172            0    1996.4767    20.045061    20.021019     20.87833            0            0            0    8378.9451    3945.1303    942.39053    1101.9093    1345.6638    3137.1978    1892.5775    20.045061    20.021019     20.87833           90           90           90 
   36000    271.07886   -158.13427   -124.11073   -158.13427            0    6030.8722    20.077762    19.922576    20.793434            0            0            0    8317.3891    4923.5296    7712.2526    5456.8345    1377.5943   -1851.9188    627.70695    20.077762    19.922576    20.793434           90           90           90 
   36500     277.2866   -158.51116   -123.70848   -158.51116            0    4293.3463     20.28964    20.048318    20.505553            0            0            0    8341.1085    532.75892    7321.3649     5025.915   -527.77964   -1772.8293   -2084.8717     20.28964    20.048318    20.505553           90           90           90 
   37000    269.23851   -157.62814   -123.83558   -157.62814            0     1550.601    20.330637    20.301798    20.333488            0            0            0    8392.6164    2095.4457    787.30957    1769.0477    428.93947    82.951373   -206.88633    20.330637    20.301798    20.333488           90           90           90 
   37500    275.30541   -158.82591   -124.27189   -158.82591            0    6908.1062    20.081587    20.268474    20.328687            0            0            0    8274.2458    6789.4203    6280.1607    7654.7376    822.56141    170.78265    198.71456    20.081587    20.268474    20.328687           90           90           90 
   38000    271.33743   -156.51101   -122.45502   -156.51101            0    7375.5121    20.079034     20.23726    20.596313            0            0            0    8369.2017    7219.8511    8695.9083    6210.7767    66.826223    904.41988    2309.5527    20.079034     20.23726    20.596313           90           90           90 
   38500    267.71012    -156.7736   -123.17287    -156.7736            0   -577.99126    20.151783    20.144964    20.765522            0            0            0    8429.9077    1649.8193   -3213.7715   -170.02165   -70.346094    2022.9392    55.696271    20.151783    20.144964    20.765522           90           90           90 
   39000    258.96452   -156.82314   -124.32009   -156.82314            0     5306.511    20.169859    20.015952    20.740455            0            0            0    8373.3139    1113.3635    11523.549    3282.6206    387.91777    718.51744    1893.8085    20.169859    20.015952    20.740455           90           90           90 
   39500    274.55187   -157.61246   -123.15301   -157.61246            0    5537.5454    20.192936    20.022327    20.565509            0            0            0    8314.8318     3531.333    7090.8683    5990.4351   -924.16543    261.86567   -644.20579    20.192936    20.022327    20.565509           90           90           90 
   40000    278.07242   -158.72111   -123.81979   -158.72111            0    2009.3753    20.244905    20.165208    20.442432            0            0            0    8345.4743    1985.0116    2007.0657    2036.0487    78.821975   -35.887253    487.05159    20.244905    20.165208    20.442432           90           90           90 
   40500     258.0313   -156.80436   -124.41844   -156.80436            0    977.92218    20.302189    20.297076    20.460383            0            0            0    8431.2138   -527.97291    1914.4264     1547.313    339.28911   -607.58161    895.61957    20.302189    20.297076    20.460383           90           90           90 
   41000    263.09509   -157.74126   -124.71977   -157.74126            0      5068.77    20.060453    20.086971    20.346491            0            0            0    8198.6949    6150.5545    2585.2269    6470.5285    392.93334    2178.3484   -27.688996    20.060453    20.086971    20.346491           90           90           90 
   41500    272.24875   -157.33459   -123.16422   -157.33459            0    1501.3983    20.197929    20.207957    20.617182            0            0            0     8415.086    741.82719    3946.7364   -184.36864   -198.90523   -1194.1455    -665.5646    20.197929    20.207957    20.617182           90           90           90 
   42000    276.12724   -158.09063   -123.43345   -158.09063            0    3460.9929    20.172929    20.229005    20.624342            0            0            0     8416.346    4153.7172    2329.7884    3899.4732    -1813.982  -0.46522794   -76.898554    20.172929    20.229005    20.624342           90           90           90 
   42500    282.71325   -157.83951   -122.35572   -157.83951            0    4372.9908    20.113681    20.176238     20.46923            0            0            0    8306.7902    3191.0643    5552.2663    4375.6417   -2294.1321   -873.52444     268.2269    20.113681    20.176238     20.46923           90           90           90 
   43000    269.60896   -155.73509   -121.89604   -155.73509            0    1725.4544    20.297908    20.218033     20.56668            0            0            0    8440.2321     4257.201     1371.886   -452.72388   -195.36978    493.42507   -628.74343    20.297908    20.218033     20.56668           90           90           90 
   43500    275.81567   -157.86786   -123.24979   -157.86786            0     421.9844    20.190744     20.14009    20.535767            0            0            0    8350.7341    1173.3105    882.50742   -789.86469    496.05958   -1731.9038   -883.89273    20.190744     20.14009    20.535767           90           90           90 
   44000      264.929   -157.08622   -123.83456   -157.08622            0    3472.4695    20.089787    20.184902    20.520192            0            0            0    8321.1512    5399.1549    2312.9312    2705.3223   -482.38922    4246.6735   -242.46178    20.089787    20.184902    20.520192           90           90           90 
   44500     265.6292   -157.11883   -123.77928   -157.11883            0    2398.4331    20.257936    20.221013    20.609733            0            0            0    8442.4885   -2797.1124    5315.8838    4676.5279    1444.9904    850.92304    1365.4024    20.257936    20.221013    20.609733           90           90           90 
   45000    264.88356   -158.89755   -125.65159   -158.89755            0    6191.0967    20.151539    20.033247     20.40827            0            0            0    8238.8342    4520.9772    6512.0452    7540.2676     1035.745   -738.63584   -3443.0686    20.151539    20.033247     20.40827           90           90           90 
   45500    267.28695    -158.7439   -125.19629    -158.7439            0    3350.3887    20.198272     20.23167    20.367342            0            0            0    8323.0077    2753.9864    2238.6988     5058.481   -676.94355   -3152.3089     1224.792    20.198272     20.23167    20.367342           90           90           90 
   46000    265.59808   -157.59251   -124.25687   -157.59251            0    3685.5287    20.289114    20.459606    20.527079            0            0            0    8520.9397    3560.3556    3528.4786    3967.7518    2226.8376    421.07425   -146.07384    20.289114    20.459606    20.527079           90           90           90 
   46500    274.95276   -157.87037   -123.36061   -157.87037            0    2636.4929    20.135418    20.036028    20.527198            0            0            0     8281.365   -251.48787    4972.0295     3188.937   -1251.8223   -3276.4691    3108.5541    20.135418    20.036028    20.527198           90           90           90 
   47000    268.19129   -157.24682    -123.5857   -157.24682            0    2328.3795    20.208969    19.946665    20.631634            0            0            0    8316.6429    591.32849    5345.6137    1048.1963    1207.0407   -456.23818   -769.43633    20.208969    19.946665    20.631634           90           90           90 
   47500    271.72744   -156.43952   -122.33457   -156.43952            0    3161.9518    20.270868    20.182643    20.653459            0            0            0    8449.7366     5603.239    3212.3689    670.24754    496.25617    1458.8157   -337.57729    20.270868    20.182643    20.653459           90           90           90 
   48000    280.26469   -157.48606   -122.30959   -157.48606            0   -245.21043    20.187343    20.313128    20.611924            0            0            0    8452.2919    793.58726   -738.45148   -790.76708   -1207.7619    249.38525    1232.1785    20.187343    20.313128    20.611924           90           90           90 
   48500    263.31785   -155.73023   -122.68078   -155.73023            0    3929.6181    20.022963    20.224986    20.383837            0            0            0    8254.7231    3368.4005    4967.7774    3452.6765    316.18486     3829.464    169.53143    20.022963    20.224986    20.383837           90           90           90 
   49000    276.33657   -156.07355    -121.3901   -156.07355            0    3967.5705    20.225037    20.160107    20.416538            0            0            0     8324.617     6164.754     1831.539    3906.4185   -19.566556    2609.5392   -2421.7997    20.225037    20.160107    20.416538           90           90           90 
   49500    273.65606   -152.68134   -118.33433   -152.68134            0    3742.9179    20.383402    20.175421     20.67238            0            0            0    8501.3862    1388.0918    6596.5343    3244.1278   -769.61372    2508.1393   -1676.3571    20.383402    20.175421     20.67238           90           90           90 
   50000     281.5738   -156.14153   -120.80075   -156.14153            0    1378.5814    20.181789    20.092956      20.7748            0            0            0    8424.4267   -1323.3702    2674.0325    2785.0819    935.93797    89.984112      1320.54    20.181789    20.092956      20.7748           90           90           90 
   50500    278.11478    -158.2335   -123.32687    -158.2335            0    2406.0219    19.934214    20.053297    20.665379            0            0            0    8260.9171   -2233.3421     7630.628    1820.7798   -273.50978    1844.7749    138.01222    19.934214    20.053297    20.665379           90           90           90 
   51000    267.82509   -156.06657   -122.45141   -156.06657            0    2667.8853    20.120462    20.259644    20.588098            0            0            0    8392.3963    3351.1541    3775.5011    877.00074   -494.96535   -651.72859    1054.0552    20.120462    20.259644    20.588098           90           90           90 
   51500    270.36516   -157.25237   -123.31841   -157.25237            0    571.85916    20.239843    20.295105    20.459429            0            0            0    8404.1145   -1749.1667    984.91047    2479.8338    384.67435    678.95596   -2844.1241    20.239843    20.295105    20.459429           90           90           90 
   52000    272.60529   -159.52216   -125.30704   -159.52216            0    3763.9602    20.159918    20.169572    20.426688            0            0            0    8305.8369    6869.6525    1430.0644    2992.1637   -237.48798   -636.51013    1985.9014    20.159918    20.169572    20.426688           90           90           90 
   52500    273.72112   -156.81507   -122.45989   -156.81507            0    3496.3265    20.173516    20.068226    20.465197            0            0            0    8285.2672    3061.8998    6615.5894    811.49044   -188.21993    125.23634    640.70281    20.173516    20.068226    20.465197           90           90           90 
   53000     267.8491   -158.03815   -124.41998   -158.03815            0    4048.8362    20.342389    20.134046     20.63445            0            0            0    8451.3464    4841.0537    3117.8226    4187.6322    465.19541    3777.0178   -1817.4818    20.342389    20.134046     20.63445           90           90           90 
   53500    272.62049    -158.0257   -123.80866    -158.0257            0    3995.6832    20.214908    20.039066     20.55533            0            0            0     8326.715     4603.445    5394.7631    1988.8415    1284.0202   -2064.0338    4546.2223    20.214908    20.039066     20.55533           90           90           90 
   54000    274.67113    -156.8834   -122.40898    -156.8834            0    4742.1281    20.175976    20.149967    20.548102            0            0            0     8353.733    4645.9544    4960.0304    4620.3995    696.65933    1249.8927    145.44628    20.175976    20.149967    20.548102           90           90           90 
   54500    262.53056    -158.7172   -125.76657    -158.7172            0    3374.0252    20.181933    20.319327    20.535065            0            0            0    8421.0867    2270.1646    3332.7981    4519.1129   -337.68006    1893.9081   -695.76839    20.181933    20.319327    20.535065           90           90           90 
   55000    267.33728    -157.5433   -123.98937    -157.5433            0    3287.6188    20.139725    20.245845    20.444981            0            0            0    8336.3542    4356.7394    1112.9768    4393.1402    790.61529    984.50503    417.41379    20.139725    20.245845    20.444981           90           90           90 
   55500    250.76322   -156.97208   -125.49838   -156.97208            0    2487.6856    20.277045    20.169723    20.436388            0            0            0    8358.1223     2850.458    3694.7528    917.84598   -2859.9308    215.66274     103.6055    20.277045    20.169723    20.436388           90           90           90 
   56000    266.11627   -155.58469   -122.18401   -155.58469            0    8617.0662    20.289148    20.075947    20.466344            0            0            0    8336.4305    5226.0281    13120.129    7505.0419    9.0131908    655.10786    516.04336    20.289148    20.075947    20.466344           90           90           90 
   56500    277.58009   -157.90073   -123.06121   -157.90073            0    1739.5265    20.221195    20.109479      20.6131            0            0            0    8382.0635    1554.4634    3382.9447    281.17157   -1287.7816   -902.99059   -1652.9144    20.221195    20.109479      20.6131           90           90           90 
   57000    275.23984   -157.57848   -123.03268   -157.57848            0    4275.6555    19.983763    20.105139    20.651562            0            0            0    8297.3089    3225.0991    5055.2073      4546.66    466.41124    623.34597   -461.68022    19.983763    20.105139    20.651562           90           90           90 
   57500    275.75732   -158.75605   -124.14531   -158.75605            0    1237.5156    20.071884    20.263939    20.679078            0            0            0    8410.9139    3041.8205   -1490.8863    2161.6124    864.58234    3665.0237   -1448.3998    20.071884    20.263939    20.679078           90           90           90 
   58000    273.60185   -157.97921   -123.63901   -157.97921            0    328.39374    20.361853    20.224851    20.529534            0            0            0    8454.3791    1416.5294   -3352.3693    2921.0211   -50.944516    -1856.932    729.55011    20.361853    20.224851    20.529534           90           90           90 
   58500    270.92115   -157.40665    -123.4029   -157.40665            0    5526.2905    20.341679    19.982832    20.295152            0            0            0    8249.6618    4493.6582     4736.809    7348.4044   -175.31404    1431.6049   -860.36262    20.341679    19.982832    20.295152           90           90           90 
   59000    275.74408   -157.15003   -122.54095   -157.15003            0    451.80481    20.321233    20.219093    20.452028            0            0            0    8403.2656    1117.0647   -798.67765    1037.0274   -781.19707     2053.819   -2161.1681    20.321233    20.219093    20.452028           90           90           90 
   59500    283.12543   -157.84445   -122.30892   -157.84445            0    4033.5521    20.082064    20.322925    20.558504            0            0            0    8390.4659    2730.2606    6913.0891    2457.3065    276.05125   -683.76596   -757.31577    20.082064    20.322925    20.558504           90           90           90 
   60000    259.20588   -156.97106   -124.43771   -156.97106            0    4682.5412    19.991067    20.162755    20.686682            0            0            0    8338.2843    3750.6688    6380.8895    3916.0652    411.58903    2363.9214   -2443.0679    19.991067    20.162755    20.686682           90           90           90 
   60500    271.48854   -158.44912   -124.37415   -158.44912            0    1834.4983    20.222437    19.939785    20.614776            0            0            0    8312.5174    2260.9419    3019.5827    222.97014   -1185.5217   -1593.1477     3423.281    20.222437    19.939785    20.614776           90           90           90 
   61000    273.08379   -157.55663   -123.28144   -157.55663            0    6467.3078    20.420501    20.033989    20.494666            0            0            0    8384.4519    2834.0028    11207.802    5360.1189   -16.920638    2786.7619   -800.44669    20.420501    20.033989    20.494666           90           90           90 
   61500    275.75702   -157.75063   -123.13993   -157.75063            0    530.74425     20.30372    20.173165    20.381298            0            0            0    8347.9819   -5181.6128    5039.7973    1734.0483    412.00889    2381.0699    430.81805     20.30372    20.173165    20.381298           90           90           90 
   62000    274.68796   -157.10609   -122.62957   -157.10609            0    5208.0169    20.109405     20.31867    20.405852            0            0            0     8337.757    4945.4817    6729.4459    3949.1232    1094.4683    1080.5664   -1239.8589    20.109405     20.31867    20.405852           90           90           90 
   62500    273.47088   -158.22242   -123.89865   -158.22242            0    5977.2815    20.073214      20.2862    20.536707            0            0            0    8362.7367    5350.8545    6079.3243    6501.6658    275.77154    1721.6513   -2843.4871    20.073214      20.2862    20.536707           90           90           90 
   63000     275.0644   -155.65264   -121.12887   -155.65264            0   -604.42118    20.239441    20.092124    20.674891            0            0            0    8407.5139    1768.3225     -4367.28    785.69393   -1664.7464   -550.86057    332.27589    20.239441    20.092124    20.674891           90           90           90 
   63500    270.77407   -157.75301   -123.76772   -157.75301            0    401.43624    20.281105     19.94135    20.661715            0            0            0    8356.2713   -1388.1677     343.7127    2248.7637   -420.73496    621.31991    1916.9572    20.281105     19.94135    20.661715           90           90           90 
   64000    273.47884   -156.59396   -122.26919   -156.59396            0    4346.2534    20.179164    20.082036    20.534235            0            0            0    8321.2669    4981.5048    5742.2683    2314.9871   -3656.0104   -2683.1647      1554.07    20.179164    20.082036    20.534235           90           90           90 
   64500    263.06557   -156.13319   -123.11541   -156.13319            0    3342.1324    20.172292     20.29042    20.406059            0            0            0    8352.2874    3251.7054     1175.337    5599.3548    398.96905   -859.87132    454.57456    20.172292     20.29042    20.406059           90           90           90 
   65000    263.36271   -158.75186   -125.69679   -158.75186            0    2191.3108     20.12106    20.284031    20.332461            0            0            0    8298.4138    2940.9431    838.97823    2794.0111   -253.47906    2351.7394    1974.3319     20.12106    20.284031    20.332461           90           90           90 
   65500    256.85317   -156.96277   -124.72472   -156.96277            0    4158.4377     20.28516    20.158873    20.502047            0            0            0    8383.8194    7540.1184    2679.1849    2256.0096    418.67633    1294.9133    549.23761     20.28516    20.158873    20.502047           90           90           90 
   66000    276.19225   -155.50742   -120.84209   -155.50742            0    1493.6801    20.286004    19.966084    20.641067            0            0            0    8360.2938    4051.1961   -2456.9098    2886.7538   -1267.5117   -3635.9081    2735.2815    20.286004    19.966084    20.641067           90           90           90 
   66500    273.54136   -156.43468   -122.10206   -156.43468            0    4653.5709    20.130669     19.96619    20.784226            0            0            0    8353.8613    6663.9007    5504.3841    1792.4279   -42.410397    716.89786    1223.8577    20.130669     19.96619    20.784226           90           90           90 
   67000    265.27683    -157.6136   -124.31828    -157.6136            0    4717.1515    20.068008    20.240179    20.745812            0            0            0    8426.5353    5189.2177    3349.9314    5612.3054   -641.74053   -279.08939    766.60356    20.068008    20.240179    20.745812           90           90           90 
   67500    263.67758   -157.46979    -124.3752   -157.46979            0    4008.7553     20.13419    20.348486    20.401233            0            0            0    8358.3908    2287.3158    4065.6079    5673.3424   -1244.4768    1249.9434    274.88917     20.13419    20.348486    20.401233           90           90           90 
   68000    266.34163   -157.60835   -124.17938   -157.60835            0    462.90127    20.324835     20.15986    20.135649            0            0            0    8250.4981   -1789.0804    34.269692    3143.5145     729.7898   -1661.6562    2317.6492    20.324835     20.15986    20.135649           90           90           90 
   68500    270.55445   -156.80956   -122.85184   -156.80956            0    2103.4229    20.432703    20.060558     20.39595            0            0            0    8360.1248    1060.7755    2316.6118    2932.8814   -835.36535   -600.11677    929.12276    20.432703    20.060558     20.39595           90           90           90 
   69000    260.56816   -157.14822    -124.4439   -157.14822            0    2267.1723    20.187621     20.15672    20.704096            0            0            0    8424.8325    4884.2396    3051.1243   -1133.8469   -943.49244   -1266.8182    802.97147    20.187621     20.15672    20.704096           90           90           90 
   69500    264.78482   -158.37701   -125.14345   -158.37701            0   -260.92186    19.987769    20.187714    20.667714            0            0            0    8339.5743    730.63105   -1822.0916    308.69499    1542.7624    1918.5495    1018.3046    19.987769    20.187714    20.667714           90           90           90 
   70000    273.77082   -158.74204   -124.38063   -158.74204            0    3788.7167    20.180533    20.129025    20.513819            0            0            0    8333.0098    6149.5666    443.49446     4773.089    542.62977    -1656.799    1340.9594    20.180533    20.129025    20.513819           90           90           90 
   70500    267.04604   -158.33404   -124.81666   -158.33404            0    4070.3522    20.342152    20.109197     20.39548            0            0            0    8343.0635    3050.7893    4688.3552    4471.9121    933.30413      465.005   -3886.3865    20.342152    20.109197     20.39548           90           90           90 
   71000    268.84422   -158.21785   -124.47478   -158.21785            0    3533.5925    20.275003    20.241671    20.382533            0            0            0      8364.99    2012.0679    4107.3729    4481.3366   -1337.4455   -92.482628    2109.9423    20.275003    20.241671    20.382533           90           90           90 
   71500    262.94545   -156.73969   -123.73699   -156.73969            0    509.94909    20.026717    20.204229    20.423316            0            0            0    8263.7716    -612.6239     160.6585    1981.8127    301.84011    1526.1148    476.79763    20.026717    20.204229    20.423316           90           90           90 
   72000     277.7902   -155.77351   -120.90762   -155.77351            0     6054.913    20.076021    20.123363    20.649052            0            0            0     8342.156     5895.629     8190.124    4078.9859    1575.6104    1317.0159   -183.09341    20.076021    20.123363    20.649052           90           90           90 
   72500    274.90364   -157.50876   -123.00516   -157.50876            0    574.18005    20.244342     20.09073    20.796595            0            0            0     8458.466    -3663.082    3073.1615    2312.4606    369.90251    1328.6728   -500.33929    20.244342     20.09073    20.796595           90           90           90 
   73000    269.06624   -158.18259   -124.41166   -158.18259            0    6509.7779    20.156908    19.991144     20.67501            0            0            0    8331.1945    6739.4213    8460.0394    4329.8731   -301.76963   -2158.3514   -1530.6542    20.156908    19.991144     20.67501           90           90           90 
   73500    278.71759   -158.74847   -123.76618   -158.74847            0    7411.9221    20.058307    20.109274    20.520617            0            0            0    8277.1551    6582.5704    8366.1243    7287.0717    1989.7475   -2172.0611   -1186.5143    20.058307    20.109274    20.520617           90           90           90 
   74000    256.86753   -156.53272   -124.29287   -156.53272            0    2805.7669    20.210411    20.346434    20.409265            0            0            0      8392.49    4354.5767    1861.4289    2201.2952   -13.421051   -1158.4964    1073.4062    20.210411    20.346434    20.409265           90           90           90 
   74500    274.11697   -158.57873   -124.17387   -158.57873            0    4704.4988    20.243151    20.235506    20.384089            0            0            0    8349.9427    1395.8674    6800.3507    5917.2783    952.02085   -606.74518   -1132.1846    20.243151    20.235506    20.384089           90           90           90 
   75000    271.10197   -156.61872   -122.59228   -156.61872            0    558.57682    20.293077    20.040605    20.647115            0            0            0    8396.8829   -1388.2287    3717.5401   -653.58092   -505.58178   -1075.5712    476.78443    20.293077    20.040605    20.647115           90           90           90 
   75500    266.98067   -158.20056   -124.69139   -158.20056            0    3438.4677    20.163524    19.926742    20.730157            0            0            0    8329.2391    2309.2365    3390.0341    4616.1326    789.17587   -2720.4527   -431.72532    20.163524    19.926742    20.730157           90           90           90 
   76000    268.54282   -157.07069   -123.36545   -157.07069            0    2826.7391    20.101372    20.240567    20.722511            0            0            0    8431.2265    3854.1842    2020.1458    2605.8871    1234.9379   -325.72281   -1792.3182    20.101372    20.240567    20.722511           90           90           90 
   76500    253.20157   -158.70677   -126.92704   -158.70677            0    2818.6843    20.021351    20.450651    20.298048            0            0            0    8311.0287    4596.8052    303.72024    3555.5276   -816.06029   -1084.8707    211.86879    20.021351    20.450651    20.298048           90           90           90 
   77000    256.67009   -159.20191   -126.98684   -159.20191            0    2335.1484    20.282601    20.325742    20.043027            0            0            0    8262.9168    -1206.638    2781.5621    5430.5211    1160.9564   -359.58283    -1275.207    20.282601    20.325742    20.043027           90           90           90 
   77500    266.79174   -157.82974   -124.34428   -157.82974            0    3235.5304     20.51751      20.1311    20.297082            0            0            0    8383.5079    2590.3788    2871.0257    4245.1866   -1184.8611   -3060.2287   -472.47094     20.51751      20.1311    20.297082           90           90           90 
   78000    282.17633   -155.83224   -120.41583   -155.83224            0    4069.6804    20.261474    20.082705    20.628017            0            0            0    8393.6478    3777.6615    3023.9699    5407.4098   -666.10042    1066.7671   -3100.9309    20.261474    20.082705    20.628017           90           90           90 
   78500    259.48581    -157.6954   -125.12692    -157.6954            0    2543.3094    20.084224    20.139635    20.784479            0            0            0    8407.0917     3652.133    1133.8776    2843.9178    2192.0551    1442.5242    919.18132    20.084224    20.139635    20.784479           90           90           90 
   79000    266.79365   -158.27499   -124.78929   -158.27499            0    4367.6972    20.081883    20.013616    20.618456            0            0            0    8286.7863    8233.1538    850.64015    4019.2977   -485.53656    1037.0021   -1014.0559    20.081883    20.013616    20.618456           90           90           90 
   79500    263.60196   -156.27308   -123.18797   -156.27308            0   -1297.8979    20.336621     20.03654    20.553689            0            0            0    8375.1247   -2310.4404    435.05756   -2018.3108    569.71204   -1714.4416    1876.6392    20.336621     20.03654    20.553689           90           90           90 
   80000    272.52045   -156.54869   -122.34421   -156.54869            0     108.3637    20.401547    20.121688    20.370865            0            0            0    8362.5165    792.68104   -1064.2784    596.68844   -2411.7796    384.65869   -1322.9354    20.401547    20.121688    20.370865           90           90           90 
   80500     270.9467   -157.41742   -123.41047   -157.41742            0    1259.8294    20.188069    20.282403    20.347581            0            0            0    8331.5724   -1411.4205    3367.2125    1823.6963   -196.08175   -544.04519    892.50834    20.188069    20.282403    20.347581           90           90           90 
   81000    272.96493   -157.98401   -123.72374   -157.98401            0    5527.7176    19.989203    20.344297    20.506608            0            0            0    8339.3461    5790.6169    4538.1633    6254.3726    819.94173    2077.8345   -3059.6258    19.989203    20.344297    20.506608           90           90           90 
   81500    261.41873   -156.75491   -123.94383   -156.75491            0    3661.4925    20.060922    20.169077    20.636716            0            0            0    8349.8275    7987.4559    2501.4082    495.61332   -189.35455    4322.0638   -1662.9939    20.060922    20.169077    20.636716           90           90           90 
   82000    265.61368   -158.21163   -124.87403   -158.21163            0    688.87931    20.337921    19.989795    20.598997            0            0            0    8374.5404   -318.43812    4148.3658   -1763.2897    1133.4417    -628.4225    371.96362    20.337921    19.989795    20.598997           90           90           90 
   82500    290.01814   -157.67591   -121.27527   -157.67591            0    4521.3453    20.329878    19.975381    20.436009            0            0            0    8299.0033    1195.5489    6917.0807    5451.4064   -1425.2663    588.28327   -1047.7151    20.329878    19.975381    20.436009           90           90           90 
   83000    273.45264   -157.12516   -122.80368   -157.12516            0   -14.960146    20.311873    20.264674    20.485971            0            0            0     8432.302    1698.1721   -1006.7617   -736.29084    3149.3985   -35.855204    1826.2225    20.311873    20.264674    20.485971           90           90           90 
   83500    273.08068   -157.69824   -123.42345   -157.69824            0    5254.3406    20.071384     20.23676    20.461503            0            0            0    8311.0488    3779.5532    4840.8171    7142.6515   -1107.5995    1911.0768    220.34759    20.071384     20.23676    20.461503           90           90           90 
   84000    279.98234   -156.47231   -121.33128   -156.47231            0    2561.0756    20.036008    20.169814    20.554725            0            0            0    8306.6285    1784.7095    4863.0642     1035.453    1800.4312   -115.91996    968.02026    20.036008    20.169814    20.554725           90           90           90 
   84500    275.34719   -157.73305   -123.17378   -157.73305            0    2240.6241    20.127379    20.180681     20.66891            0            0            0     8395.385    4589.1067    1322.8839    809.88173   -1700.8848     3340.918   -2227.8746    20.127379    20.180681     20.66891           90           90           90 
   85000    271.30217   -158.27615   -124.22458   -158.27615            0    1884.2695    20.138856    20.160204    20.614826            0            0            0    8369.6905    194.47688    5366.5585    91.773058   -972.53888   -1809.2221   -472.71867    20.138856    20.160204    20.614826           90           90           90 
   85500    275.53416   -156.24254   -121.65981   -156.24254            0    2930.7874     20.20539    20.092782    20.443035            0            0            0    8299.5144    4207.8045    1998.8489    2585.7089    724.20346    3014.2762    213.02464     20.20539    20.092782    20.443035           90           90           90 
   86000    267.86966   -156.92341   -123.30266   -156.92341            0    1918.6732    20.448913    20.135635    20.391157            0            0            0    8396.0965   -3658.6324    7404.8751    2009.7769    827.40482    920.01571    -1667.029    20.448913    20.135635    20.391157           90           90           90 
   86500    267.14842   -158.56672   -125.03649   -158.56672            0     6252.344    20.324027    20.059898    20.450271            0            0            0    8337.5329     6102.151    4491.7427    8163.1384    493.79798   -162.52295    1333.7771    20.324027    20.059898    20.450271           90           90           90 
   87000    268.36886   -159.48393   -125.80053   -159.48393            0    4025.6834    20.057907    20.003243    20.775061            0            0            0    8335.4363    5789.0558    3433.8684    2854.1259   -95.542204    3263.2626    47.330699    20.057907    20.003243    20.775061           90           90           90 
   87500    260.29288   -157.18081   -124.51104   -157.18081            0     3882.825    19.954315    20.139049    20.896245            0            0            0    8397.3846    4549.7391    5015.1098    2083.6261     691.3185    145.16314    2947.6495    19.954315    20.139049    20.896245           90           90           90 
   88000     274.8865   -157.50582   -123.00437   -157.50582            0    3739.2992    20.045212     20.27007    20.584578            0            0            0    8363.8815    2242.9963    4208.2472     4766.654   -922.97025   -339.13002    43.014809    20.045212     20.27007    20.584578           90           90           90 
   88500    264.66888   -157.57026   -124.35125   -157.57026            0    623.42654     20.23394    20.306822    20.300722            0            0            0    8341.3029    723.65221   -2504.8844    3651.5118    210.53174   -386.04292   -2039.3526     20.23394    20.306822    20.300722           90           90           90 
   89000    267.36913   -160.06587   -126.50794   -160.06587            0     2279.606    20.333931    20.241156    20.301402            0            0            0    8355.6973    3009.9999    2600.2413    1228.5769    1036.6693    2340.1296   -184.27796    20.333931    20.241156    20.301402           90           90           90 
   89500    261.10672   -159.48731   -126.71539   -159.48731            0    3031.5948    20.271877    20.061418    20.494816            0            0            0    8334.8849    3440.1977    2699.5854    2955.0012    114.45241   -2325.2546    69.942681    20.271877    20.061418    20.494816           90           90           90 
   90000    258.11042   -158.41652   -126.02067   -158.41652            0    6424.7375    20.140273    20.053131    20.736199            0            0            0    8374.8433    4278.9625    9053.6126    5941.6374    192.34528    4613.9137   -188.58211    20.140273    20.053131    20.736199           90           90           90 
   90500    275.43651   -157.71381   -123.14333   -157.71381            0    2539.4796     19.98439    20.098009    20.763023            0            0            0    8339.3945    634.62123    6280.4799    703.33759    -1609.399    1738.2081   -583.85857     19.98439    20.098009    20.763023           90           90           90 
   91000    268.22826   -157.79626    -124.1305   -157.79626            0    2377.5119    20.103614    20.134971    20.580083            0            0            0    8330.5229     4676.455   -562.07811    3018.1587    1677.1642    561.00257   -478.87837    20.103614    20.134971    20.580083           90           90           90 
   91500    259.32282   -159.82611   -127.27809   -159.82611            0    4588.8253    20.385111    20.201218    20.421996            0            0            0    8409.8612    1962.7663    7640.0868    4163.6228    350.95416    2454.7039   -325.84166    20.385111    20.201218    20.421996           90           90           90 
   92000    261.10825   -157.86088   -125.08877   -157.86088            0    3883.8807    20.296571    20.216177    20.253925            0            0            0    8310.5717    3811.1064    5085.1642    2755.3715   -682.03967    2779.9806    1795.7215    20.296571    20.216177    20.253925           90           90           90 
   92500    263.14027   -157.75447   -124.72731   -157.75447            0    2673.9527     20.11021    20.242609    20.416917            0            0            0    8311.3822    494.92841    4957.5363    2569.3934   -2424.2015   -1324.8912   -943.40599     20.11021    20.242609    20.416917           90           90           90 
   93000    272.78131   -158.20919   -123.97197   -158.20919            0    3071.8442    20.076994    20.186961    20.663087            0            0            0    8374.6148    4991.6336    3831.6958    392.20317    349.86447    1543.3402   -1852.0885    20.076994    20.186961    20.663087           90           90           90 
   93500    259.85163   -157.52752   -124.91312   -157.52752            0    4678.1705    20.279329    20.042114    20.830384            0            0            0    8466.3145     5988.747    5806.4109    2239.3537    914.56953    10.109627    876.52417    20.279329    20.042114    20.830384           90           90           90 
   94000    269.60731   -158.93625   -125.09741   -158.93625            0    4938.4452    20.279642    19.804159    20.539348            0            0            0    8249.0387    1615.3951    6715.4703    6484.4703   -1851.1973    2727.5966   -3186.9765    20.279642    19.804159    20.539348           90           90           90 
   94500    270.07594   -158.38854   -124.49088   -158.38854            0    2157.9547    20.292058    20.195335    20.462006            0            0            0    8385.4304    2013.5231    3367.2639     1093.077   -93.027125    1531.0864    2801.0262    20.292058    20.195335    20.462006           90           90           90 
   95000    267.63609   -160.43411   -126.84267   -160.43411            0   -1415.1942    20.125626    20.343441    20.379431            0            0            0    8343.8384   -3107.3206    94.720043   -1232.9821    -392.8845     35.26491    824.70127    20.125626    20.343441    20.379431           90           90           90 
   95500    259.57895   -156.78042   -124.20025   -156.78042            0    2145.3743    20.163305    20.182304    20.451261            0            0            0    8322.4761   -440.17213    1515.0042    5361.2908   -190.58009    2339.1473    1374.2475    20.163305    20.182304    20.451261           90           90           90 
   96000    278.62444   -157.63924   -122.66864   -157.63924            0    1737.0941    20.309248    20.015912    20.614781            0            0            0    8380.0757    2285.9898    2054.0836    871.20898    773.85735    421.68123   -654.67281    20.309248    20.015912    20.614781           90           90           90 
   96500     269.1157   -156.93228   -123.15514   -156.93228            0    4912.0553     20.13659     20.12531    20.693831            0            0            0    8386.2807    6335.6241    5126.8026    3273.7393   -2801.7306    -1675.592   -3916.7601     20.13659     20.12531    20.693831           90           90           90 
   97000    261.90543    -156.3935   -123.52133    -156.3935            0    1905.2871    19.940806    20.290653    20.639909            0            0            0    8351.1543    1494.8219    1922.3498    2298.6894    114.03891   -1308.9463   -1167.5821    19.940806    20.290653    20.639909           90           90           90 
   97500     264.1726   -156.48402   -123.32729   -156.48402            0     3176.397    20.096621    20.197491     20.51551            0            0            0    8327.2725    2266.4412    5754.7589    1507.9908   -89.317764    1956.4601   -264.38203    20.096621    20.197491     20.51551           90           90           90 
   98000    266.56469   -158.73645   -125.27949   -158.73645            0    2971.0349    20.411446    20.161324    20.448664            0            0            0    8415.0703     852.6074    2747.1514    5313.3458   -561.75911    2943.3254    1568.4072    20.411446    20.161324    20.448664           90           90           90 
   98500    268.73225   -157.83661   -124.10759   -157.83661            0    2143.3578    20.306477    20.128346    20.308991            0            0            0    8301.0118    6.9269879    5297.3905     1125.756   -2796.7515    45.964388    -2815.981    20.306477    20.128346    20.308991           90           90           90 
   99000    273.90004    -158.7796   -124.40197    -158.7796            0    4889.1446    20.092545    20.202112    20.411677            0            0            0    8285.3413    6969.8332    3502.9119    4194.6886   -221.38026     1658.055    1204.5669    20.092545    20.202112    20.411677           90           90           90 
   99500    277.76491   -156.81389   -121.95118   -156.81389            0    1786.3957    20.068876    20.233486    20.699834            0            0            0    8405.4432    5037.7724   -1007.3934     1328.808    729.18506    708.87398   -2104.6604    20.068876    20.233486    20.699834           90           90           90 
  100000    254.86027   -155.00847   -123.02055   -155.00847            0    4433.0935    20.132798    20.069529    20.717112            0            0            0    8370.8686    7438.1721    5385.5717    475.53679   -233.27827   -1727.3418   -799.04434    20.132798    20.069529    20.717112           90           90           90 
  100500    271.90416   -157.27387   -123.14674   -157.27387            0    2102.9182    20.202266     20.08441    20.594151            0            0            0    8356.0886    465.84085    6223.8206   -380.90688    1309.5644    1056.1597    568.05887    20.202266     20.08441    20.594151           90           90           90 
  101000    269.40934   -158.24108   -124.42709   -158.24108            0   -394.38695    20.186949    20.206149    20.388065            0            0            0    8316.3017   -212.63351    1866.0934   -2836.6207   -1245.8633   -1447.9219   -1377.6454    20.186949    20.206149    20.388065           90           90           90 
  101500    271.78074   -158.35471   -124.24308   -158.35471            0    1605.3692    20.244885    20.276528    20.322272            0            0            0    8342.2104    844.45238     817.2033    3154.4518    511.21588    668.61158   -80.161741    20.244885    20.276528    20.322272           90           90           90 
  102000    256.45679   -156.16267   -123.97437   -156.16267            0    1244.6439     20.34114    20.196876    20.473269            0            0            0    8410.9815     3011.523   -1364.5068    2086.9154     1258.038    2992.0752   -1431.1902     20.34114    20.196876    20.473269           90           90           90 
  102500    262.28519   -157.47485   -124.55501   -157.47485            0     130.0402    20.176414    19.978434    20.587343            0            0            0     8298.617    720.04489    861.42829   -1191.3526    658.30385    3051.7242   -1724.5094    20.176414    19.978434    20.587343           90           90           90 
  103000    260.38309   -155.69069   -123.00959   -155.69069            0    2236.4989    20.087995    20.065075     20.76075            0            0            0    8367.9755    2255.2662    4430.7155    23.514893    592.03432   -2094.0834   -1910.2802    20.087995    20.065075     20.76075           90           90           90 
  103500    262.35694   -157.77472   -124.84588   -157.77472            0    2111.5354     20.15303    20.167422     20.69737            0            0            0    8412.1287   -1965.8588    4867.4265    3433.0385   -1214.1029    1445.8176    3216.1647     20.15303    20.167422     20.69737           90           90           90 
  104000    272.62321   -157.36563   -123.14826   -157.36563            0    3151.4077    20.198337    20.207228     20.40893            0            0            0     8329.954    3237.3225    1252.4538    4964.4468    1323.6861   -1195.7948   -2679.4786    20.198337    20.207228     20.40893           90           90           90 
  104500    268.85368   -158.75365   -125.00939   -158.75365            0    2701.5222    20.323357     20.23626    20.310187            0            0            0    8352.9448    1473.9144    2497.0032    4133.6491   -369.34608   -1994.0983    -177.0531    20.323357     20.23626    20.310187           90           90           90 
  105000    275.60851    -156.8965   -122.30443    -156.8965            0    2861.4531    20.281018    20.124697    20.452328            0            0            0    8347.6041   -590.06318    5281.0375     3893.385    544.03374    1771.4432    1968.5185    20.281018    20.124697    20.452328           90           90           90 
  105500    269.80399    -155.8779   -122.01437    -155.8779            0    3705.1862    20.113281    20.014164    20.751022            0            0            0    8353.3341    5390.7405    3683.8262     2040.992    1270.7089   -1042.6068    96.183735    20.113281    20.014164    20.751022           90           90           90 
  106000     274.1141   -158.20762   -123.80312   -158.20762            0    2151.8223    20.050599    20.127494     21.02527            0            0            0    8485.1322    5023.6341    350.05112    1081.7817   -834.49909    1540.7104    164.59331    20.050599    20.127494     21.02527           90           90           90 
  106500     273.1959   -157.61571   -123.32646   -157.61571            0    2409.8114    20.019632    20.132116    20.662768            0            0            0    8327.8712    4821.4976    2994.7756   -586.83893    50.030078   -1508.8117    834.21426    20.019632    20.132116    20.662768           90           90           90 
  107000    261.18532   -156.80577   -124.02399   -156.80577            0    2407.3157    20.272102    20.236288    20.329473            0            0            0    8339.8026    1447.5813    3820.6719    1953.6939    -1529.407    2100.0126    1758.5119    20.272102    20.236288    20.329473           90           90           90 
  107500    268.61668     -156.884   -123.16949     -156.884            0    6005.7018    20.365052    20.287075    20.275051            0            0            0    8376.5836    4129.7861    6269.7409    7617.5785    370.87533    1403.9346   -1534.1674    20.365052    20.287075    20.275051           90           90           90 
  108000    273.07305   -157.15817   -122.88434   -157.15817            0    1266.3036    20.258484    20.242778    20.449158            0            0            0    8385.9543   -1902.6829    2613.0338    3088.5599   -1289.0374    1769.8547   -2952.7622    20.258484    20.242778    20.449158           90           90           90 
  108500    269.60536    -155.6021    -121.7635    -155.6021            0    4717.0242    20.119548    20.057594    20.651734            0            0            0    8334.0017    2024.9787    7925.1096    4200.9842    295.73542   -133.26473   -1204.5039    20.119548    20.057594    20.651734           90           90           90 
  109000    270.46642   -157.43048   -123.48381   -157.43048            0    3292.4241    20.158208    20.012062    20.752503            0            0            0    8371.7117    4091.5361    2939.4953     2846.241   -903.89149   -169.07517   -4389.5014    20.158208    20.012062    20.752503           90           90           90 
  109500    269.78225   -157.26923   -123.40843   -157.26923            0     2184.264    20.260064    20.122778    20.666197            0            0            0    8425.3764    3475.4126    4079.4133   -1002.0339     462.6324    -2095.125     1388.041    20.260064    20.122778    20.666197           90           90           90 
  110000      268.979   -157.92657   -124.16658   -157.92657            0    1474.1554    20.245463    20.251042    20.467725            0            0            0    8391.5981   -1450.6704    2120.7052    3752.4315   -1087.7827   -802.84181    1822.9781    20.245463    20.251042    20.467725           90           90           90 
  110500    259.71832   -157.79053   -125.19287   -157.79053            0    755.26848    20.136807    20.296443    20.309739            0            0            0    8300.7031    2575.9975   -3134.8155    2824.6234   -989.22501     3563.984    1008.5207    20.136807    20.296443    20.309739           90           90           90 
  111000    274.85674    -158.1351   -123.63739    -158.1351            0    3062.7481    20.192278    20.141082    20.402913            0            0            0    8297.7489    3199.0153     4110.543    1878.6859    343.59276    1087.6481    1801.4224    20.192278    20.141082    20.402913           90           90           90 
  111500    271.68822   -158.14381   -124.04378   -158.14381            0    2443.9103    20.359894    20.039449    20.665931            0            0            0    8431.7215   -14.814356     5868.237    1478.3082   -746.30748    650.61637   -1041.1455    20.359894    20.039449    20.665931           90           90           90 
  112000    267.10551    -157.5644   -124.03956    -157.5644            0    3807.5934    20.223292    20.044309    20.689148            0            0            0    8386.5928     2085.875    5776.0347    3560.8706    1463.0841      -1681.1    660.09611    20.223292    20.044309    20.689148           90           90           90 
[...]
  373000    257.58528   -159.23437   -126.90442   -159.23437            0    4856.5494    20.293061    19.973056    20.383018            0            0            0    8261.5317    2269.6281    6702.2166    5597.8034   -374.89612   -1054.0125    187.72049    20.293061    19.973056    20.383018           90           90           90 
  373500    259.64469   -157.65091   -125.06249   -157.65091            0    2565.4444    20.075819    20.123385    20.483142            0            0            0     8275.055    4550.9142   -208.80494    3354.2238   -982.76069    256.16902    257.39378    20.075819    20.123385    20.483142           90           90           90 
  374000    271.85154   -156.51758   -122.39706   -156.51758            0    3321.3017    20.083138    20.406973     20.69618            0            0            0    8482.0405    4142.0448    4392.7802    1429.0801    122.35374   -380.43888    1863.0567    20.083138    20.406973     20.69618           90           90           90 
  374500     285.2985   -156.01654   -120.20827   -156.01654            0     3106.411    19.990137    20.247662    20.652601            0            0            0    8359.2135    2618.6905    6778.7259   -78.183308    190.57501    4614.1792    804.12346    19.990137    20.247662    20.652601           90           90           90 
  375000    280.69327   -156.67753   -121.44727   -156.67753            0    2692.2439     20.25351    20.100375    20.631527            0            0            0    8399.1593    1097.6831    4415.5391    2563.5097    189.62817   -1831.9045   -384.44198     20.25351    20.100375    20.631527           90           90           90 
  375500     270.8803   -157.77581   -123.77719   -157.77581            0    4514.8116    20.377093    20.051023     20.49872            0            0            0    8375.3989     3546.395    4866.3126    5131.7272    970.55006    365.58781    -1040.175    20.377093    20.051023     20.49872           90           90           90 
  376000    281.24543   -158.05112   -122.75156   -158.05112            0    2173.2905    20.285607    20.160114    20.451328            0            0            0     8363.778    3670.7394    616.65813    2232.4739   -769.02729    775.45748    -647.6302    20.285607    20.160114    20.451328           90           90           90 
  376500     279.8669   -157.26526   -122.13871   -157.26526            0    1810.6845    20.129516    20.221227    20.559752            0            0            0    8368.7137     4116.075    121.67725    1194.3014   -1021.5557 -0.019535712   -110.95662    20.129516    20.221227    20.559752           90           90           90 
  377000    267.05934   -158.90138   -125.38234   -158.90138            0    1888.4796    20.157369    20.176572    20.689042            0            0            0    8414.3699    3316.9799    2323.5303    24.928523    480.77496    804.21643    2285.7739    20.157369    20.176572    20.689042           90           90           90 
  377500    254.97214   -156.66408   -124.66212   -156.66408            0     2813.052    20.221248    20.078172    20.732792            0            0            0    8417.6317    2208.5376    2982.2615     3248.357   -232.67219   -785.56733    1637.5495    20.221248    20.078172    20.732792           90           90           90 
  378000    272.17624   -157.09766   -122.93638   -157.09766            0    6583.8567    20.124635    20.053672    20.486131            0            0            0    8267.6457     7538.259    6182.8362    6030.4749    95.536523     1299.812   -826.79057    20.124635    20.053672    20.486131           90           90           90 
  378500     262.5581   -158.06418    -125.1101   -158.06418            0   -510.17405    20.147717    20.378271    20.391391            0            0            0    8372.2083   -1107.0636   -1833.8386      1410.38    257.97602   -2306.5555   -326.91914    20.147717    20.378271    20.391391           90           90           90 
  379000    261.19906   -155.97234   -123.18883   -155.97234            0    2568.1737    20.210671    20.439334     20.41137            0            0            0    8431.7873    303.71225    1482.5262    5918.2827   -265.73844   -545.78819    153.10362    20.210671    20.439334     20.41137           90           90           90 
  379500     263.6052   -157.21248   -124.12697   -157.21248            0    2539.1937      20.2382    20.034333    20.483088            0            0            0    8305.0488    4753.4461    369.49071    2494.6444    971.79723    886.61683    976.01924      20.2382    20.034333    20.483088           90           90           90 
  380000    262.22935   -157.21472    -124.3019   -157.21472            0    2610.3184    20.287327    19.828217    20.645373            0            0            0     8304.839   -141.76656    7464.1021    508.61966    -1021.506   -1421.8679   -134.05642    20.287327    19.828217    20.645373           90           90           90 
  380500    270.78608   -159.26942   -125.28262   -159.26942            0     2469.078    20.224228    20.054886    20.736695            0            0            0    8410.6913    2711.2253    2799.6323    1896.3765   -774.11776    1588.4773    1699.0478    20.224228    20.054886    20.736695           90           90           90 
  381000    264.52663   -157.46156    -124.2604   -157.46156            0    2106.0302    20.084609    20.261854    20.529451            0            0            0    8354.4891    2130.6774    1900.3243    2287.0889    835.42172     1419.838   -1469.2327    20.084609    20.261854    20.529451           90           90           90 
  381500    290.63347   -157.56031   -121.08244   -157.56031            0    5110.2587     20.18543    20.357627    20.408825            0            0            0    8386.5464    7060.9818    2282.5837    5987.2107   -390.40304    -400.8244      168.754     20.18543    20.357627    20.408825           90           90           90 
  382000    271.72369   -157.28765   -123.18318   -157.28765            0    3763.0059     20.35628    20.256512    20.372041            0            0            0    8400.3546    5707.5551    3628.6005     1952.862   -1005.1058   -143.50584   -441.06157     20.35628    20.256512    20.372041           90           90           90 
  382500     277.4897   -155.63138    -120.8032   -155.63138            0    4853.6834    20.336745    20.083553    20.471629            0            0            0    8361.3112     4862.717    4199.2972    5499.0361    510.45533    1870.2231   -1154.0512    20.336745    20.083553    20.471629           90           90           90 
  383000    272.23043   -156.05355   -121.88547   -156.05355            0    5866.4364    20.222558    20.127508    20.669119            0            0            0    8412.9452    6949.4112    6192.0425    4457.8555   -57.316164    313.53904     339.9169    20.222558    20.127508    20.669119           90           90           90 
  383500    294.03024   -157.16179   -120.25759   -157.16179            0    2406.9536    20.075067    20.237829    20.707438            0            0            0    8412.9304    2193.3809    1960.7875    3066.6923   -226.39276    2233.9692    1689.5811    20.075067    20.237829    20.707438           90           90           90 
  384000    267.25763   -156.87259   -123.32866   -156.87259            0    7984.8264    20.075276    20.205219    20.607654            0            0            0    8358.9873    11642.231    8041.0675    4271.1804    376.83275   -1639.1848   -1396.6031    20.075276    20.205219    20.607654           90           90           90 
  384500    264.54924    -157.0277    -123.8237    -157.0277            0    555.08378    20.342428    20.112336    20.611463            0            0            0     8432.845    -1059.637    3535.7212    -810.8328   -278.77857   -735.98565   -2164.6685    20.342428    20.112336    20.611463           90           90           90 
  385000    266.55217   -158.52588   -125.07049   -158.52588            0    3986.5104    20.273228     20.07114    20.488343            0            0            0    8336.8459    6356.4494    3150.6656    2452.4161    445.29139   -897.50407   -1685.0338    20.273228     20.07114    20.488343           90           90           90 
  385500    265.23739   -158.40194   -125.11157   -158.40194            0    1672.2243    20.034136    20.375248    20.415582            0            0            0    8333.6502    4239.3651   -2021.5682    2798.8759   -1958.8936   -962.45242   -2776.7028    20.034136    20.375248    20.415582           90           90           90 
  386000    267.08936   -157.35363   -123.83081   -157.35363            0    840.17739    19.962264    20.530419    20.407132            0            0            0    8363.5293    3856.4599   -1026.7071   -309.22071   -104.76106   -2315.5419    -1083.405    19.962264    20.530419    20.407132           90           90           90 
  386500    264.99495   -155.63092   -122.37098   -155.63092            0    2885.7886    20.356855    20.140801    20.553135            0            0            0    8426.8541    1696.1539    1523.0858    5438.1261   -1121.0027   -610.85539   -84.656933    20.356855    20.140801    20.553135           90           90           90 
  387000    269.90175   -157.17085   -123.29505   -157.17085            0     3869.145      20.5135    19.745412     20.56451            0            0            0    8329.6037    3848.5447    6488.9386    1269.9519    2284.9092    2473.4911   -1045.8198      20.5135    19.745412     20.56451           90           90           90 
  387500    267.98281   -156.52058   -122.88562   -156.52058            0   -552.43473    20.371337    19.966303    20.653404            0            0            0    8400.5709   -3204.9014    1795.9608   -248.36369   -1132.9389   -759.71463    777.22416    20.371337    19.966303    20.653404           90           90           90 
  388000     269.2143   -159.71457   -125.92505   -159.71457            0    5788.5611    20.018723    20.231235    20.622038            0            0            0    8351.9973    5639.0608    4188.8661    7537.7563    829.59844   -360.24067    -893.9241    20.018723    20.231235    20.622038           90           90           90 
  388500    255.29446   -158.01123   -125.96882   -158.01123            0    3467.3037    20.001316    20.240918    20.566731            0            0            0    8326.3383    7559.1201     631.2031    2211.5879   -249.08446   -802.33595   -1531.5569    20.001316    20.240918    20.566731           90           90           90 
  389000    254.58126   -157.78078   -125.82788   -157.78078            0   -749.95596    20.284605    20.210401    20.548545            0            0            0    8424.0817   -2353.5863    1220.8931   -1117.1746   -1120.9433    237.23272   -2104.6063    20.284605    20.210401    20.548545           90           90           90 
  389500    266.86386   -159.08082   -125.58631   -159.08082            0    4435.6044    20.216373    20.025588     20.41218            0            0            0    8263.7641    2673.0504    6579.8485    4053.9143    605.64711    192.31631    662.58159    20.216373    20.025588     20.41218           90           90           90 
  390000    262.47823    -159.1305   -126.18644    -159.1305            0   -613.64293    20.203236    20.185423    20.569932            0            0            0    8388.6417   -2657.5336    3605.8279   -2789.2231   -683.14492    -1041.406    67.551633    20.203236    20.185423    20.569932           90           90           90 
  390500    268.38954   -157.30126   -123.61526   -157.30126            0     3873.759    20.192717    20.111243    20.637053            0            0            0    8380.7202    2067.4904    5071.8778    4481.9088    740.61037   -2108.3292   -789.03451    20.192717    20.111243    20.637053           90           90           90 
  391000    278.29056   -157.26594   -122.33725   -157.26594            0    4123.7525     20.26655    19.963854    20.613762            0            0            0    8340.2959    2902.5532     6711.782    2756.9224   -1260.4315   -2002.1914   -1209.7166     20.26655    19.963854    20.613762           90           90           90 
  391500    293.56412   -156.57275   -119.72704   -156.57275            0    2284.3524    20.311168    20.092777     20.68924            0            0            0    8443.4396    210.95706    2954.0488    3688.0514    1370.8076   -56.986275     564.7215    20.311168    20.092777     20.68924           90           90           90 
  392000    254.96819   -157.79776   -125.79629   -157.79776            0    3317.5189    20.031441    20.227139    20.618877            0            0            0    8354.3304    4367.1741    2264.9578    3320.4247    -2082.962    381.90158   -661.99947    20.031441    20.227139    20.618877           90           90           90 
  392500    263.82498   -159.10002   -125.98693   -159.10002            0   -744.11769     19.97534    20.287787    20.533774            0            0            0    8321.4236   -1814.8499   -1458.5726    1041.0694     322.3197   -2519.1579    3444.3669     19.97534    20.287787    20.533774           90           90           90 
  393000    277.63044   -157.89946   -123.05362   -157.89946            0    1455.4406    20.253541    20.187311    20.422627            0            0            0    8350.0879    2653.5758    2060.4624   -347.71631    513.04508     1079.285   -1614.4222    20.253541    20.187311    20.422627           90           90           90 
  393500    281.95466   -156.11131   -120.72272   -156.11131            0    2272.2379    20.646458    20.143397    20.499443            0            0            0    8525.5089    98.589422    2913.6531    3804.4711   -2538.3791    -1769.718   -2574.8516    20.646458    20.143397    20.499443           90           90           90 
  394000    271.97579   -157.72474   -123.58862   -157.72474            0    5142.8715    20.386655     19.95796    20.469858            0            0            0    8328.6949    3480.4795    6169.4947    5778.6405     1944.194    1353.1133   -2681.7462    20.386655     19.95796    20.469858           90           90           90 
  394500    263.21484   -157.72081    -124.6843   -157.72081            0    5399.6601    20.071161     20.04589     20.58675            0            0            0     8282.961     5646.338    5306.0797    5246.5626   -233.26642    1496.3277   -998.18415    20.071161     20.04589     20.58675           90           90           90 
  395000    262.94609   -156.12058    -123.1178   -156.12058            0    85.413018    20.144463    20.252683    20.720277            0            0            0    8453.4468    4707.4423   -1130.4292   -3320.7741    695.93841    -13.93811   -1451.5905    20.144463    20.252683    20.720277           90           90           90 
  395500    266.87109   -158.99653   -125.50112   -158.99653            0    3478.6135    20.202996    20.192427    20.612555            0            0            0    8408.8408    2751.3482    1894.2022    5790.2899   -631.38669    -1100.261   -940.63649    20.202996    20.192427    20.612555           90           90           90 
  396000    269.67728    -158.8081   -124.96047    -158.8081            0    1463.8558    20.229455     20.09687    20.514001            0            0            0     8339.941    2602.5008     1535.127    253.93948     401.5201   -657.10255   -40.616422    20.229455     20.09687    20.514001           90           90           90 
  396500    275.21296   -160.54673   -126.00431   -160.54673            0    6402.0048    20.143828     20.10485    20.374405            0            0            0    8251.4024    7297.5917      4115.93    7792.4926   -77.148825   -2905.5045   -2326.6091    20.143828     20.10485    20.374405           90           90           90 
  397000    265.09022   -157.65232   -124.38042   -157.65232            0    1417.0514    20.173196    20.318605    20.408474            0            0            0    8365.2538    4342.5218    355.00373   -446.37124    2223.2622   -116.78972     359.6401    20.173196    20.318605    20.408474           90           90           90 
  397500    272.27503   -157.67055   -123.49687   -157.67055            0   -87.775142      20.2488     20.29779    20.475178            0            0            0    8415.4187    -1990.393    251.87639    1475.1912   -204.59383    717.80098   -1261.4695      20.2488     20.29779    20.475178           90           90           90 
  398000    268.51122   -157.25751   -123.55624   -157.25751            0    4412.2496    20.201888    19.968717    20.512157            0            0            0    8274.7229     957.6282    5837.7418    6441.3788    434.84109   -361.76209    521.47692    20.201888    19.968717    20.512157           90           90           90 
  398500    275.40739   -157.87345   -123.30663   -157.87345            0    1613.9019     20.25905    20.086635    20.750485            0            0            0    8444.1222    885.36569    -360.2366    4316.5766    743.54433   -3024.5658   -2330.5516     20.25905    20.086635    20.750485           90           90           90 
  399000     258.8283   -159.45453   -126.96857   -159.45453            0    1362.7185    20.171335    20.262143    20.757827            0            0            0    8484.0242    2295.4217     1216.593    576.14079    539.35788    135.83122   -3036.4276    20.171335    20.262143    20.757827           90           90           90 
  399500    274.03761   -159.06163   -124.66673   -159.06163            0    3010.4291    20.062941    20.190242    20.495653            0            0            0    8302.2899    3963.5222    1975.4266    3092.3386    1511.9339    878.54497     414.3682    20.062941    20.190242    20.495653           90           90           90 
  400000    258.74754   -158.13764   -125.66182   -158.13764            0    1458.6511    20.245788    20.149443    20.453138            0            0            0    8343.6804   -716.97988    3765.7524    1327.1809   -644.97625   -587.77105    316.17218    20.245788    20.149443    20.453138           90           90           90 
Loop time of 2435.17 on 1 procs for 400000 steps with 972 atoms

Performance: 7.096 ns/day, 3.382 hours/ns, 164.260 timesteps/s
71.7% CPU use with 1 MPI tasks x 1 OpenMP threads

MPI task timing breakdown:
Section |  min time  |  avg time  |  max time  |%varavg| %total
---------------------------------------------------------------
Pair    | 2163.4     | 2163.4     | 2163.4     |   0.0 | 88.84
Bond    | 0.056614   | 0.056614   | 0.056614   |   0.0 |  0.00
Neigh   | 242.76     | 242.76     | 242.76     |   0.0 |  9.97
Comm    | 9.8904     | 9.8904     | 9.8904     |   0.0 |  0.41
Output  | 1.8555     | 1.8555     | 1.8555     |   0.0 |  0.08
Modify  | 15.834     | 15.834     | 15.834     |   0.0 |  0.65
Other   |            | 1.407      |            |       |  0.06

Nlocal:        972.000 ave         972 max         972 min
Histogram: 1 0 0 0 0 0 0 0 0 0
Nghost:        4606.00 ave        4606 max        4606 min
Histogram: 1 0 0 0 0 0 0 0 0 0
Neighs:         0.00000 ave           0 max           0 min
Histogram: 1 0 0 0 0 0 0 0 0 0
FullNghs:      243268.0 ave      243268 max      243268 min
Histogram: 1 0 0 0 0 0 0 0 0 0

Total # of neighbors = 243268
Ave neighs/atom = 250.27572
Ave special neighs/atom = 0.0000000
Neighbor list builds = 40000
Dangerous builds not checked

unfix		3
unfix		2

write_data	data.final.${pid}
write_data	data.final.0
System init for write_data ...

write_restart   restart.lmp.${pid}
write_restart   restart.lmp.0
System init for write_restart ...
Total wall time: 0:40:38
