LAMMPS data file via write_data, version 29 Sep 2021, timestep = 400000

864 atoms
2 atom types

0.17219471218839466 18.035378287812076 xlo xhi
0.16894785945368973 23.460229140545685 ylo yhi
0.03845969645427161 22.174736303545174 zlo zhi

Masses

1 1.008
2 15.999

Atoms # full

706 0 1 -1.1794 3.014892815731722 1.4335691575691967 2.95552289599587 0 0 0
708 0 2 0.5897 2.121760271826441 1.8259289124293974 2.7579468483339395 0 0 0
707 0 2 0.5897 3.0826714865552463 1.5615094454304959 3.9119241844312183 0 0 0
1 0 1 -1.1794 0.9507030972375708 3.166654910673758 2.266136230839056 0 0 0
3 0 2 0.5897 1.0412505821172584 3.968964958552404 2.8172240258850647 0 0 0
29 0 2 0.5897 4.469223025991829 2.430639908279417 2.638240589604058 0 0 0
2 0 2 0.5897 0.20465020755272026 2.6001749774007727 2.568601151046971 1 0 0
20 0 2 0.5897 0.8502354557079886 3.2621173246627206 0.47649127323150037 0 0 0
28 0 1 -1.1794 5.124896096603006 3.0735119815796295 2.2421754395389244 0 0 0
668 0 2 0.5897 5.266409204169153 3.0585263469071924 0.40350312980661357 0 0 0
30 0 2 0.5897 4.905469073062134 3.9434637316238037 2.533443187772288 0 0 0
493 0 1 -1.1794 7.571113508212749 2.0272788357041303 2.907265651486932 0 0 0
494 0 2 0.5897 6.755201823208392 2.419867302067437 2.739888222348363 0 0 0
495 0 2 0.5897 8.33286256148459 2.4437794688436014 2.506647730061623 0 0 0
819 0 2 0.5897 7.472999459274423 0.3621832270723325 2.2668274944180555 0 0 0
750 0 2 0.5897 9.748552143750375 3.101572477163777 0.7649617536455006 0 0 0
106 0 1 -1.1794 12.093616903088881 2.086113898341845 3.0405824959013654 0 0 0
108 0 2 0.5897 11.332690578055768 2.359678280150223 2.4997878555318964 0 0 0
748 0 1 -1.1794 9.594927375619323 2.9999932190519543 1.7128631448288747 0 0 0
749 0 2 0.5897 9.643633211817363 3.888417443598391 2.0825748371517045 0 0 0
107 0 2 0.5897 11.950051191486688 2.270883465545967 3.974111328468086 0 0 0
215 0 2 0.5897 13.534322375404368 2.6102474724102542 2.0603986395040135 0 0 0
63 0 2 0.5897 12.13400498125344 0.44937227763532145 2.8339187050727297 0 0 0
369 0 2 0.5897 14.377670959525174 3.369302960801553 0.26464991305928043 0 0 0
216 0 2 0.5897 14.316199214030354 4.031852795913371 2.45685373497941 0 0 0
214 0 1 -1.1794 14.31841689587444 3.1810579862845505 1.9145472863508104 0 0 0
406 0 1 -1.1794 16.706638022468894 1.7468382330536534 2.951022465715905 0 0 0
407 0 2 0.5897 16.46614657054731 0.9159907126130301 2.497972813482041 0 0 0
408 0 2 0.5897 15.849273612748805 2.222321736766927 2.8737864784181095 0 0 0
123 0 2 0.5897 2.85819627197889 8.815622821590896 2.5729440962313506 0 0 0
253 0 1 -1.1794 2.9451454381168847 6.878040716874639 2.0860750545406175 0 0 0
254 0 2 0.5897 3.0516576284106263 6.872837845201326 1.124148753848828 0 0 0
255 0 2 0.5897 2.2319661225948884 6.276064253297464 2.436619741726393 0 0 0
595 0 1 -1.1794 0.7879267085167424 5.672875923760702 3.3530759877879954 0 0 0
597 0 2 0.5897 0.7275454589659404 5.916363557843239 4.287142104352033 0 0 0
138 0 2 0.5897 4.208039993051899 6.137828682178826 2.8245042462351306 0 0 0
136 0 1 -1.1794 5.065233259295964 5.862792833889148 3.0620209841013124 0 0 0
137 0 2 0.5897 5.1661372817070115 5.838075195086756 4.024525810703043 0 0 0
65 0 2 0.5897 7.291058946312986 8.451982747090428 2.9452633642971966 0 0 0
415 0 1 -1.1794 7.298539588978016 7.0475107096536584 1.966564590004674 0 0 0
416 0 2 0.5897 6.52350048489832 6.6048502646329155 2.3446940818166775 0 0 0
417 0 2 0.5897 8.089144416541052 6.604281995770259 2.269194971130364 0 0 0
64 0 1 -1.1794 7.464498480205533 9.441258624973441 3.0319341198188186 0 0 0
162 0 2 0.5897 7.3983977796207885 7.211238720503891 0.19883408856271842 0 0 0
190 0 1 -1.1794 11.938475049367074 6.443219672624047 1.9380926293058947 0 0 0
191 0 2 0.5897 12.061261065866466 6.814965012299065 1.051803262799221 0 0 0
192 0 2 0.5897 12.12125977278671 7.262435076351303 2.4466338882467817 0 0 0
298 0 1 -1.1794 9.51027292442893 5.538650599502338 2.765375293730048 0 0 0
299 0 2 0.5897 10.40812308694934 5.923214188091778 2.567716663103318 0 0 0
300 0 2 0.5897 9.418810541466678 5.629457992692675 3.7312191850597136 0 0 0
110 0 2 0.5897 13.55898468465368 5.996645860970496 2.5329668247291273 0 0 0
92 0 2 0.5897 11.926338385170553 9.033667554329613 4.181047481592856 0 0 0
91 0 1 -1.1794 11.841301590842269 8.865597813072961 3.2132848935416334 0 0 0
93 0 2 0.5897 11.096873736515272 9.363182109381658 2.8946515508265214 0 0 0
596 0 2 0.5897 17.87414350384941 5.982613721572339 2.8905398048331534 0 0 0
109 0 1 -1.1794 14.41698416271257 5.747054376557618 2.8645036178552 0 0 0
111 0 2 0.5897 15.070421902034006 6.2274660548855145 2.3749077918354367 0 0 0
838 0 1 -1.1794 16.830515459586387 7.015816047542272 2.0744049700417144 0 0 0
839 0 2 0.5897 16.564883154883915 7.931788630262496 2.4516531795973933 0 0 0
840 0 2 0.5897 16.844637606072872 7.125493305786909 1.072549718263562 0 0 0
122 0 2 0.5897 2.837094315575474 9.859509463506189 3.6868839432146387 0 0 0
121 0 1 -1.1794 2.7876683261032063 9.793515644810004 2.7309538851526316 0 0 0
43 0 1 -1.1794 0.466942723002289 10.863312388905058 1.8405981561009896 0 0 0
44 0 2 0.5897 1.377476555334013 10.548297310763342 2.0891186077865336 0 0 0
373 0 1 -1.1794 0.19141538226865576 13.365297002424953 3.0810021510501153 0 0 0
396 0 2 0.5897 0.8200423593453843 11.1062439715209 0.0791573438500491 0 0 0
45 0 2 0.5897 0.3213431452491312 11.676250012035323 2.315566543206293 0 0 0
173 0 2 0.5897 3.924412935769539 13.717654130960367 2.2933272344628257 0 0 0
374 0 2 0.5897 0.2667502791648687 13.459955322129161 4.044500089662475 0 0 0
219 0 2 0.5897 4.640711212062297 10.287340224776537 1.9910610186409576 0 0 0
66 0 2 0.5897 7.515623721709058 9.687545059577822 3.9941376654601926 0 0 0
172 0 1 -1.1794 4.730044811340566 13.426041514581534 2.692489390478739 0 0 0
174 0 2 0.5897 4.955736281181105 12.516250994419194 2.366633153168971 0 0 0
217 0 1 -1.1794 5.4260025998301735 10.816650104335576 1.7667989609540724 0 0 0
218 0 2 0.5897 6.114861968231914 10.317767708161991 2.212584772220038 0 0 0
363 0 2 0.5897 5.474330947516269 11.048361054345595 0.054643253870087255 0 0 0
773 0 2 0.5897 8.74795065656546 9.97500437209125 1.9659009885607497 0 0 0
479 0 2 0.5897 8.010940702896466 13.965091619113418 2.7614768522367754 0 0 0
480 0 2 0.5897 6.457048342142236 14.005226000291042 2.440552000221439 0 0 0
774 0 2 0.5897 9.615480996399492 10.362509283190125 0.7179346045228204 0 0 0
772 0 1 -1.1794 9.583685199768324 10.348237364646787 1.6559190096622365 0 0 0
156 0 2 0.5897 9.50883915428968 12.172515185680895 1.994992596716518 0 0 0
154 0 1 -1.1794 9.624559702672366 13.084564734537896 2.350380692120613 0 0 0
860 0 2 0.5897 13.147248786192186 10.076634707671612 2.624648726269082 0 0 0
155 0 2 0.5897 10.152074173047312 13.511421629592947 1.6821433846432203 0 0 0
806 0 2 0.5897 9.579087092750422 13.375031529466558 4.40248133816696 0 0 0
841 0 1 -1.1794 16.251318491851727 9.530237743987742 3.217358232655227 0 0 0
842 0 2 0.5897 16.37947092904946 9.520789968634054 4.158386695456067 0 0 0
375 0 2 0.5897 17.365549243445024 13.991042151447932 2.8101739654149647 0 0 0
55 0 1 -1.1794 13.768718156696606 13.466171427094983 2.9588139175283916 0 0 0
57 0 2 0.5897 13.658024014813302 12.55662348305767 2.698210860448518 0 0 0
56 0 2 0.5897 13.734985663224478 13.557633827681721 3.946548534504152 0 0 0
859 0 1 -1.1794 13.878645758128343 10.645703347778655 2.375835583704737 0 0 0
843 0 2 0.5897 16.993219328571108 10.111928641435947 2.882582979845081 0 0 0
861 0 2 0.5897 14.690043178023227 10.341769756791987 2.7167489446774558 0 0 0
152 0 2 0.5897 14.303116338859406 11.243917718310898 0.5076581383016177 0 0 0
557 0 2 0.5897 1.8068863864751261 14.161289153416032 2.3440346941163366 0 0 0
556 0 1 -1.1794 2.645914013797407 14.659698058285555 2.0979267014157927 0 0 0
292 0 1 -1.1794 2.215946740882123 17.516583780755347 3.1627891418347107 0 0 0
293 0 2 0.5897 2.384937754474386 16.74291676268087 2.615922829952389 0 0 0
344 0 2 0.5897 0.9007833770112026 18.214637519678597 2.612519142511403 0 0 0
558 0 2 0.5897 2.54334727848926 14.790934503788309 1.1785945110450786 0 0 0
294 0 2 0.5897 2.3960568071513393 17.158926624020587 4.0561964062037 0 0 0
227 0 2 0.5897 4.013685532165497 18.38603776363326 2.929976256855619 0 0 0
345 0 2 0.5897 0.40027821206269754 18.34620625019749 1.1212670691354183 0 0 0
343 0 1 -1.1794 0.18914667826136833 18.532062203071554 2.0322912251576026 0 0 0
478 0 1 -1.1794 7.266022908829479 14.555188307707574 2.5431461373076623 0 0 0
448 0 1 -1.1794 7.224699016055926 17.39045796536174 2.703180888518418 0 0 0
449 0 2 0.5897 7.328014226578245 16.421919193136446 2.7801404602742803 0 0 0
450 0 2 0.5897 6.304651523461634 17.640209672603227 2.9195022413227973 0 0 0
317 0 2 0.5897 7.443153991206003 15.053588956253298 0.810950140780214 0 0 0
321 0 2 0.5897 8.543500420768133 18.604905268137315 2.338878974271379 0 0 0
226 0 1 -1.1794 4.892641327235351 18.722209127564206 2.6859277062523352 0 0 0
602 0 2 0.5897 5.229443012445341 18.538968214681688 0.7575162515487259 0 0 0
560 0 2 0.5897 12.34209346201865 14.306382264018138 1.992129467091169 0 0 0
559 0 1 -1.1794 11.609109429115264 14.728974205092918 1.548196188662514 0 0 0
320 0 2 0.5897 10.062360563326289 18.33443846048072 2.059961202866871 0 0 0
561 0 2 0.5897 11.765925232236414 14.616406390730175 0.5944911236070088 0 0 0
832 0 1 -1.1794 11.281822080335123 17.2129958877484 2.4631722248999606 0 0 0
833 0 2 0.5897 12.181861353199443 17.507364766021702 2.225362856006181 0 0 0
834 0 2 0.5897 11.239527098339078 16.344960266158893 1.990915290008313 0 0 0
304 0 1 -1.1794 13.55387698120327 18.60706537967961 1.7517644035899647 0 0 0
645 0 2 0.5897 11.526114784363468 17.0356697272085 4.232540068832521 0 0 0
179 0 2 0.5897 15.304940952032082 14.455938063503991 2.4513217230457864 0 0 0
178 0 1 -1.1794 16.08601377033981 14.952614661651616 2.173788114904024 0 0 0
180 0 2 0.5897 15.90213569877392 15.849561967404197 2.537786608878672 0 0 0
745 0 1 -1.1794 15.931030379729537 17.607345507419957 2.980151944631339 0 0 0
746 0 2 0.5897 16.63523560825835 17.955587125467474 2.4179360738919433 0 0 0
747 0 2 0.5897 15.108867458651053 17.87982388259441 2.5372242496162976 0 0 0
614 0 2 0.5897 16.28760827030562 15.36536777994355 0.13708104706028762 0 0 0
188 0 2 0.5897 2.855109977679586 23.07925902660024 2.4743270116591645 0 -1 0
187 0 1 -1.1794 3.027475107758388 22.184511980190294 2.1535924368270973 0 0 0
189 0 2 0.5897 2.8962582167025506 22.236161452617708 1.197495146509863 0 0 0
694 0 1 -1.1794 0.7372769699469348 21.09736776719776 2.7619900400077135 0 0 0
695 0 2 0.5897 0.48335147077135326 20.201794847115274 2.47787242337744 0 0 0
696 0 2 0.5897 1.6223403338630231 21.360200934317056 2.379359678885559 0 0 0
266 0 2 0.5897 4.487017573310401 21.81862584801855 3.121924786813322 0 0 0
228 0 2 0.5897 4.92934354977374 19.666848716244523 2.9292237595091284 0 0 0
265 0 1 -1.1794 5.338661413988085 21.452987504629668 3.4045856133513723 0 0 0
267 0 2 0.5897 5.935420134919576 22.02384511807667 2.873321171534241 0 0 0
817 0 1 -1.1794 7.495297974053768 22.772328345578586 1.8436005644525382 0 0 0
818 0 2 0.5897 8.311543772934796 22.37527603525031 2.2412140553039857 0 0 0
498 0 2 0.5897 7.272133746074017 22.676737800032342 0.05581393567803634 0 0 0
319 0 1 -1.1794 9.378430316511226 19.085138759837328 2.062162020151147 0 0 0
389 0 2 0.5897 9.422524253257878 19.2039727334893 0.2770809134133374 0 0 0
61 0 1 -1.1794 12.118832314207816 22.76534644483222 2.426398794907411 0 0 0
397 0 1 -1.1794 9.661833956112636 21.622236810350287 2.9761956811324692 0 0 0
398 0 2 0.5897 9.540710564470036 20.755339596740058 2.586876426945163 0 0 0
399 0 2 0.5897 10.57556949533752 21.913909774996483 2.6995171267417364 0 0 0
62 0 2 0.5897 12.98909436935279 22.307110669788692 2.5888954493105913 0 0 0
425 0 2 0.5897 11.917310448940663 22.620365314667403 0.6770477264546529 0 0 0
306 0 2 0.5897 13.445868732199918 19.36419560150926 2.353630441559046 0 0 0
305 0 2 0.5897 13.763064005662617 18.918362199094616 0.8754838633919381 0 0 0
118 0 1 -1.1794 14.190309626351565 21.071618885750127 3.0852595577770248 0 0 0
120 0 2 0.5897 15.018551456843099 21.332011534107103 2.6601493551885045 0 0 0
727 0 1 -1.1794 16.254367882399656 22.57674743673796 1.7259352882184604 0 0 0
728 0 2 0.5897 16.12816515109078 22.684286608507456 0.7631997022363062 0 0 0
729 0 2 0.5897 17.07350283576624 22.079489960380492 1.8660791390924962 0 0 0
119 0 2 0.5897 14.375403188278131 21.010206451975364 4.037210941074136 0 0 0
487 0 1 -1.1794 3.0887062134980936 2.154718712772433 5.678348766373129 0 0 0
488 0 2 0.5897 2.3100563671261707 2.6952154412484646 5.855307862608992 0 0 0
489 0 2 0.5897 2.9887413963489564 1.3517210843889453 6.244985767885461 0 0 0
784 0 1 -1.1794 0.833273284393792 3.363651217295643 6.895162434479748 0 0 0
785 0 2 0.5897 0.918111532009115 3.3540094691056264 7.8607271876465825 0 0 0
83 0 2 0.5897 4.232679265260991 2.9774977441904826 6.791934784498521 0 0 0
846 0 2 0.5897 7.52491648644172 1.785019710305084 4.764234611992719 0 0 0
275 0 2 0.5897 5.590747263099344 2.931178365387709 8.667628168851223 0 0 0
82 0 1 -1.1794 5.148647757509024 3.262796666062321 6.864387580101874 0 0 0
84 0 2 0.5897 5.65156396863213 2.729776307412242 6.255759068691366 0 0 0
844 0 1 -1.1794 7.2167436545746035 1.7431217863076214 5.670130926759339 0 0 0
845 0 2 0.5897 7.591877594390555 0.9576588325140296 6.147891350027117 0 0 0
419 0 2 0.5897 8.585807413887624 3.152834997511167 6.005548914622403 0 0 0
177 0 2 0.5897 9.197079745023009 3.0457198638954757 8.302708911433596 0 0 0
418 0 1 -1.1794 9.432687357493222 3.386921611428514 6.415969164843331 0 0 0
420 0 2 0.5897 9.502264370008001 4.313801091800927 6.137762998981738 0 0 0
802 0 1 -1.1794 12.072682854913229 2.0703369406364187 5.902400275539795 0 0 0
803 0 2 0.5897 11.286326064047728 2.4596739263039655 6.174488767741036 0 0 0
804 0 2 0.5897 12.849737745028845 2.551168084884129 6.259437696290858 0 0 0
171 0 2 0.5897 12.19776777029123 0.5217174131910763 6.467354550556469 0 0 0
786 0 2 0.5897 17.84968497141768 2.935331242868403 6.745986001255148 0 0 0
660 0 2 0.5897 16.73622851485829 1.442419282774508 4.950195128375206 0 0 0
437 0 2 0.5897 14.562843995255582 3.1656349335461553 7.695110459225347 0 0 0
436 0 1 -1.1794 14.41220863990184 3.161550492800932 6.685293922277887 0 0 0
438 0 2 0.5897 15.154133060760412 2.6625680436229637 6.334635484973195 0 0 0
658 0 1 -1.1794 16.55065865651912 1.4978047703192514 5.920093396721925 0 0 0
659 0 2 0.5897 16.540755896621015 0.5690890314163047 6.2634260980903775 0 0 0
732 0 2 0.5897 14.26412962829452 4.800054273347397 5.997588822935039 0 0 0
183 0 2 0.5897 0.9455332559736669 5.119745982708531 6.444897334568894 0 0 0
10 0 1 -1.1794 3.2821297831239997 7.595898115838395 6.682988642131483 0 0 0
11 0 2 0.5897 2.557602763652812 7.034193570604181 6.410520032161841 0 0 0
12 0 2 0.5897 3.2515161223178444 8.487768536708948 6.3105188522630815 0 0 0
650 0 2 0.5897 3.1921083024053676 7.201067231413044 8.492614409321368 0 0 0
181 0 1 -1.1794 0.9823814527932594 6.016955149757656 6.130788717287011 0 0 0
687 0 2 0.5897 4.436724031053681 6.427608591664337 6.177209945318313 0 0 0
686 0 2 0.5897 5.219821146051919 5.021518263291929 6.230977625609495 0 0 0
685 0 1 -1.1794 5.156112688587011 5.890571134817414 5.799456443757495 0 0 0
145 0 1 -1.1794 7.2903108865825885 7.197193748404762 6.743613472978469 0 0 0
146 0 2 0.5897 6.493179329672851 6.664310378549873 6.508626085398894 0 0 0
147 0 2 0.5897 7.2389656171178585 7.376951794355378 7.69552064172801 0 0 0
714 0 2 0.5897 7.378458563460282 8.87368903651934 6.170463905541844 0 0 0
165 0 2 0.5897 8.726929392125559 6.576542937910472 5.79360603834535 0 0 0
163 0 1 -1.1794 9.408227444734509 6.01409273398751 5.465454584792441 0 0 0
164 0 2 0.5897 10.148097030899535 6.380060735260607 5.942717307592254 0 0 0
230 0 2 0.5897 11.972602522349574 8.768180620535665 6.254854975112086 0 0 0
391 0 1 -1.1794 11.650278351337038 6.900535150840132 6.717381923441404 0 0 0
392 0 2 0.5897 11.718306470192838 6.937409099804788 7.730706654820414 0 0 0
393 0 2 0.5897 12.405855313481934 6.465132844878771 6.391969167978687 0 0 0
731 0 2 0.5897 14.17140244720176 5.658824203713005 4.818376834553928 0 0 0
730 0 1 -1.1794 14.10654488103357 5.734397684022351 5.786435754188398 0 0 0
182 0 2 0.5897 17.991069098177064 6.461841060900221 6.37837672400634 0 0 0
525 0 2 0.5897 16.12425623479762 8.973406811491095 6.447241979273597 0 0 0
541 0 1 -1.1794 16.34288168760765 7.033999504518214 7.129991366983729 0 0 0
542 0 2 0.5897 15.61471598444848 6.530453151278364 6.6755286572603705 0 0 0
543 0 2 0.5897 16.24071820685611 6.824919294183698 8.04772479737088 0 0 0
793 0 1 -1.1794 3.1655832334828515 10.143750401641233 5.681912799711305 0 0 0
795 0 2 0.5897 3.9451918787423286 10.641396009296196 5.941882665000224 0 0 0
794 0 2 0.5897 2.3974560239983242 10.613710889834948 6.060782826015638 0 0 0
550 0 1 -1.1794 0.8050610622702392 10.974006769063426 6.653684944336281 0 0 0
551 0 2 0.5897 0.9499355048327949 10.922728207759642 7.627023746557893 0 0 0
552 0 2 0.5897 0.6968087091989101 11.92599243764119 6.391099091420919 0 0 0
655 0 1 -1.1794 0.41818821547937857 13.6379458215009 5.998752150933019 0 0 0
656 0 2 0.5897 1.2279215048718188 14.081332534625355 6.32366357807144 0 0 0
712 0 1 -1.1794 7.421928105493302 9.764865446070516 5.921530582440468 0 0 0
200 0 2 0.5897 5.034804097478985 13.820171001119276 4.489619249070172 0 0 0
713 0 2 0.5897 8.22590735343251 10.0629403390691 6.374923809369656 0 0 0
582 0 2 0.5897 5.3650837580155475 11.071628944062237 8.281846288600578 0 0 0
199 0 1 -1.1794 5.163586159015962 13.798306854242343 5.445825176486833 0 0 0
577 0 1 -1.1794 5.607539019960227 11.479303412684288 6.550132073555033 0 0 0
578 0 2 0.5897 6.345852600103907 10.931527169499317 6.267950645016055 0 0 0
579 0 2 0.5897 5.746928700911311 12.374000352749816 6.274391031115963 0 0 0
229 0 1 -1.1794 11.82258802489547 9.668963255922554 5.9313078960050785 0 0 0
807 0 2 0.5897 9.43166511441449 12.414365041556524 5.623830460303602 0 0 0
739 0 1 -1.1794 9.754460138446198 11.02479061463175 6.95569057143985 0 0 0
231 0 2 0.5897 12.688008280007248 10.096361432265182 6.051484533062731 0 0 0
740 0 2 0.5897 10.612020789861202 10.688319955719573 6.620891869656427 0 0 0
741 0 2 0.5897 9.887165308551058 11.006127943477207 7.9134930522129725 0 0 0
805 0 1 -1.1794 9.380569007747628 13.362370486287723 5.338509948044223 0 0 0
523 0 1 -1.1794 16.36932192986059 9.810093578916955 6.053587663118079 0 0 0
524 0 2 0.5897 17.292202910600473 10.079625208916534 6.3266025139284565 0 0 0
634 0 1 -1.1794 14.169832703949783 11.34229072685396 6.565902653430167 0 0 0
635 0 2 0.5897 15.024994659013522 10.857130769630615 6.352155509653429 0 0 0
636 0 2 0.5897 14.231047810738202 12.248010352060325 6.210769887758866 0 0 0
857 0 2 0.5897 13.88525719051479 11.064654722743853 8.377925949136744 0 0 0
657 0 2 0.5897 17.54093595576574 14.099530502772952 6.37201126962363 0 0 0
18 0 2 0.5897 3.8312207051670577 14.337703710364334 6.655782063482195 0 0 0
17 0 2 0.5897 3.000621672341143 14.681946194512085 7.857943749170709 0 0 0
16 0 1 -1.1794 2.9935254047817113 14.754662461536757 6.856300550047146 0 0 0
238 0 1 -1.1794 2.9227312699189225 17.085182558664762 5.685855892215545 0 0 0
239 0 2 0.5897 2.768353357443355 16.258650262567443 6.200129559029375 0 0 0
341 0 2 0.5897 1.7767418934819479 18.17753659595291 6.341620724866603 0 0 0
240 0 2 0.5897 3.8229975046854965 17.403947752854137 6.058136841627798 0 0 0
201 0 2 0.5897 5.896378058814648 14.395298283811854 5.626553959765537 0 0 0
519 0 2 0.5897 8.21278133823892 14.483072492461185 5.789105447774977 0 0 0
308 0 2 0.5897 7.6882956620524805 17.71852247222249 4.529601465139916 0 0 0
517 0 1 -1.1794 7.569240795100123 14.86644858972742 6.4307889458795335 0 0 0
307 0 1 -1.1794 7.687664339750464 17.817875496007773 5.516897219412329 0 0 0
518 0 2 0.5897 7.670178690246344 15.855399065329179 6.481991907647563 0 0 0
309 0 2 0.5897 8.467034561395026 18.39945825336043 5.732281083903662 0 0 0
378 0 2 0.5897 7.9877270853765046 14.24934945939923 8.253459579184675 0 0 0
386 0 2 0.5897 6.189929801702528 18.3303953160515 6.3200962314542375 0 0 0
102 0 2 0.5897 5.4619186991367945 18.557305695623775 8.567300556529412 0 0 0
385 0 1 -1.1794 5.352147571043664 18.587361683104795 6.743598002709725 0 0 0
726 0 2 0.5897 13.005785090544764 14.568866443754674 5.981064330463172 0 0 0
642 0 2 0.5897 10.768428556028963 14.516248089873088 6.3590933775441725 0 0 0
640 0 1 -1.1794 11.522863833590575 15.031589378480717 6.674402974563475 0 0 0
641 0 2 0.5897 11.58328834983652 14.94004509388471 7.6109315179033 0 0 0
643 0 1 -1.1794 11.766317668557386 17.28070612544031 5.152558042855813 0 0 0
644 0 2 0.5897 11.714823199141762 16.472261581598737 5.692466153561451 0 0 0
303 0 2 0.5897 10.575928390798664 18.377264262121507 5.914529081966175 0 0 0
348 0 2 0.5897 13.351862964952804 18.087554151478905 6.046344303755055 0 0 0
724 0 1 -1.1794 13.79825573630711 14.22371015610768 5.500878055998662 0 0 0
725 0 2 0.5897 14.605309328857293 14.660826543068847 5.763445786657483 0 0 0
564 0 2 0.5897 16.5252025566147 17.6394982871441 4.824872439594977 0 0 0
205 0 1 -1.1794 16.04761075838205 15.316944273726754 6.708592011099725 0 0 0
206 0 2 0.5897 16.3318791073196 16.227893842994405 6.4856428700862265 0 0 0
207 0 2 0.5897 16.09613401988082 15.3197292415027 7.691467328175716 0 0 0
562 0 1 -1.1794 16.639455717349108 17.762166720081368 5.790981392588444 0 0 0
563 0 2 0.5897 17.50116052594251 18.20892630002202 5.979247452761144 0 0 0
347 0 2 0.5897 14.895804362162831 18.303090061976768 5.965210987912129 0 0 0
346 0 1 -1.1794 14.057573369987665 18.6693169953869 6.337867760288761 0 0 0
371 0 2 0.5897 14.155612782636041 18.721937183828103 8.319793230544139 0 0 0
340 0 1 -1.1794 1.1157517080738946 18.883325790435514 6.562958416218929 0 0 0
342 0 2 0.5897 1.0783302734021796 18.913352722906573 7.541934615671095 0 0 0
413 0 2 0.5897 0.6670070100878419 21.35355278575588 4.568033415256765 0 0 0
414 0 2 0.5897 1.0465398844676939 20.506937332753083 5.817085165267901 0 0 0
700 0 1 -1.1794 3.1163329823464108 22.698980119737776 6.52088129667283 0 0 0
701 0 2 0.5897 2.907176790886533 22.722785454895032 7.474492749344385 0 0 0
702 0 2 0.5897 2.394359545423207 22.24730639250405 6.108707106703194 0 0 0
412 0 1 -1.1794 0.8349630240332295 21.42804625428507 5.587208381643472 0 0 0
248 0 2 0.5897 4.509936882127262 21.71454807141491 6.362090118706548 0 0 0
249 0 2 0.5897 5.39494777588839 21.475771911550176 5.158372438200428 0 0 0
247 0 1 -1.1794 5.377752205154047 21.33739094051333 6.099159619826185 0 0 0
387 0 2 0.5897 5.1588998059033875 19.495472791174606 6.470107827577572 0 0 0
31 0 1 -1.1794 7.811748164261587 22.623387670234145 6.559843402559064 0 0 0
32 0 2 0.5897 8.538495678894185 22.188048618855 6.103723247648255 0 0 0
33 0 2 0.5897 7.11837049560559 21.95809707331898 6.467571389425955 0 0 0
86 0 2 0.5897 7.883873671631939 22.532766348019656 8.339722849137287 0 0 0
301 0 1 -1.1794 9.928130022217863 18.943533289267968 6.411528626524079 0 0 0
734 0 2 0.5897 9.829769462670402 19.014839569212164 8.264135032204218 0 0 0
591 0 2 0.5897 10.036836220312296 21.58026183989103 4.568156176791876 0 0 0
330 0 2 0.5897 11.61773118618194 22.942217143887504 8.588014131628169 0 0 0
169 0 1 -1.1794 12.172174036766666 22.890207521246644 6.813550345166638 0 0 0
170 0 2 0.5897 12.805436710927346 22.276757016905158 6.397028857286288 0 0 0
302 0 2 0.5897 10.16837186603974 19.873538292488327 6.146502075607098 0 0 0
589 0 1 -1.1794 10.125959566693567 21.56585569024442 5.551099817266474 0 0 0
590 0 2 0.5897 10.901606318149117 22.091389324337158 5.907171250778007 0 0 0
534 0 2 0.5897 14.413803347358789 20.311598148541705 5.96307012632225 0 0 0
353 0 2 0.5897 17.29333956106114 21.949825279715668 6.716333022756194 0 0 0
352 0 1 -1.1794 16.484890984823707 22.312068655530382 7.05673628850547 0 0 0
354 0 2 0.5897 16.629779126085573 22.487257691954106 7.99855365280331 0 0 0
532 0 1 -1.1794 14.33947673969943 21.27513255330844 5.739756826257388 0 0 0
533 0 2 0.5897 14.887454906285656 21.74971158943172 6.395842986775271 0 0 0
34 0 1 -1.1794 0.813269194017925 3.5482136547710996 9.711141539622727 0 0 0
36 0 2 0.5897 1.5976919250407149 3.054389503083066 9.977306263183111 0 0 0
167 0 2 0.5897 3.11991385258994 2.148108371014394 12.020803770226188 0 0 0
673 0 1 -1.1794 3.0491956812758003 1.758799474871717 10.364680720583232 0 0 0
674 0 2 0.5897 3.8265447888759847 2.030211580210837 9.849796507446259 0 0 0
675 0 2 0.5897 2.6915408408678485 0.8385954731906392 10.045243620208355 0 0 0
35 0 2 0.5897 0.8531780384287854 4.454050846749779 10.092431967998927 0 0 0
166 0 1 -1.1794 3.189294545937232 2.279887783835371 13.031976256569619 0 0 0
274 0 1 -1.1794 5.277354845162365 2.912965601889119 9.60317767441547 0 0 0
276 0 2 0.5897 5.823288869821009 2.2390414993558867 10.036871558106252 0 0 0
355 0 1 -1.1794 7.5310560049482 1.4362187420021995 10.642622061739948 0 0 0
356 0 2 0.5897 7.5980979002233555 0.5194351816387951 10.35131593627008 0 0 0
357 0 2 0.5897 7.62080297304329 1.433482360427792 11.580499896134306 0 0 0
176 0 2 0.5897 8.687874536207461 2.525705021394735 9.73303751454578 0 0 0
678 0 2 0.5897 5.512213922081128 4.698491221822531 9.865582273189762 0 0 0
175 0 1 -1.1794 9.464560839213455 2.9275571235071673 9.264814961140422 0 0 0
514 0 1 -1.1794 11.913747660059217 2.1974646178263306 10.276288414010201 0 0 0
515 0 2 0.5897 11.878664460316745 2.2066034741329292 11.230411582205821 0 0 0
516 0 2 0.5897 11.078809946656394 2.588392533889127 9.997932685118123 0 0 0
757 0 1 -1.1794 11.821385810016384 1.7974141693806458 12.968613040355212 0 0 0
329 0 2 0.5897 11.786302990388458 0.4570208637595403 9.92245449024051 0 1 0
705 0 2 0.5897 9.608631080227545 4.494451240641881 10.218180543961742 0 0 0
759 0 2 0.5897 11.135456009088681 2.4470305702768225 13.214591317876396 0 0 0
849 0 2 0.5897 13.594841080980665 2.604700051365428 9.610274312891155 0 0 0
847 0 1 -1.1794 14.328147172973749 3.198186745408603 9.49450314366302 0 0 0
652 0 1 -1.1794 16.439315555192174 2.049576220763065 10.400263229887665 0 0 0
653 0 2 0.5897 16.487243288974923 1.7895518100929886 11.366922920011056 0 0 0
654 0 2 0.5897 17.261564684792837 2.5743067885808113 10.333883169188962 0 0 0
848 0 2 0.5897 15.104449092275276 2.7565897365805156 9.986798304905765 0 0 0
439 0 1 -1.1794 16.41466806422575 1.9366961801161189 13.120886615797009 0 0 0
545 0 2 0.5897 13.949011577580624 4.77526152981613 9.80839391138874 0 0 0
131 0 2 0.5897 16.41453774751905 0.2796334443268562 9.825456428801596 0 0 0
441 0 2 0.5897 15.59069047842512 2.464602861969409 13.178733494718156 0 0 0
649 0 1 -1.1794 3.117956051858492 7.016273452407996 9.44112119371183 0 0 0
651 0 2 0.5897 3.945638945497989 6.485408498879662 9.638260518094736 0 0 0
112 0 1 -1.1794 1.0173752531438351 6.156356402081102 10.74062603163066 0 0 0
113 0 2 0.5897 1.0635434234782035 5.93578211656542 11.685888651825517 0 0 0
114 0 2 0.5897 1.8774809969710249 6.501137079683763 10.4057603326648 0 0 0
257 0 2 0.5897 3.151444051420542 8.95138224838148 9.86776736693808 0 0 0
762 0 2 0.5897 5.14017331572953 4.899575898525186 13.22615672242717 0 0 0
761 0 2 0.5897 5.211958049713988 5.783515693545729 12.001847948049985 0 0 0
526 0 1 -1.1794 7.573778181049386 7.360171929767285 9.493788470384269 0 0 0
527 0 2 0.5897 7.652055692718252 8.204842766213908 9.953451606250429 0 0 0
676 0 1 -1.1794 5.589321340755376 5.620306307988635 10.13479913362719 0 0 0
677 0 2 0.5897 6.292172023351777 6.050101632896425 9.590588186435427 0 0 0
528 0 2 0.5897 8.373437872829653 6.889152181599483 9.644114681913177 0 0 0
760 0 1 -1.1794 5.016738288569081 5.828080083230512 12.92463910508098 0 0 0
313 0 1 -1.1794 11.580429661236392 6.99746453371419 9.465778777438661 0 0 0
314 0 2 0.5897 10.824076648783818 6.4768363097779185 9.742492107164926 0 0 0
703 0 1 -1.1794 9.589849871059387 5.439985964102589 10.49144414485037 0 0 0
704 0 2 0.5897 9.559585799454876 5.52161557941964 11.454074403320812 0 0 0
444 0 2 0.5897 11.999093246345295 8.547096908664463 10.11933134520763 0 0 0
315 0 2 0.5897 12.3413625858457 6.422524608754696 9.466923605382698 0 0 0
816 0 2 0.5897 13.546151973223273 5.730233544626462 11.942514031326672 0 0 0
850 0 1 -1.1794 9.657434314742071 6.07191812173387 13.134193161280685 0 0 0
815 0 2 0.5897 12.803445203779285 6.11575381005394 13.243756253749757 0 0 0
544 0 1 -1.1794 13.955144710230543 5.731418615177814 10.133438524326452 0 0 0
546 0 2 0.5897 14.842543259073528 6.144370529449963 10.170850726067622 0 0 0
622 0 1 -1.1794 16.33137991051923 6.810134153163574 9.843090683385016 0 0 0
623 0 2 0.5897 17.103304390121323 6.521647948877843 10.346871262534703 0 0 0
624 0 2 0.5897 16.304706992611443 7.7870814995824436 9.917129820377072 0 0 0
814 0 1 -1.1794 13.61172046452044 5.634093444812503 12.906243968767544 0 0 0
194 0 2 0.5897 16.006122794895383 8.565310516463066 12.800268169054807 0 0 0
198 0 2 0.5897 15.641787198842417 6.350412728588054 13.169707077818272 0 0 0
796 0 1 -1.1794 2.6533107119338504 9.941184654528943 12.897744441880244 0 0 0
797 0 2 0.5897 2.876864891409665 10.08978698569347 11.975786603144018 0 0 0
256 0 1 -1.1794 3.193575314175531 9.875647574407697 10.226095006592661 0 0 0
13 0 1 -1.1794 1.0144080165592526 11.287713980763034 9.289377563586992 0 0 0
15 0 2 0.5897 1.7331334082920637 10.703741232531467 9.62937460608557 0 0 0
14 0 2 0.5897 0.9574225340166809 12.086847348905778 9.856621685702471 0 0 0
258 0 2 0.5897 4.0803500278002325 10.137970105866868 10.004613257434652 0 0 0
766 0 1 -1.1794 0.6502260554301034 13.616183809103193 10.767051773537364 0 0 0
812 0 2 0.5897 3.8136777805752913 14.141242506647611 9.749964129401684 0 0 0
798 0 2 0.5897 1.7072687337955215 10.14190604925205 13.043872633273963 0 0 0
767 0 2 0.5897 0.6076913336684928 13.598268563941936 11.7207273703545 0 0 0
813 0 2 0.5897 2.273242095516171 14.099139699199666 9.995952543116012 0 0 0