LAMMPS (29 Sep 2021 - Update 2)
  using 1 OpenMP thread(s) per MPI task
plugin load libdeepmd_lmp.so
Loading plugin: deepmd pair style v2.0 by Han Wang
Loading plugin: compute deeptensor/atom v2.0 by Han Wang
Loading plugin: fix dplr v2.0 by Han Wang
echo both

include		in.partitions
variable        pid world 0
include		in.temp
variable        temperature equal 255
variable        tempDamp equal 0.100
include		in.pressure
variable        pressure equal 1973.846
variable        pressureDamp equal 1.0 # This is 1 ps
include		in.seed
variable        seed world 745823

units           metal
atom_style	full
include		in.box
read_data       water.data
Reading data file ...
  orthogonal box = (0.0000000 0.0000000 0.0000000) to (18.207573 23.629177 22.213196)
  1 by 1 by 1 MPI processor grid
  reading atoms ...
  864 atoms
  reading velocities ...
  864 velocities
Finding 1-2 1-3 1-4 neighbors ...
  special bond factors lj:    0        0        0       
  special bond factors coul:  0        0        0       
     0 = max # of 1-2 neighbors
     0 = max # of 1-3 neighbors
     0 = max # of 1-4 neighbors
     1 = max # of special neighbors
  special bonds CPU = 0.001 seconds
  read_data CPU = 0.047 seconds
include 	in.setup
variable	out_freq equal 500
variable	out_freq2 equal 500

timestep        0.0005

neigh_modify    delay 7 every 1

include         in.deepmd
# This is deepMD model

# create groups ###
#group ox type 2
#group hy type 1

mass 2 15.999
mass 1 1.008

pair_style      deepmd ../graph.pb
pair_coeff      * *

bond_style      none
angle_style     none
dihedral_style  none
improper_style  none
neigh_modify exclude none


neighbor        2.0 bin
neigh_modify    every 10 delay 0 check no

thermo          ${out_freq}
thermo          500
thermo_style 	custom step temp pe etotal epair emol press lx ly lz xy xz yz vol pxx pyy pzz pxy pxz pyz cella cellb cellc cellalpha cellbeta cellgamma


restart 	${out_freq} restart.lmp.${pid} restart2.lmp.${pid}
restart 	500 restart.lmp.${pid} restart2.lmp.${pid}
restart 	500 restart.lmp.0 restart2.lmp.${pid}
restart 	500 restart.lmp.0 restart2.lmp.0


include         in.dump
dump            myDump all atom ${out_freq2} dump.water.${pid}
dump            myDump all atom 500 dump.water.${pid}
dump            myDump all atom 500 dump.water.0
dump            myDump2 all dcd ${out_freq2} dump.dcd
dump            myDump2 all dcd 500 dump.dcd
dump_modify     myDump append yes
dump_modify     myDump2 append yes


timer           timeout 23:50:00 every 1000
New timer settings: style=normal  mode=nosync  timeout=23:50:00

fix             2 all nph aniso ${pressure} ${pressure} ${pressureDamp}
fix             2 all nph aniso 1973.846 ${pressure} ${pressureDamp}
fix             2 all nph aniso 1973.846 1973.846 ${pressureDamp}
fix             2 all nph aniso 1973.846 1973.846 1
fix             3 all temp/csvr ${temperature} ${temperature} ${tempDamp} ${seed}
fix             3 all temp/csvr 255 ${temperature} ${tempDamp} ${seed}
fix             3 all temp/csvr 255 255 ${tempDamp} ${seed}
fix             3 all temp/csvr 255 255 0.1 ${seed}
fix             3 all temp/csvr 255 255 0.1 745823
velocity 	all create ${temperature} ${seed} dist gaussian
velocity 	all create 255 ${seed} dist gaussian
velocity 	all create 255 745823 dist gaussian

run             400000

CITE-CITE-CITE-CITE-CITE-CITE-CITE-CITE-CITE-CITE-CITE-CITE-CITE

Your simulation uses code contributions which should be cited:

- USER-DEEPMD package:

@article{Wang_ComputPhysCommun_2018_v228_p178,
  author = {Wang, Han and Zhang, Linfeng and Han, Jiequn and E, Weinan},
  doi = {10.1016/j.cpc.2018.03.016},
  url = {https://doi.org/10.1016/j.cpc.2018.03.016},
  year = 2018,
  month = {jul},
  publisher = {Elsevier {BV}},
  volume = 228,
  journal = {Comput. Phys. Commun.},
  title = {{DeePMD-kit: A deep learning package for many-body potential energy representation and molecular dynamics}},
  pages = {178--184}
}

CITE-CITE-CITE-CITE-CITE-CITE-CITE-CITE-CITE-CITE-CITE-CITE-CITE

Neighbor list info ...
  update every 10 steps, delay 0 steps, check no
  max neighbors/atom: 2000, page size: 100000
  master list distance cutoff = 8
  ghost atom cutoff = 8
  binsize = 4, bins = 5 6 6
  1 neighbor lists, perpetual/occasional/extra = 1 0 0
  (1) pair deepmd, perpetual
      attributes: full, newton on
      pair build: full/bin
      stencil: full/bin/3d
      bin: standard
Per MPI rank memory allocation (min/avg/max) = 7.189 | 7.189 | 7.189 Mbytes
Step Temp PotEng TotEng E_pair E_mol Press Lx Ly Lz Xy Xz Yz Volume Pxx Pyy Pzz Pxy Pxz Pyz Cella Cellb Cellc CellAlpha CellBeta CellGamma 
       0          255   -169.12462   -140.67899   -169.12462            0    -24437.21    18.207573    23.629177    22.213196            0            0            0    9556.7825   -24784.532   -23897.221   -24629.876  -0.50236936    311.66599   -221.75336    18.207573    23.629177    22.213196           90           90           90 
     500    240.78407   -150.18391   -123.32409   -150.18391            0    2942.5724     17.82694    23.093083     21.71806            0            0            0    8940.8695   -383.88166    4438.1207    4773.4781   -999.59888   -100.64717   -259.10039     17.82694    23.093083     21.71806           90           90           90 
    1000    244.52749    -145.6381   -118.36069    -145.6381            0   -30.565255    17.703576    22.968339    21.715878            0            0            0    8830.1482    38.129777   -2804.5107    2674.6852    762.91693    693.28808   -527.30743    17.703576    22.968339    21.715878           90           90           90 
    1500    249.52224    -147.7252   -119.89062    -147.7252            0    1906.5009    17.894818    23.235043    22.061887            0            0            0    9173.0429    5338.8104    1563.5653    -1182.873   -395.34226    1046.9495   -199.57207    17.894818    23.235043    22.061887           90           90           90 
    2000    267.18888   -147.07641   -117.27109   -147.07641            0    1469.9627    17.945446    23.226258    21.999123            0            0            0    9169.3569    3736.4781    1140.3882   -466.97817   -1807.4051    92.873834   -613.52995    17.945446    23.226258    21.999123           90           90           90 
    2500    262.54588   -146.29159   -117.00421   -146.29159            0     313.1327    17.973309    23.237885    21.850741            0            0            0    9126.2173    2246.3424    525.51582   -1832.4601    472.96995    550.55952   -349.50167    17.973309    23.237885    21.850741           90           90           90 
    3000    255.51642   -144.37563   -115.87239   -144.37563            0     3230.317    17.778822    23.159304    21.857033            0            0            0    8999.5273     6662.315    -159.3213    3187.9573   -1567.0035   -1132.0681    225.55537    17.778822    23.159304    21.857033           90           90           90 
    3500    260.18583   -146.90817   -117.88405   -146.90817            0    4581.0325    17.803357    23.270669    22.070379            0            0            0    9143.6707    3538.7379    7345.9829    2858.3767   -339.84138      86.2134   -1284.2932    17.803357    23.270669    22.070379           90           90           90 
    4000    256.72739   -147.59764   -118.95932   -147.59764            0   -2535.4204    18.012485    23.389408    22.206593            0            0            0    9355.6679   -9.0271615   -3750.0379   -3847.1962   -2947.7221   -1174.7035   -943.76247    18.012485    23.389408    22.206593           90           90           90 
    4500    241.05659   -145.35922   -118.46899   -145.35922            0    1592.9247    17.880756    23.077684    21.790128            0            0            0    8991.6184    1109.3994     613.1298    3056.2448    -2270.256    1829.6669    2706.6804    17.880756    23.077684    21.790128           90           90           90 
    5000    251.52666   -145.53409   -117.47591   -145.53409            0    6343.4286    17.907553    23.132811    21.882568            0            0            0    9064.8983    4850.5816    4696.0886    9483.6156    157.46468    528.42954    1112.3361    17.907553    23.132811    21.882568           90           90           90 
    5500    245.73367    -146.3964   -118.98444    -146.3964            0   -76.916224    17.977236    23.210348    22.107045            0            0            0    9224.3394    2144.8971    888.64501   -3264.2908    3829.3535   -576.74763     1651.599    17.977236    23.210348    22.107045           90           90           90 
    6000    253.06732   -146.41597   -118.18593   -146.41597            0     5207.466       17.948    23.168892      21.9559            0            0            0    9130.0375    6596.8234    3186.3104    5839.2643   -1228.8016   -93.404631    1008.0553       17.948    23.168892      21.9559           90           90           90 
    6500    246.91577   -146.69366   -119.14984   -146.69366            0   -173.13792    17.908228     23.21648    21.876662            0            0            0    9095.5726    560.86123    -646.0387   -434.23629   -2893.8806    -340.2785    718.76992    17.908228     23.21648    21.876662           90           90           90 
    7000    258.13195      -145.14   -116.34499      -145.14            0    1232.9967    17.787886    23.295358    21.927973            0            0            0    9086.4075    1239.6772    515.70379    1943.6093   -249.78719    1021.7712    793.94775    17.787886    23.295358    21.927973           90           90           90 
    7500     255.2123   -145.38775   -116.91843   -145.38775            0    1914.4107     17.91539    23.482696    22.116159            0            0            0    9304.3051    1441.2846    1758.9079    2543.0395    214.05866   -860.79488    844.02969     17.91539    23.482696    22.116159           90           90           90 
    8000    256.25484   -146.68909   -118.10348   -146.68909            0    651.61831    17.917129    23.190579    21.961642            0            0            0    9125.2514    792.83573   -76.211858    1238.2311    831.55499   -2723.5715     65.91778    17.917129    23.190579    21.961642           90           90           90 
    8500    256.75979    -146.8934   -118.25146    -146.8934            0    3056.3202    17.957117    23.045076    21.901548            0            0            0    9063.3672    2880.5355    1737.2943    4551.1308   -95.965695    -1511.379   -1016.8856    17.957117    23.045076    21.901548           90           90           90 
    9000     270.0381    -146.1918   -116.06864    -146.1918            0    1990.5922    18.016604    23.120805    22.022035            0            0            0    9173.4637    1916.8652    5704.3326   -1649.4211    667.59168   -1097.3896   -428.87165    18.016604    23.120805    22.022035           90           90           90 
    9500    265.03676   -146.03336   -116.46811   -146.03336            0    276.62535    17.970208    23.189926    22.019562            0            0            0    9176.1638    2415.4716    2762.1513   -4347.7468    775.50824   -826.05452    1477.1776    17.970208    23.189926    22.019562           90           90           90 
   10000    258.45639   -144.94809   -116.11689   -144.94809            0   -59.093159    17.883448    23.386811    21.942948            0            0            0    9177.3487   -661.79046    2201.6728   -1717.1618    1047.9104    280.01387    89.309893    17.883448    23.386811    21.942948           90           90           90 
   10500    267.97208   -144.00328   -114.11059   -144.00328            0    4262.6866    17.700296    23.555496    21.928346            0            0            0     9142.788    3242.1967    4281.5843    5264.2788   -1904.3271   -362.33401    992.82522    17.700296    23.555496    21.928346           90           90           90 
   11000    257.32881   -145.09995   -116.39453   -145.09995            0    551.72146    17.724539    23.504787    22.098856            0            0            0    9206.6378    3247.5437    855.93445   -2448.3138    623.56373   -2718.6177   -890.56822    17.724539    23.504787    22.098856           90           90           90 
   11500     257.6834   -146.27009   -117.52512   -146.27009            0   -363.65611    18.014388    23.040855    22.116336            0            0            0    9179.7587   -346.86766    1163.0507   -1907.1513    1562.4577   -164.40221   -332.40394    18.014388    23.040855    22.116336           90           90           90 
   12000     258.4208   -145.22621   -116.39898   -145.22621            0    4881.4375    18.210351    22.800454    21.932772            0            0            0    9106.5807    5152.2569    4383.6747    5108.3809   -1739.4462    282.50986    917.02459    18.210351    22.800454    21.932772           90           90           90 
   12500     255.2601   -144.42626   -115.95162   -144.42626            0   -131.07708    18.140059     23.12212    21.924483            0            0            0    9195.9309   -1549.6908     1736.596   -580.13649   -545.05597    268.60064   -1696.3356    18.140059     23.12212    21.924483           90           90           90 
   13000    270.67095   -145.70927   -115.51551   -145.70927            0    538.23847    17.841106    23.336612     21.97004            0            0            0    9147.2477    1598.3914    756.49419   -740.17014   -1801.3422   -1195.8895    1023.6506    17.841106    23.336612     21.97004           90           90           90 
   13500    256.09965   -146.69404   -118.12574   -146.69404            0    2044.6778    17.792465    23.358299    22.092529            0            0            0    9181.6933    2311.5623    2954.0524    868.41877    1367.7935   -1295.0227   -904.22256    17.792465    23.358299    22.092529           90           90           90 
   14000    249.97197   -146.29874   -118.41399   -146.29874            0    1774.1125    17.891194     23.32279    22.036964            0            0            0      9195.42    2439.2233     1855.104    1028.0101   -453.94293    472.15409   -795.26909    17.891194     23.32279    22.036964           90           90           90 
   14500    251.46234   -146.78565   -118.73464   -146.78565            0    2339.1456    17.940999    23.212656    21.871096            0            0            0    9108.3983    5583.1394    2735.5035   -1301.2061   -2133.2798    780.72409    1074.1205    17.940999    23.212656    21.871096           90           90           90 
   15000    254.47933   -145.69732   -117.30977   -145.69732            0    2894.8405    18.068088    23.235837     21.95885            0            0            0    9218.9214     1337.933    4283.2363    3063.3523   -2292.4651   -550.16602    613.53142    18.068088    23.235837     21.95885           90           90           90 
   15500    259.51749   -146.19198   -117.24241   -146.19198            0    1716.1353    17.947292    23.173893    22.030984            0            0            0    9162.8764    1430.1965     3745.517   -27.307785   -522.07637    102.68446    1468.2483    17.947292    23.173893    22.030984           90           90           90 
   16000     250.0513   -145.80185   -117.90826   -145.80185            0    281.43425    17.795935     23.26599    22.058427            0            0            0    9133.0723    2272.0798    870.39787   -2298.1749   -3313.4946   -885.81062    490.81151    17.795935     23.26599    22.058427           90           90           90 
   16500    249.85399   -145.02249   -117.15091   -145.02249            0    711.54576    17.873672    23.476452    21.988461            0            0            0     9226.587    152.67181    1428.8564    553.10907   -32.160833    784.76574     629.2384    17.873672    23.476452    21.988461           90           90           90 
   17000    261.85593   -146.52749   -117.31707   -146.52749            0    3036.8554    17.908318    23.290282    21.760484            0            0            0    9076.0754    1811.7246    2896.6876    4402.1539   -988.03547   -3582.7501   -1584.7051    17.908318    23.290282    21.760484           90           90           90 
   17500    257.37937   -146.24748   -117.53642   -146.24748            0    2761.2957    18.132836     23.06301    22.035184            0            0            0    9215.0651    2287.8113    4758.2397    1237.8361    522.49354   -438.33525   -1283.9929    18.132836     23.06301    22.035184           90           90           90 
   18000    247.88038    -146.7599   -119.10847    -146.7599            0    1562.7629    18.097939    22.973718    22.238802            0            0            0    9246.3812    364.36485     5988.292   -1664.3682    322.82913   -1601.4878    1161.7778    18.097939    22.973718    22.238802           90           90           90 
   18500    253.21383      -146.05   -117.80362      -146.05            0    1262.6343    17.827697    23.122241    21.954424            0            0            0    9049.9714    50.365653    2016.9119    1720.6253    892.36124    920.59093    46.892516    17.827697    23.122241    21.954424           90           90           90 
   19000    250.72972   -145.73714   -117.76787   -145.73714            0   -723.36159    17.820936    23.508773    21.919322            0            0            0    9183.0635    789.34239     -1363.59   -1595.8372    771.23227   -2.8502338   -1410.8608    17.820936    23.508773    21.919322           90           90           90 
   19500    256.39515   -146.14183   -117.54057   -146.14183            0    3742.8632    17.875961    23.515868    21.932998            0            0            0    9219.9464    4585.4471    2437.8091    4205.3333   -908.29864   -351.35433    429.90643    17.875961    23.515868    21.932998           90           90           90 
   20000    246.37451   -146.51146   -119.02801   -146.51146            0    1107.8175    17.908824    23.211317    22.019547            0            0            0    9153.2482    4676.9465    306.62972   -1660.1237   -526.25775   -509.13636    557.06616    17.908824    23.211317    22.019547           90           90           90 
   20500    247.88748   -146.40518   -118.75295   -146.40518            0    2305.0481    17.934883    23.013599    22.050237            0            0            0    9101.1517    1289.8887    4257.4939    1367.7615   -58.507909    177.20931   -767.29148    17.934883    23.013599    22.050237           90           90           90 
   21000    240.71258   -146.03803   -119.18618   -146.03803            0    447.10321    18.056613    23.220237    22.067285            0            0            0    9252.3455    1733.6324   -1006.6088    614.28605    179.79157    1209.8615    54.073415    18.056613    23.220237    22.067285           90           90           90 
   21500     241.1387   -146.90305   -120.00366   -146.90305            0     3067.315    17.920545    23.257101    21.891524            0            0            0    9123.9478   -451.87084    4011.1441    5642.6717    548.70802     1234.776    1742.1072    17.920545    23.257101    21.891524           90           90           90 
   22000     255.1035   -146.84099   -118.38381   -146.84099            0    1066.9132    17.900233    23.378634    21.995574            0            0            0    9204.7735   -658.84544     2672.958    1186.6269    452.34995   -247.35469   -836.57356    17.900233    23.378634    21.995574           90           90           90 
   22500    252.83399   -146.49486   -118.29085   -146.49486            0    1098.0793    17.872134    23.311673    22.034444            0            0            0    9180.1961    426.10782    2126.9034    741.22676    1164.8563    706.34937   -186.49394    17.872134    23.311673    22.034444           90           90           90 
   23000    245.48716   -146.55946     -119.175   -146.55946            0    1945.0182    17.938271    23.260921    22.050019            0            0            0    9200.6064    1218.9471    3310.4096     1305.698   -12.661092    425.64068   -79.580587    17.938271    23.260921    22.050019           90           90           90 
   23500    262.33099   -146.91644   -117.65302   -146.91644            0    2842.5912    17.970982    23.245198    21.994032            0            0            0    9187.7659    2837.6761   -746.54496    6436.6423    621.07441    2709.1828   -960.22662    17.970982    23.245198    21.994032           90           90           90 
   24000     262.9339   -144.75216   -115.42149   -144.75216            0    1688.8115    17.917642    23.139765    21.938247            0            0            0    9095.8174    3204.6693    2239.6965   -377.93133   -4462.5345   -383.88384    349.21459    17.917642    23.139765    21.938247           90           90           90 
   24500    254.98274   -145.57072   -117.12701   -145.57072            0   -174.81024    18.018703    23.287926    22.077504            0            0            0    9264.1229   -1174.7116   -1214.5136    1864.7945    1665.2316    991.72669    1511.1124    18.018703    23.287926    22.077504           90           90           90 
   25000    258.48484   -144.86991   -116.03553   -144.86991            0    3772.1173    17.931374    23.335633    22.004604            0            0            0    9207.6056    5654.1074      2661.83    3000.4146    2901.5746   -1096.7117     411.6568    17.931374    23.335633    22.004604           90           90           90 
   25500    259.67527   -144.77354   -115.80637   -144.77354            0   -755.01511    17.818603    23.262516    21.964962            0            0            0    9104.5984   -1999.2054    58.093307    -323.9333   -3546.6212   -12.736632   -177.83945    17.818603    23.262516    21.964962           90           90           90 
   26000     266.7653   -145.59181   -115.83374   -145.59181            0    3585.3729    17.921301    23.350523    22.109373            0            0            0     9252.148    3798.6448    4611.1008     2346.373    1362.9197    1463.1194   -2150.3611    17.921301    23.350523    22.109373           90           90           90 
   26500    248.33407    -145.1233   -117.42126    -145.1233            0      2850.49     17.99179     23.26786     22.03918            0            0            0    9226.2715    3318.8788     248.2135    4984.3778    1220.0906    428.74393   -973.30168     17.99179     23.26786     22.03918           90           90           90 
   27000    252.84155   -144.41366   -116.20881   -144.41366            0   -348.32198    18.006307    23.158868     21.92875            0            0            0    9144.4136   -3455.5391   -1017.2691    3427.8422    861.70116    1725.7446    2071.0643    18.006307    23.158868     21.92875           90           90           90 
   27500    251.34318   -145.37747   -117.33976   -145.37747            0    2899.8332    18.096261     23.27002    22.050455            0            0            0    9285.4548    2057.3715    3350.4723    3291.6557    1043.9887    341.56653   -829.78175    18.096261     23.27002    22.050455           90           90           90 
   28000      246.076   -145.36403   -117.91389   -145.36403            0    2071.8727    17.825996    23.138081    21.955421            0            0            0    9055.7185    4381.3419    230.27851    1603.9979   -437.41925   -423.05858    776.53655    17.825996    23.138081    21.955421           90           90           90 
   28500     260.6681   -146.18549   -117.10757   -146.18549            0    818.50595    17.883659    23.484564    22.138018            0            0            0    9297.7446    317.73074    737.86909     1399.918    6.5504478    -1844.015   -2312.6379    17.883659    23.484564    22.138018           90           90           90 
   29000    255.55474   -146.11723   -117.60971   -146.11723            0    2374.8085    17.908213    23.443688    21.982139            0            0            0    9228.8615    4085.2247    1925.1538    1114.0471    871.25433    857.01073   -880.02078    17.908213    23.443688    21.982139           90           90           90 
   29500    267.06885   -145.98983   -116.19789   -145.98983            0    4990.9077    17.945885    23.157281    21.851358            0            0            0    9080.9413    3406.2481     7453.968    4112.5071   -131.98401   -1530.7898    907.74981    17.945885    23.157281    21.851358           90           90           90 
   30000    272.81925   -144.19807   -113.76467   -144.19807            0    692.26181    18.099487    23.237462    22.099526            0            0            0    9294.7542    1420.5829    -1497.745    2153.9475   -1949.5956    1783.4699    1649.7505    18.099487    23.237462    22.099526           90           90           90 
   30500    253.70783   -144.36685   -116.06536   -144.36685            0    3488.6893    18.001985    23.206219    22.060808            0            0            0    9216.0788    5130.3491    2445.6277    2890.0911    397.10473    333.55808    51.039332    18.001985    23.206219    22.060808           90           90           90 
   31000    267.17605   -145.90426   -116.10037   -145.90426            0    4057.0425    17.900386    23.335534     21.98025            0            0            0    9181.4816    4477.8198    3873.7147     3819.593    663.11763    249.45293    200.39749    17.900386    23.335534     21.98025           90           90           90 
   31500     258.4298   -145.35547   -116.52724   -145.35547            0     2043.093    17.814535    23.367471    21.900956            0            0            0    9116.9436    1880.5967    624.82888    3623.8535    1992.7086    335.27609   -390.59717    17.814535    23.367471    21.900956           90           90           90 
   32000    259.55307   -146.13958   -117.18605   -146.13958            0    783.15061    17.916899    23.429822    22.082367            0            0            0    9269.9514    237.61799   -1649.3929    3761.2268    1110.2278   -400.97545   -1233.4525    17.916899    23.429822    22.082367           90           90           90 
   32500     256.5458   -145.58799   -116.96992   -145.58799            0    4333.4111    17.970537      23.1613    22.083801            0            0            0    9191.7417    3309.8191    4246.7448    5443.6693   -1111.2557    42.171321    755.13966    17.970537      23.1613    22.083801           90           90           90 
   33000    253.02591   -145.64537   -117.41994   -145.64537            0    1464.8827    18.074345    23.009492    22.114466            0            0            0    9196.9969    1586.0572    3025.8292   -217.23812   -53.258766   -2497.5733    350.83656    18.074345    23.009492    22.114466           90           90           90 
   33500    247.47051   -144.58403   -116.97832   -144.58403            0    2242.4295    18.125327    23.193553     21.99599            0            0            0    9246.9105    3600.5422    2555.9144     570.8318   -512.68446    1498.8045    908.15556    18.125327    23.193553     21.99599           90           90           90 
   34000    253.40696   -147.32051   -119.05259   -147.32051            0    5155.2803    17.886343    23.338581    21.783095            0            0            0     9093.176    3404.7148    5313.4383    6747.6877    620.58987   -617.50225   -1659.0877    17.886343    23.338581    21.783095           90           90           90 
   34500    242.99113   -147.05409   -119.94806   -147.05409            0   -2238.0131    17.885543    23.623594    22.133162            0            0            0    9351.7212   -576.51657   -4097.8835   -2039.6393   -1632.5815   -62.099464   -183.12934    17.885543    23.623594    22.133162           90           90           90 
   35000    249.09689   -147.88175   -120.09461   -147.88175            0    3147.1106    17.764521    23.296124    22.028546            0            0            0    9116.3923    4758.0456     4232.281    451.00534    241.80642   -434.80572    784.31334    17.764521    23.296124    22.028546           90           90           90 
   35500     243.8262   -145.94387   -118.74469   -145.94387            0    1530.0497    17.942329    23.175032    22.005745            0            0            0     9150.298    1731.3258    4995.2464    -2136.423    1616.3637    1281.2857    1415.4361    17.942329    23.175032    22.005745           90           90           90 
   36000     242.0817   -145.75903   -118.75445   -145.75903            0    633.15781    18.113544    23.216632    22.014464            0            0            0     9257.863   -2137.3708    4849.9396    -813.0954   -488.50711     828.8008    1518.0992    18.113544    23.216632    22.014464           90           90           90 
   36500    256.44994   -146.32219   -117.71481   -146.32219            0    2763.7113    18.054545    23.242136    21.991286            0            0            0    9228.1193    2980.5717    1244.0293     4066.533    112.28554   -1266.1403    428.86114    18.054545    23.242136    21.991286           90           90           90 
   37000    249.14238   -145.34295   -117.55074   -145.34295            0    2013.2305    17.862693    23.256303    22.057425            0            0            0    9163.1002    -111.2363    3836.8502    2314.0776    123.34036     56.21848    797.52665    17.862693    23.256303    22.057425           90           90           90 
   37500    246.29893   -145.32636   -117.85134   -145.32636            0    1835.2626    17.809167     23.35783    22.087472            0            0            0    9188.0236    3958.3827   -330.16412    1877.5691   -593.75151   -929.33757   -1555.1779    17.809167     23.35783    22.087472           90           90           90 
   38000    255.07372   -145.13286     -116.679   -145.13286            0    1479.6358    17.988833    23.428732    21.983131            0            0            0    9264.9127    2658.3798    1660.5995    119.92816    361.35384    -248.8653    219.94595    17.988833    23.428732    21.983131           90           90           90 
   38500    260.83781   -146.70929   -117.61244   -146.70929            0   -1918.5641    18.115543     23.21851    21.856897            0            0            0    9193.3591   -2387.3721   -290.44285   -3077.8773   -2697.9962    631.01022   -780.00737    18.115543     23.21851    21.856897           90           90           90 
   39000    248.42562   -145.64721   -117.93496   -145.64721            0    2107.8619    18.080912    23.040871    21.975565            0            0            0    9155.0193    4428.2118    753.63962    1141.7343    302.84585    177.44781    -724.8622    18.080912    23.040871    21.975565           90           90           90 
   39500    257.18804   -145.99371     -117.304   -145.99371            0    3101.0037    17.944392    23.118119    22.180654            0            0            0    9201.4358    2762.6555    5837.0016    703.35405   -1462.0835    972.21493    1117.7803    17.944392    23.118119    22.180654           90           90           90 
   40000    254.97796   -146.41836   -117.97519   -146.41836            0   -17.538349    17.846095    23.412401    22.166021            0            0            0    9261.4055    1925.8212   -370.77024    -1607.666    1148.5081    243.14989    1106.6547    17.846095    23.412401    22.166021           90           90           90 
   40500    252.83318   -147.24232    -119.0384   -147.24232            0    1318.2498    17.833618    23.526945    21.934042            0            0            0    9202.8784     1713.216    3528.5638   -1287.0305    1025.1609    584.35564    154.39108    17.833618    23.526945    21.934042           90           90           90 
   41000    252.21169   -145.44618   -117.31159   -145.44618            0    2087.8271    17.957794    23.330108    21.804382            0            0            0    9135.1046    330.15828     2488.049    3445.2738   -290.46748   -716.40763    1353.8061    17.957794    23.330108    21.804382           90           90           90 
   41500    256.98089   -146.15064   -117.48403   -146.15064            0    3307.4359    18.145944    23.148753    22.023476            0            0            0    9251.0923    4363.7623    3025.4428    2533.1025   -1845.9779    -431.1734     88.40268    18.145944    23.148753    22.023476           90           90           90 
   42000     262.2548   -146.64631   -117.39139   -146.64631            0     3806.257    18.066216    23.057508    22.168044            0            0            0    9234.3629     3257.405    4996.3844    3164.9815    1024.9718    1407.5227    50.849273    18.066216    23.057508    22.168044           90           90           90 
   42500    263.28995   -146.58104   -117.21065   -146.58104            0     2752.543    17.887694    23.189722    22.070918            0            0            0    9155.2519    45.488759    1764.8945    6447.2459    1373.8982   -1005.9998    503.19737    17.887694    23.189722    22.070918           90           90           90 
   43000    258.06868   -145.16374   -116.37579   -145.16374            0    294.83222    17.898336    23.544704    21.967318            0            0            0    9257.2702    671.83973    1742.3235   -1529.6666    1899.3782   -2438.7881   -1285.4435    17.898336    23.544704    21.967318           90           90           90 
   43500    254.10251   -145.89536   -117.54984   -145.89536            0    5584.3657    17.858435    23.436166    21.804034            0            0            0    9125.7132    7302.9168    7160.8711    2289.3092   -2972.8813    1369.0726    2021.6886    17.858435    23.436166    21.804034           90           90           90 
   44000    256.59841   -146.58844    -117.9645   -146.58844            0     2101.091    18.019191    23.316936    22.148913            0            0            0     9305.917   -2577.4058    5599.1477    3281.5312   -1046.7277   -1308.8714    1006.2537    18.019191    23.316936    22.148913           90           90           90 
   44500    254.81204   -145.69389   -117.26922   -145.69389            0    465.33425    17.966358    23.050176    22.123138            0            0            0    9161.8047   -71.012292    2297.4387    -830.4237   -1724.2382   -243.34266   -134.32423    17.966358    23.050176    22.123138           90           90           90 
   45000    244.71895   -146.86056   -119.56179   -146.86056            0    3237.9273    18.055343     23.21058    22.041729            0            0            0     9237.137     2666.337    3667.6625    3379.7825   -162.96339    315.00276    808.19974    18.055343     23.21058    22.041729           90           90           90 
   45500    245.79801   -146.53408   -119.11495   -146.53408            0    1430.8728    17.990311    23.323654    21.849132            0            0            0     9167.891    1245.6616    389.10388    2657.8528    210.46416    2193.2916    -53.98678    17.990311    23.323654    21.849132           90           90           90 
   46000    253.02247   -146.39716   -118.17212   -146.39716            0    3429.1125    17.922077    23.479506    21.931733            0            0            0    9228.9065    2717.3378    4558.7721    3011.2275   -1052.1249   -1575.9164   -2066.8148    17.922077    23.479506    21.931733           90           90           90 
   46500    252.44426   -146.00502   -117.84448   -146.00502            0    1938.7952    17.857033    23.387776    22.151827            0            0            0    9251.4069    4188.0816   -54.562781    1682.8669   -812.71153    449.22069    1350.8673    17.857033    23.387776    22.151827           90           90           90 
   47000    250.31619   -145.37461   -117.45146   -145.37461            0    4244.0879    17.864811    23.115425    22.068531            0            0            0    9113.2595     1296.367    7834.7415    3601.1553   -1949.8665    -612.9953    583.18482    17.864811    23.115425    22.068531           90           90           90 
   47500    257.60895   -145.71261   -116.97594   -145.71261            0   -558.92474     18.12179    23.281068    22.038061            0            0            0     9297.739    657.00992   -1432.7212    -901.0629   -475.40091   -1233.0184    1746.4955     18.12179    23.281068    22.038061           90           90           90 
   48000    258.68396   -145.53935   -116.68276   -145.53935            0    1832.5089    18.031071    23.279065    21.856514            0            0            0    9174.1944   -1330.2315    1773.9645    5053.7938    1101.1457   -1289.0927    -388.2027    18.031071    23.279065    21.856514           90           90           90 
   48500    257.84773   -146.16284   -117.39954   -146.16284            0    2689.0414    17.927698    23.403329    22.051427            0            0            0    9252.0688    917.44937    3206.6904    3942.9845   -2240.0144    2778.6381   -43.240591    17.927698    23.403329    22.051427           90           90           90 
   49000      268.111   -145.53419     -115.626   -145.53419            0   -473.52642    17.817484    23.420348    22.153973            0            0            0    9244.6685   -2654.4025    520.77387    713.04932   -1351.1292   -288.67921   -1382.4795    17.817484    23.420348    22.153973           90           90           90 
   49500    278.67613   -143.92199   -112.83525   -143.92199            0    171.57308    17.822467     23.27913    22.049628            0            0            0     9148.204    1247.5511   -1519.6067    786.77483    98.521796    2108.4554    207.87522    17.822467     23.27913    22.049628           90           90           90 
   50000    262.51989   -145.08955   -115.80506   -145.08955            0    2212.8601     18.10976    23.277915    22.057208            0            0            0    9298.3804    4230.6911     975.9204    1431.9689    884.15364   -1811.6297   -578.41218     18.10976    23.277915    22.057208           90           90           90 
   50500    256.33223   -145.97917   -117.38492   -145.97917            0    1680.0001    18.136378    23.098717     21.83023            0            0            0     9145.274    245.68594    2121.6584    2672.6559   -576.09652   -466.09089   -388.83033    18.136378    23.098717     21.83023           90           90           90 
   51000     265.9639   -146.20828   -116.53961   -146.20828            0    2744.3982     18.10803    23.132752    21.973765            0            0            0    9204.5589    557.32405      1589.88    6085.9905    700.17862   -1546.5144   -1172.4801     18.10803    23.132752    21.973765           90           90           90 
   51500    254.48119   -146.38616    -117.9984   -146.38616            0   -240.80275    17.858536    23.320301    22.205815            0            0            0    9247.9769    1714.9212   -798.03623   -1639.2932   -83.702774    -792.3911    1815.1447    17.858536    23.320301    22.205815           90           90           90 
   52000    250.51776   -147.36539   -119.41976   -147.36539            0    3718.9173    17.676258    23.405359    22.118257            0            0            0    9150.7468    5809.5022    3960.2136    1387.0359    459.11126     557.7594     1307.657    17.676258    23.405359    22.118257           90           90           90 
   52500    260.71559   -145.50493   -116.42171   -145.50493            0     3016.411    17.864655    23.487058    21.977412            0            0            0    9221.4625    3424.4599     202.5216    5422.2515    -357.6606   -2065.5138   -579.93934    17.864655    23.487058    21.977412           90           90           90 
   53000    254.91248   -146.63832   -118.20245   -146.63832            0    460.37926    18.108406    23.336923    21.934651            0            0            0     9269.462   -2475.5343    2258.9985    1597.6736    633.52993   -1717.6106   -1326.7039    18.108406    23.336923    21.934651           90           90           90 
   53500    251.06587   -146.02172   -118.01494   -146.02172            0    2115.7982    18.045447    23.055828    21.964467            0            0            0    9138.3764    3866.5451    4321.6775   -1840.8281    1812.6339    2145.0729    28.263221    18.045447    23.055828    21.964467           90           90           90 
   54000    253.84752   -144.97698    -116.6599   -144.97698            0    656.27223    17.945495     23.17679    22.127056            0            0            0    9203.0625    127.84308    2588.0272   -747.05364    1039.7941    1537.7074   -1377.6873    17.945495     23.17679    22.127056           90           90           90 
   54500      248.712   -147.31323   -119.56903   -147.31323            0     575.7936    17.888711    23.323258    22.035685            0            0            0    9193.7954   -662.07852    4268.3063    -1878.847   -45.495652    -1084.237    30.313691    17.888711    23.323258    22.035685           90           90           90 
   55000    253.40088   -146.64401   -118.37676   -146.64401            0     1794.746    17.914301    23.435546    21.944392            0            0            0    9212.9455    1818.0386   -1702.8678    5269.0673    2131.3473   -1677.3975   -946.00111    17.914301    23.435546    21.944392           90           90           90 
   55500    239.89451   -145.76099    -119.0004   -145.76099            0    1822.7659    17.952163    23.333506    22.005646            0            0            0    9217.8768    159.20133    1685.1082    3623.9881  -0.19068015   -1347.5778   -1044.5741    17.952163    23.333506    22.005646           90           90           90 
   56000     261.6312   -145.39441   -116.20906   -145.39441            0    2956.7545    17.888692    23.089411    22.011392            0            0            0     9091.571    3760.5747     1672.929    3436.7599     -81.4186    1433.3879   -334.79347    17.888692    23.089411    22.011392           90           90           90 
   56500    251.50795   -143.93364   -115.87755   -143.93364            0    810.91919    18.031708    23.229089    22.301728            0            0            0    9341.3049      1784.31    2225.7773   -1577.3298    630.20693   -1701.6974    288.59977    18.031708    23.229089    22.301728           90           90           90 
   57000    261.06505   -146.40714   -117.28494   -146.40714            0    6040.5086    17.918308    23.163601    21.962985            0            0            0    9115.7924    5272.2441    5003.0884    7846.1932    1029.3166    764.43957    668.32262    17.918308    23.163601    21.962985           90           90           90 
   57500    260.92747   -146.54309   -117.43624   -146.54309            0    3119.1965    17.978819    23.419387    21.790723            0            0            0    9175.0475    293.87894     4758.788    4304.9224   -786.05682     987.6172    682.18758    17.978819    23.419387    21.790723           90           90           90 
   58000    249.61174   -145.26194   -117.41738   -145.26194            0   -1704.4238    17.942362    23.582158    21.920101            0            0            0     9274.825   -3999.4685    -5394.531     4280.728    5.9879295    2362.7091    438.18567    17.942362    23.582158    21.920101           90           90           90 
   58500    258.54939   -146.31132   -117.46974   -146.31132            0    2778.9866    17.770564    23.244492    22.006444            0            0            0    9090.1516    4406.0727     3567.414    363.47304   -1200.3752    1047.1195    2224.3845    17.770564    23.244492    22.006444           90           90           90 
   59000    249.36823   -144.13045   -116.31304   -144.13045            0   -971.76406    18.021084    23.111803    22.207718            0            0            0    9249.5087   -792.43209    1114.7309    -3237.591   -1966.8144    37.081055   -349.25715    18.021084    23.111803    22.207718           90           90           90 
   59500    255.97473   -145.69375   -117.13938   -145.69375            0    1058.0309    18.089378     22.95746    22.045068            0            0            0    9155.0121   -1535.2896    2552.8959    2156.4862    -499.0978    686.64731   -17.913574    18.089378     22.95746    22.045068           90           90           90 
   60000    249.91215   -145.43007   -117.55199   -145.43007            0    3465.6763    18.065917    23.333458    22.000908            0            0            0    9274.2693    5417.2784    1026.8626    3952.8879    1818.6357    482.71062   -114.90833    18.065917    23.333458    22.000908           90           90           90 
   60500    243.79322   -145.28204   -118.08654   -145.28204            0    2584.9945    17.855229    23.589545    21.923913            0            0            0    9234.2806    3471.3811    2165.7952    2117.8071   -1132.2669    -2105.534   -841.45419    17.855229    23.589545    21.923913           90           90           90 
   61000    247.97329   -145.39845   -117.73665   -145.39845            0    3516.8369    17.688427    23.512009    22.004946            0            0            0    9151.6472    2490.2043     5559.588    2500.7184   -262.55876   -534.19311   -1484.6935    17.688427    23.512009    22.004946           90           90           90 
   61500     260.2153   -146.17891    -117.1515   -146.17891            0    4919.4411    17.797854    23.225227    22.135724            0            0            0     9150.005    6568.5513    5347.9473    2841.8248   -319.98273    1437.8247   -138.89553    17.797854    23.225227    22.135724           90           90           90 
   62000    253.31783   -144.65076   -116.39277   -144.65076            0    795.72421    18.160429    23.032379    22.160923            0            0            0     9269.424    4636.4296  -0.39386962   -2248.8631    692.03171   -787.23441   -2574.1562    18.160429    23.032379    22.160923           90           90           90 
   62500    252.38621   -145.18801   -117.03394   -145.18801            0    1765.1549    18.279139    23.030201    21.904312            0            0            0    9221.1074   -1175.1519      3772.58    2698.0367   -37.975551   -663.40552   -219.16444    18.279139    23.030201    21.904312           90           90           90 
   63000     266.7518   -144.69538   -114.93881   -144.69538            0    737.83672    18.063157    23.243697     21.87069            0            0            0    9182.5084    2754.4362   -2468.7596    1927.8336    222.58289   -42.800173    767.25763    18.063157    23.243697     21.87069           90           90           90 
   63500    247.91501   -145.45506   -117.79977   -145.45506            0    491.56939    17.786421    23.447972    22.083652            0            0            0    9210.1084   -141.66137    569.85594    1046.5136   -584.20663    631.89012    -1401.375    17.786421    23.447972    22.083652           90           90           90 
   64000     262.6866    -145.5072   -116.20411    -145.5072            0    2349.3712    17.735631    23.471781    22.169226            0            0            0    9228.7572    1718.7424    2396.9188    2932.4524   -1433.6502    329.59275   -747.44173    17.735631    23.471781    22.169226           90           90           90 
   64500    260.11042   -145.93668   -116.92097   -145.93668            0    28.167558      17.9124    23.379435    22.090132            0            0            0    9250.9451     482.1372    1531.1653   -1928.7998    1145.0882   -1079.2193   -1191.6335      17.9124    23.379435    22.090132           90           90           90 
   65000    244.42319   -146.69466   -119.42888   -146.69466            0    721.14404    18.041553    23.171371    21.902003            0            0            0     9156.078    2312.4964   -526.12525      377.061    2137.3531    866.04331   -1392.1339    18.041553    23.171371    21.902003           90           90           90 
   65500    251.15548   -146.37366   -118.35688   -146.37366            0    4827.9189     18.11556    23.265292    22.033119            0            0            0    9286.1621    3006.0426    6387.4411     5090.273   -587.13688    -3128.765   -179.10455     18.11556    23.265292    22.033119           90           90           90 
   66000    265.15777   -145.22623   -115.64748   -145.22623            0   -483.85774    17.936314    23.251004      22.0098            0            0            0     9178.908   -247.32942   -3186.1184    1981.8747    1768.2109    181.76769   -129.00839    17.936314    23.251004      22.0098           90           90           90 
   66500    269.67374   -146.12882   -116.04631   -146.12882            0    2054.4013    17.827239    23.262175    22.033333            0            0            0    9137.2308    1100.1326    2489.9242     2573.147    1601.0876   -157.40033    760.16219    17.827239    23.262175    22.033333           90           90           90 
   67000    254.31871   -146.86261   -118.49297   -146.86261            0     1710.025    17.968096    23.458326    22.112085            0            0            0    9320.2757    3768.5712    349.83442    1011.6695   -1474.6179   -311.37383    142.01736    17.968096    23.458326    22.112085           90           90           90 
   67500    241.28103   -145.02039   -118.10513   -145.02039            0    1388.8814    17.917484    23.298215    21.946151            0            0            0      9161.32   -950.48857    3444.7491    1672.3837   -1039.5932    516.82903    1256.0392    17.917484    23.298215    21.946151           90           90           90 
   68000    259.68264   -147.15156   -118.18357   -147.15156            0    2046.7601    17.997096     23.29105    22.068774            0            0            0     9250.596    2491.1056    1266.3738    2382.8009   -873.66215    279.08974   -1150.2676    17.997096     23.29105    22.068774           90           90           90 
   68500    265.18181   -146.61369   -117.03226   -146.61369            0    1773.2635    17.939528    23.225213    22.019259            0            0            0      9174.31    3890.7869    3648.1904   -2219.1867   -343.95736   -2264.2949     1891.442    17.939528    23.225213    22.019259           90           90           90 
   69000    252.43692   -147.36144   -119.20172   -147.36144            0    1654.7951     17.94992    23.228936    22.034432            0            0            0    9187.4225    668.03802   -668.24819    4964.5956    -711.0038   -372.91291    1241.1354     17.94992    23.228936    22.034432           90           90           90 
   69500    248.43247   -147.21197   -119.49895   -147.21197            0   -757.91263    18.030117    23.435048    22.131188            0            0            0    9351.2386    -3312.364    1735.6541   -697.02796     868.5084   -686.53782   -49.853187    18.030117    23.435048    22.131188           90           90           90 
   70000    246.84002   -145.22254   -117.68716   -145.22254            0    4391.3233    17.880058    23.271314    21.697159            0            0            0    9028.0236    6757.9579    -252.4494    6668.4613    1924.2055    1965.1881   -1017.3997    17.880058    23.271314    21.697159           90           90           90 
   70500    256.30192    -146.4305   -117.83964    -146.4305            0    3154.0898    18.022492    23.360537    21.928177            0            0            0    9232.0936    721.38841    3782.6539     4958.227   -2493.5587   -2293.6297    2231.9039    18.022492    23.360537    21.928177           90           90           90 
   71000    257.73364   -147.01349   -118.26292   -147.01349            0   -1068.2844    18.048451    23.258598    22.185149            0            0            0    9312.9188   -2317.4283    1506.8156   -2394.2403    -42.97558    355.31757    584.28927    18.048451    23.258598    22.185149           90           90           90 
   71500    251.89241    -145.7756   -117.67662    -145.7756            0    5426.8751    17.905237    23.101424    22.102769            0            0            0    9142.5111    6705.9268    1387.7431    8186.9553    130.71632   -38.803746   -1750.2041    17.905237    23.101424    22.102769           90           90           90 
   72000    267.99863   -144.12281   -114.22716   -144.12281            0    2424.3336    18.024577    23.374878    22.009485            0            0            0    9273.0869    697.67339     1662.695    4912.6324    123.12591    1575.8387    171.45672    18.024577    23.374878    22.009485           90           90           90 
   72500    262.50599   -145.34303   -116.06009   -145.34303            0    2637.7541    17.965103    23.386672    21.884612            0            0            0    9194.6879    2598.2678    1724.7044      3590.29    268.02073    -822.2086   -1179.6811    17.965103    23.386672    21.884612           90           90           90 
   73000    257.87617   -146.75764   -117.99116   -146.75764            0    1506.3868    17.914409    23.346543    22.025528            0            0            0    9211.9462    1176.3748     2465.751    877.03467   -1257.4303    289.96805    935.90827    17.914409    23.346543    22.025528           90           90           90 
   73500    253.31713   -145.64304   -117.38514   -145.64304            0    2224.1381    17.945577    23.303108    22.178667            0            0            0    9274.8459    5905.8153   -712.87244    1479.4716   -805.29573   -568.08157    321.92147    17.945577    23.303108    22.178667           90           90           90 
   74000    253.66496   -145.93257   -117.63586   -145.93257            0    5048.3447    17.925454    23.087784    21.925772            0            0            0    9074.1785    5350.7565    4135.2722    5659.0054   -208.27921    636.45713   -467.32402    17.925454    23.087784    21.925772           90           90           90 
   74500    261.55346   -146.51454   -117.33786   -146.51454            0    -1506.485     18.15079    23.305323    21.908456            0            0            0    9267.4968   -664.92229   -3677.4835   -177.04922    -1925.947    95.211768   -1213.2209     18.15079    23.305323    21.908456           90           90           90 
   75000    262.96058   -146.40504   -117.07139   -146.40504            0    2285.5656    18.119559    23.373373    21.940601            0            0            0    9292.1783    4783.5746     46.92345    2026.1986   -984.70333   -2042.9941    544.76718    18.119559    23.373373    21.940601           90           90           90 
   75500     252.3532   -146.54017   -118.38979   -146.54017            0    3000.7452    17.781257    23.268982    22.095326            0            0            0    9141.9795    3778.5726    1487.0564    3736.6066    553.12102    95.817105   -549.36684    17.781257    23.268982    22.095326           90           90           90 
   76000    264.24025   -146.71769    -117.2413   -146.71769            0    1529.7384    17.780806    23.353275    22.280352            0            0            0    9251.6947    2264.5661   -1801.2682    4125.9172    1998.1118   -2024.6452    483.74282    17.780806    23.353275    22.280352           90           90           90 
   76500     242.9187   -147.93449   -120.83654   -147.93449            0    2161.9049    17.864402    23.198394    21.943357            0            0            0    9093.8855    2449.8658    4649.8983   -614.04946    1184.2925   -355.20464   -216.93473    17.864402    23.198394    21.943357           90           90           90 
   77000    245.53502   -147.76246   -120.37266   -147.76246            0     1528.812    18.147721    23.306175    21.876781            0            0            0    9252.8709    2570.0892    2607.0764   -590.72969    595.00241    669.27341    1866.7541    18.147721    23.306175    21.876781           90           90           90 
   77500    259.62285   -146.98049   -118.01917   -146.98049            0    1674.3811    18.102597    23.264976    21.934412            0            0            0    9237.8199    1375.8439    1680.1116    1967.1879    -972.2763   -977.49769    764.48954    18.102597    23.264976    21.934412           90           90           90 
   78000    255.67747   -143.69183   -115.17062   -143.69183            0     1286.516    17.827097    23.110932    22.080984            0            0            0    9097.3834    2845.7488    1937.6843   -923.88516   -2680.9431   -1244.2205   -385.76859    17.827097    23.110932    22.080984           90           90           90 
   78500    250.78185    -146.9556   -118.98051    -146.9556            0    652.00375    17.855865    23.301669    22.227608            0            0            0    9248.2734    621.81163    718.57675    615.62285    1276.3698     35.00974   -982.64206    17.855865    23.301669    22.227608           90           90           90 
   79000    245.93606   -146.40723   -118.97269   -146.40723            0   -41.184572    17.953357    23.371378    21.968775            0            0            0    9217.9816     1990.684    -892.8501   -1221.3876    839.26174   -1095.3339    1225.3095    17.953357    23.371378    21.968775           90           90           90 
   79500    261.32759   -145.50281   -116.35132   -145.50281            0    1161.3285    18.007303    23.323104    21.827865            0            0            0    9167.4018    2723.3164    962.18513   -201.51605    323.34296    2381.7688   -248.45179    18.007303    23.323104    21.827865           90           90           90 
   80000    259.61119   -145.32781   -116.36779   -145.32781            0    1613.9555    18.026286    23.324301    22.046552            0            0            0     9269.484      688.004     1809.023    2344.8395   -561.80867   -1633.2091    189.01093    18.026286    23.324301    22.046552           90           90           90 
   80500    258.27772   -145.82608   -117.01482   -145.82608            0   -1170.2842    17.866328    23.201978    22.221151            0            0            0    9211.4257   -934.68364   -743.80491    -1832.364     1051.123   -171.38509    873.00242    17.866328    23.201978    22.221151           90           90           90 
   81000    250.93414   -145.74548    -117.7534   -145.74548            0     4419.312     17.76567    23.157773    22.161406            0            0            0    9117.4986    7064.0615    4137.8314    2056.0432    1305.0353    917.86369   -582.53483     17.76567    23.157773    22.161406           90           90           90 
   81500    251.76491   -146.55809   -118.47333   -146.55809            0    2724.4639    18.057209    23.410388    21.963247            0            0            0    9284.4412    1519.5745    863.58943    5790.2279   -1454.0592     3030.078    148.94032    18.057209    23.410388    21.963247           90           90           90 
   82000    252.27832   -146.76069   -118.61866   -146.76069            0    1321.7563    18.087427    23.274039    21.660023            0            0            0    9118.1652   -17.796643    -180.6859    4163.7516    1001.8626    -708.3167   -1280.5724    18.087427    23.274039    21.660023           90           90           90 
   82500    263.23535   -145.20658   -115.84228   -145.20658            0    1654.4033    18.037111     23.23214    22.052209            0            0            0    9240.7729    2391.4075    1016.9575    1554.8448   -2992.9496   -1812.3339   -758.02773    18.037111     23.23214    22.052209           90           90           90 
   83000    266.61401   -146.05044   -116.30925   -146.05044            0     3610.569    17.890161    23.172744    22.290243            0            0            0    9240.7351    4213.8483    3618.9845    2998.8741   -198.03825   -2803.0647   -874.00738    17.890161    23.172744    22.290243           90           90           90 
   83500     265.5028   -146.80919   -117.19195   -146.80919            0     1680.133    17.844999     23.24876    22.092354            0            0            0    9165.5454   -1962.9005    1881.7717    5121.5278    494.14084   -1336.2409   -2594.3588    17.844999     23.24876    22.092354           90           90           90 
   84000    262.33426   -144.47403   -115.21025   -144.47403            0     3655.042    17.926001    23.361384    21.970558            0            0            0    9200.7464    4757.1131    2603.6297    3604.3832    2125.1092    278.34654   -2976.8884    17.926001    23.361384    21.970558           90           90           90 
   84500    269.94299   -146.54496   -116.43241   -146.54496            0    3588.3585    17.983857    23.293141    21.970555            0            0            0    9203.4771    5734.7062    763.72464    4266.6448    501.55208      255.972   -1077.8468    17.983857    23.293141    21.970555           90           90           90 
   85000    254.41237   -146.35055   -117.97046   -146.35055            0   -283.70191    18.010159    23.220534    22.106956            0            0            0    9245.2512   -781.90716    666.41454    -735.6131    177.28565    48.055279   -884.59352    18.010159    23.220534    22.106956           90           90           90 
   85500    253.14577   -144.16204   -115.92325   -144.16204            0    1271.9568     17.94079    23.184298    22.048886            0            0            0    9171.1159    2855.0098     4132.912   -3172.0514   -2114.9569   -33.096248    669.46666     17.94079    23.184298    22.048886           90           90           90 
   86000     257.6643   -145.99009   -117.24725   -145.99009            0    2016.8155    17.926941    23.329377    21.980503            0            0            0    9192.7821     3962.027   -308.20694    2396.6266   -1609.8294   -694.48733   -64.850912    17.926941    23.329377    21.980503           90           90           90 
   86500    248.76352   -146.27008   -118.52014   -146.27008            0    2793.9522    17.987667    23.445029    22.040354            0            0            0    9294.8885    2118.2645    2736.0572     3527.535   -2578.3894   -1405.6073    891.47682    17.987667    23.445029    22.040354           90           90           90 
   87000    247.72594   -146.57572   -118.94152   -146.57572            0    4390.4372    17.809902     23.14163    21.917622            0            0            0    9033.3516    1866.0898    2877.2112    8428.0107   -1167.7895    704.46527   -290.74516    17.809902     23.14163    21.917622           90           90           90 
   87500    248.10147   -145.73949    -118.0634   -145.73949            0    1125.0861    18.033172    23.283704    22.228511            0            0            0    9333.2857    1481.9019    -510.8857    2404.2422    249.51558   -1388.4842    985.80142    18.033172    23.283704    22.228511           90           90           90 
   88000    261.53833   -146.33035   -117.15536   -146.33035            0    1820.0495    18.047212    23.222153    22.071303            0            0            0    9249.9757   -294.76512    3033.8735    2721.0402   -1453.7895    14.206975    225.14499    18.047212    23.222153    22.071303           90           90           90 
   88500    242.89135    -145.1667   -118.07181    -145.1667            0    3323.3829    17.885686    23.186315    21.829606            0            0            0    9052.8064     6045.759   -108.74225    4033.1319    887.58395    246.90294   -88.820835    17.885686    23.186315    21.829606           90           90           90 
   89000    244.17915   -147.68886   -120.45031   -147.68886            0   -2188.3232     18.00779    23.429576    22.098973            0            0            0    9323.8856   -1732.5508   -825.01289    -4007.406   -2347.2656     437.4768   -140.70396     18.00779    23.429576    22.098973           90           90           90 
   89500    242.05203   -146.73011   -119.72884   -146.73011            0     2686.317    17.841903     23.20559     21.99423            0            0            0    9106.3125    3300.5747    818.75873    3939.6177   -4013.1233   -1117.6569    1138.9279    17.841903     23.20559     21.99423           90           90           90 
   90000    242.30936   -147.40296   -120.37298   -147.40296            0    5382.4609    17.880612    23.219253    21.977454            0            0            0    9124.4771    6964.4286    5116.4355    4066.5186   -676.49507     1345.483   -291.57712    17.880612    23.219253    21.977454           90           90           90 
   90500    255.48768   -146.77735   -118.27731   -146.77735            0    1832.9949    18.080351    23.342982     22.05569            0            0            0    9308.5886    2664.6374    2901.8828   -67.535626    1271.2975    590.88889    846.22133    18.080351    23.342982     22.05569           90           90           90 
   91000     256.4835   -146.48513   -117.87401   -146.48513            0      1341.54    18.002674    23.236384    21.931121            0            0            0    9174.1617    2773.8015     937.2516    313.56694   -325.14034     843.1515    1915.5798    18.002674    23.236384    21.931121           90           90           90 
   91500    239.14088   -147.03204   -120.35551   -147.03204            0    2081.0854    17.911311    23.213377    22.031341            0            0            0     9160.235    4020.4306    1177.3451    1045.4805   -260.21744   -208.61102   -114.64202    17.911311    23.213377    22.031341           90           90           90 
   92000    253.64333   -146.64199   -118.34769   -146.64199            0   -48.274064    17.799744    23.280616    22.168122            0            0            0    9186.2264    607.19869   -1413.1818    661.16089    1576.2114    105.15923   -938.78367    17.799744    23.280616    22.168122           90           90           90 
   92500    245.17204   -145.84648   -118.49717   -145.84648            0    373.74989    17.861639    23.498852    22.100621            0            0            0      9276.25   -203.98714    738.93103    586.30579   -1848.8367   -563.68583   -835.12634    17.861639    23.498852    22.100621           90           90           90 
   93000    248.52042   -145.58258   -117.85975   -145.58258            0    1753.1867     17.94609    23.408352    21.758103            0            0            0    9140.3266    2670.0356   -463.02992    3052.5545    477.14482   -662.41729   -625.05348     17.94609    23.408352    21.758103           90           90           90 
   93500    243.23699    -145.4971   -118.36365    -145.4971            0   -48.067239    18.148757    23.215318    21.912228            0            0            0    9232.2608   -1866.3393    849.15938    872.97825    833.55669   -116.65948   -271.44212    18.148757    23.215318    21.912228           90           90           90 
   94000    258.01933   -147.43255    -118.6501   -147.43255            0     2912.798    18.039713     22.89339    22.108522            0            0            0    9130.6025    1396.2924    4239.5448    3102.5568    2955.2474    1545.0613   -447.82183    18.039713     22.89339    22.108522           90           90           90 
   94500    250.96473   -146.53889    -118.5434   -146.53889            0    2575.9976    17.946593    23.045501    22.208693            0            0            0    9185.2537    1819.5284    6427.0271   -518.56278   -1439.8949    987.86677     1339.239    17.946593    23.045501    22.208693           90           90           90 
   95000    241.22118   -147.24432   -120.33574   -147.24432            0   -48.573061    17.896334    23.500509    21.962207            0            0            0    9236.7106    1476.0524   -1326.5335   -295.23806    2577.4651   -44.613907    533.47961    17.896334    23.500509    21.962207           90           90           90 
   95500    254.97448   -146.18138    -117.7386   -146.18138            0    1162.4073    17.849544    23.572757    21.803657            0            0            0    9174.1713    3253.5354   -2165.3202    2399.0068    105.86972   -2.4411372   -992.72741    17.849544    23.572757    21.803657           90           90           90 
   96000    259.38616   -145.83674   -116.90182   -145.83674            0    2960.9632    17.939838    23.394282    22.005859            0            0            0    9235.6312    4038.0311    2113.3653    2731.4932    1271.4626   -1218.7688    1813.4895    17.939838    23.394282    22.005859           90           90           90 
   96500    263.88719   -146.11768   -116.68066   -146.11768            0    2032.4223    17.980217    23.059033    22.159644            0            0            0    9187.5307    3594.2128    260.08216     2242.972   -242.65229   -109.27869     854.8653    17.980217    23.059033    22.159644           90           90           90 
   97000    252.02996   -145.88585   -117.77153   -145.88585            0    2571.5681    18.046331    23.090477    22.155374            0            0            0    9232.1084    3226.3986    2604.9223    1883.3833   -187.30924   -3332.5974    199.79105    18.046331    23.090477    22.155374           90           90           90 
   97500    263.16696   -146.36076   -117.00409   -146.36076            0    3800.3225    17.892512    23.115598    21.881745            0            0            0    9050.2047    5551.6284    2707.1795    3142.1597    2138.6183    -209.6356    654.75398    17.892512    23.115598    21.881745           90           90           90 
   98000    245.78455   -146.71127   -119.29363   -146.71127            0    3147.0837    17.968351    23.400811    22.056332            0            0            0    9274.1133    2120.6762    4756.1562    2564.4187   -1157.1671   -781.65894     2588.248    17.968351    23.400811    22.056332           90           90           90 
   98500    249.51213   -145.63426    -117.8008   -145.63426            0   -805.24612    17.940273    23.371278    22.058774            0            0            0    9248.9592   -1934.2313     1161.136   -1642.6431   -178.92352    127.48403     208.0816    17.940273    23.371278    22.058774           90           90           90 
   99000    247.22688    -145.6639   -118.08537    -145.6639            0    4867.1652    17.867928    23.153689    21.920813            0            0            0    9068.8252    3250.7625    6830.3431    4520.3899   -1506.9319   -1508.9131    120.41805    17.867928    23.153689    21.920813           90           90           90 
   99500    269.30228   -145.73817    -115.6971   -145.73817            0    3555.7306    18.003249     23.24682    22.067321            0            0            0    9235.5775    3128.8398    2296.4716    5241.8802   -97.394479   -1437.0366   -585.31804    18.003249     23.24682    22.067321           90           90           90 
  100000    251.74807   -145.32019   -117.23731   -145.32019            0    5048.6082    17.977402    23.190103    22.015196            0            0            0    9178.0867    5864.2664    4574.0179    4707.5401    1670.6834    520.80865    165.04254    17.977402    23.190103    22.015196           90           90           90 
  100500    254.49397   -145.67932   -117.29014   -145.67932            0    1275.7412    17.990057     23.30367    22.050081            0            0            0    9244.1516    133.71677    992.07819    2701.4287   -333.58163   -315.82914    681.23041    17.990057     23.30367    22.050081           90           90           90 
  101000    248.58741   -145.63913   -117.90883   -145.63913            0    3156.0272     17.81538    23.221782    21.988858            0            0            0    9096.8977    4318.5871    3036.5689    2112.9255      -2248.7    2002.2239    1570.3755     17.81538    23.221782    21.988858           90           90           90 
  101500     251.2293    -146.0901   -118.06509    -146.0901            0    911.94502    17.839676    23.251736    22.052973            0            0            0    9147.6493    3014.3246    1094.5768   -1373.0664    3731.9647    277.27527   -2935.7938    17.839676    23.251736    22.052973           90           90           90 
  102000    252.00653   -146.32411    -118.2124   -146.32411            0    381.59216    17.996452    23.391241    22.088993            0            0            0     9298.568     2235.394     1997.042   -3087.6595    881.39433    1740.5883    794.28572    17.996452    23.391241    22.088993           90           90           90 
  102500    253.88706   -146.67238    -118.3509   -146.67238            0    3083.8946    17.974128    23.228072    21.824875            0            0            0    9111.9802   -988.14483    5860.6838    4379.1449    1180.7497   -777.08142   -786.00266    17.974128    23.228072    21.824875           90           90           90 
  103000    255.63502    -145.5349   -117.01843    -145.5349            0    1505.8638    18.040858    23.275668    21.970955            0            0            0    9225.8898    2069.7055    764.11598    1683.7698    1364.2246   -722.78013    680.85506    18.040858    23.275668    21.970955           90           90           90 
  103500    249.22344   -146.16759   -118.36634   -146.16759            0    4049.4933    17.896136    23.169909    22.166056            0            0            0     9191.196    4396.1532    3875.7545    3876.5723    100.41096   -721.27458   -950.79817    17.896136    23.169909    22.166056           90           90           90 
  104000     257.0667   -145.90798   -117.23181   -145.90798            0   -268.76379    17.838887    23.238196    22.240393            0            0            0    9219.6118   -187.68132    893.16074   -1511.7708   -426.42379    662.47744    1210.5923    17.838887    23.238196    22.240393           90           90           90 
  104500    253.68943   -146.50039   -118.20095   -146.50039            0   -274.23064    17.943995    23.314907    21.908892            0            0            0    9165.8608   -1171.3078   -100.89115    449.50704   -3102.4392    127.00226   -790.60719    17.943995    23.314907    21.908892           90           90           90 
  105000    261.90055   -145.51781   -116.30241   -145.51781            0    500.48281    18.079094    23.341266    21.687947            0            0            0    9152.0739   -740.78863    -1118.568    3360.8051   -1494.0039   -102.61987    727.43669    18.079094    23.341266    21.687947           90           90           90 
  105500    268.37063   -146.31555    -116.3784   -146.31555            0    3538.5968    18.025901    23.213925    21.975673            0            0            0    9195.7622    4224.6239    6639.8722   -248.70559    862.11181    875.93149   -736.86042    18.025901    23.213925    21.975673           90           90           90 
  106000    251.60673   -145.42739   -117.36028   -145.42739            0    2249.3902    17.907881     23.14464     22.36813            0            0            0    9270.9514    1257.2694     6420.236   -929.33465    243.29694    422.86015    -362.2074    17.907881     23.14464     22.36813           90           90           90 
  106500     262.8077   -146.98908   -117.67249   -146.98908            0    1207.4838    17.776685    23.127168     22.15845            0            0            0    9109.8792    1539.4724    2491.8843   -408.90519   -2217.9533    536.82967    2032.4986    17.776685    23.127168     22.15845           90           90           90 
  107000    238.53638   -144.39897   -117.78988   -144.39897            0    2255.3483    17.944326    23.369179    21.921772            0            0            0    9192.7674    1218.7577    2311.9335    3235.3536   -676.79188   -682.23481    -1993.526    17.944326    23.369179    21.921772           90           90           90 
  107500    255.35072    -145.8834   -117.39864    -145.8834            0    2931.9098    18.015693    23.476327    21.832698            0            0            0    9233.9713    2133.2272    2057.4666    4605.0355   -1881.4887   -1257.2539    1143.9169    18.015693    23.476327    21.832698           90           90           90 
  108000    260.92486   -145.81091   -116.70434   -145.81091            0    1550.0308    17.950416    23.317174    22.043977            0            0            0    9226.5724    556.08219    848.86614     3245.144    558.40054    115.02854    1028.1668    17.950416    23.317174    22.043977           90           90           90 
  108500    259.10429   -145.09068   -116.18721   -145.09068            0    62.272204    17.913049    23.110966    22.203858            0            0            0    9192.1282   -2172.8694    3079.3738   -719.68779    -995.3175   -1107.3505   -1477.9229    17.913049    23.110966    22.203858           90           90           90 
  109000    247.64204   -145.11253   -117.48769   -145.11253            0    1216.6108    17.915495    23.149861    22.076507            0            0            0    9156.0374    1256.4181    1560.5447    832.86958    1211.2366    232.93108    1123.1742    17.915495    23.149861    22.076507           90           90           90 
  109500    256.89571   -145.65515   -116.99804   -145.65515            0   -2046.2009    18.043848    23.418415    21.917546            0            0            0    9261.4414   -2028.9965   -3039.3153    -1070.291   -2777.0684    2036.2396    1146.9851    18.043848    23.418415    21.917546           90           90           90 
  110000    254.98422   -145.85524   -117.41136   -145.85524            0    4795.6018    18.017239     23.43655    21.798161            0            0            0     9204.533    3585.0157    4713.3884    6088.4013   -2179.9629    80.483844    536.82956    18.017239     23.43655    21.798161           90           90           90 
  110500    241.12012   -145.91678   -119.01947   -145.91678            0    2502.2004    17.861629    23.321798    22.035788            0            0            0    9179.3448    2020.1896    4352.6405    1133.7712    567.99766    -1000.035    15.081092    17.861629    23.321798    22.035788           90           90           90 
  111000    246.71597   -145.22216   -117.70062   -145.22216            0    2569.9753    17.857236     23.18907     22.31972            0            0            0    9242.4329    3167.2212    1481.6645    3061.0401   -434.20471   -468.44096    -2187.559    17.857236     23.18907     22.31972           90           90           90 
  111500     250.0567   -145.10801   -117.21381   -145.10801            0      576.493    17.944192    23.128635    22.149769            0            0            0    9192.7004   -173.49996   -3653.2711    5556.2501    1844.2844    1098.7286    3800.1625    17.944192    23.128635    22.149769           90           90           90 
[...]
  373500    246.34458   -146.20843   -118.72832   -146.20843            0    5028.4207    17.955196    23.307105    21.855101            0            0            0    9146.0019    1625.0001    4041.4404    9418.8215    1863.5639   -3071.2483    934.68914    17.955196    23.307105    21.855101           90           90           90 
  374000    264.50525   -146.26586    -116.7599   -146.26586            0    120.68471    17.907994    23.501812    22.081401            0            0            0    9293.4063    1896.7709    -911.3018   -623.41497    70.185944    640.49682    816.04211    17.907994    23.501812    22.081401           90           90           90 
  374500    264.13813   -144.78649   -115.32148   -144.78649            0    2439.6121    17.833414    23.326166    22.163262            0            0            0    9219.5884    4086.7989    1263.6129    1968.4244    355.80393   -984.13872    306.84172    17.833414    23.326166    22.163262           90           90           90 
  375000    252.40521   -143.41794   -115.26176   -143.41794            0    56.298614    17.988603    23.211359    22.098908            0            0            0    9227.1762    1401.7229    539.32948   -1772.1566    963.20012    43.840936    1450.8166    17.988603    23.211359    22.098908           90           90           90 
  375500     263.6711   -146.49399   -117.08108   -146.49399            0   -584.83895    18.142107    23.184675    21.872718            0            0            0    9200.0777    -770.6015   -1463.4883    479.57295    1614.0264   -863.66862   -676.45034    18.142107    23.184675    21.872718           90           90           90 
  376000    263.37597   -146.17355   -116.79357   -146.17355            0    4750.7428    18.080603    23.237203    21.883219            0            0            0    9194.0735    3086.0743    7220.8541    3945.3001   -411.80932   -235.06609    498.56092    18.080603    23.237203    21.883219           90           90           90 
  376500    260.01695   -144.53143   -115.52615   -144.53143            0    78.873922     17.95621    23.514432     22.29556            0            0            0    9413.8562    669.85279   -1203.3452    770.11416    -997.8941    255.10335    915.77004     17.95621    23.514432     22.29556           90           90           90 
  377000    252.88094    -146.8117   -118.60245    -146.8117            0     2468.451    17.564821    23.355869    22.095143            0            0            0    9064.3483    1617.0607    2376.3366    3411.9557   -634.34703    553.53983   -543.87728    17.564821    23.355869    22.095143           90           90           90 
  377500     250.5497    -146.2446    -118.2954    -146.2446            0    2639.5863    17.861713    23.568047    22.129378            0            0            0     9315.709    2277.7972    2781.1871    2859.7746    690.51365    -489.2632   -334.88592    17.861713    23.568047    22.129378           90           90           90 
  378000    255.61486   -145.59864   -117.08442   -145.59864            0    606.10581    18.005574    23.243879    21.905743            0            0            0    9167.9783    1366.5913    388.27551    63.450641   -1000.6818   -303.63312   -117.34534    18.005574    23.243879    21.905743           90           90           90 
  378500    248.49293   -146.78758   -119.06782   -146.78758            0    1194.7986    18.099898     23.15213    21.951877            0            0            0    9198.9603     1471.608    1507.2448    605.54293    1951.0834   -706.69421   -1253.3428    18.099898     23.15213    21.951877           90           90           90 
  379000    257.80434   -145.90145   -117.14299   -145.90145            0   -510.75077    18.114439    23.263133    22.090093            0            0            0    9308.7344   -1618.1387    2722.8441   -2636.9576   -1133.9087   -817.79745    684.65776    18.114439    23.263133    22.090093           90           90           90 
  379500    252.92235   -146.29593   -118.08206   -146.29593            0    2329.2535    17.828667    23.229348    22.001052            0            0            0    9111.6989    2481.7769   -748.62873    5254.6125    1238.0799    188.98817   -635.30398    17.828667    23.229348    22.001052           90           90           90 
  380000      251.347   -146.44703    -118.4089   -146.44703            0    1483.4268    17.890126    23.357514    22.115453            0            0            0    9241.3599    4474.0295    2137.0481    -2160.797    623.22872   -189.06841    1641.7951    17.890126    23.357514    22.115453           90           90           90 
  380500    247.15198   -146.66034   -119.09017   -146.66034            0     2705.085    18.011646    23.290437    22.020371            0            0            0    9237.5257    4415.1029    1164.0123    2536.1398    -1620.066   -69.870241    1685.4123    18.011646    23.290437    22.020371           90           90           90 
  381000    250.95524   -145.78284    -117.7884   -145.78284            0    2298.2146    18.042778    23.195258    21.923867            0            0            0    9175.2895    2632.1283    3046.3493    1216.1661   -1757.1783   -268.60157    1839.4304    18.042778    23.195258    21.923867           90           90           90 
  381500    270.73389    -144.5085   -114.30773    -144.5085            0    2931.1376     17.97502    23.142168    21.985388            0            0            0     9145.502     2913.368    1944.7141    3935.3306   -90.128953   -499.30053   -2212.7681     17.97502    23.142168    21.985388           90           90           90 
  382000    262.68488   -146.21385   -116.91096   -146.21385            0    748.90951    17.942172    23.373921     22.16248            0            0            0    9294.4768   -1009.9396   -1056.1199     4312.788   -1027.1722   -1264.7819    694.92496    17.942172    23.373921     22.16248           90           90           90 
  382500     274.8085   -145.57092   -114.91562   -145.57092            0    -354.6799    17.831168    23.367646    22.084861            0            0            0    9202.1528    430.64265   -192.61315   -1302.0692   -705.67108   -332.67025    741.28444    17.831168    23.367646    22.084861           90           90           90 
  383000    260.72132    -144.9815   -115.89764    -144.9815            0    3971.9649    17.900308    23.304811    21.983265            0            0            0    9170.6115    4271.5813    5159.1423    2485.1712   -71.347075    -206.9714   -655.54648    17.900308    23.304811    21.983265           90           90           90 
  383500    257.40875   -143.44515   -114.73081   -143.44515            0    2446.7607    18.148055    23.294428    22.065404            0            0            0    9328.1175    3826.6545    3099.7231    413.90438    778.00859    729.93846    1350.4749    18.148055    23.294428    22.065404           90           90           90 
  384000    252.91755   -145.16735   -116.95401   -145.16735            0    711.09699    18.018704    22.887196    21.893878            0            0            0     9028.983    3513.2683    2098.5486    -3478.526    159.75787    1045.1832    1542.0301    18.018704    22.887196    21.893878           90           90           90 
  384500    246.95154   -145.60176   -118.05394   -145.60176            0    2734.1562    18.123054    23.166512    22.114944            0            0            0    9284.9137    4244.4915    1093.7132    2864.2639   -1229.6912   -439.22891   -437.34745    18.123054    23.166512    22.114944           90           90           90 
  385000    241.63255   -145.38702   -118.43255   -145.38702            0    1872.9405    17.931527     23.27603    22.021764            0            0            0    9191.3285    2375.0763    6226.0945   -2982.3493   -1204.9419   -17.263581   -359.25345    17.931527     23.27603    22.021764           90           90           90 
  385500    239.28504   -145.58996   -118.89736   -145.58996            0     2792.635    17.743666    23.349428    21.991431            0            0            0    9111.1475    2947.2889    2414.6223    3015.9938   -813.17897   -1295.0911    474.25693    17.743666    23.349428    21.991431           90           90           90 
  386000    257.14049    -146.2514   -117.56699    -146.2514            0    2068.8909    17.891853    23.419137    22.144051            0            0            0     9278.618    5569.1069    2990.2106   -2352.6448    3.8865162    830.58463   -2344.1202    17.891853    23.419137    22.144051           90           90           90 
  386500    263.34857   -145.22652   -115.84959   -145.22652            0    1507.5552    17.958647     23.22631    21.970009            0            0            0    9163.9788   -1153.4578    1806.2156    3869.9078    2134.8098    1383.2222    2032.6032    17.958647     23.22631    21.970009           90           90           90 
  387000    252.72226   -145.42642   -117.23487   -145.42642            0    655.88333    18.153898    23.239591    21.975073            0            0            0    9271.0448   -211.28554     1634.276    544.65948   -734.31276    161.25704   -1365.1553    18.153898    23.239591    21.975073           90           90           90 
  387500     258.3336     -145.942    -117.1245     -145.942            0    991.72187    18.021722     23.10655    21.975803            0            0            0      9151.16    193.45239     2084.439    697.27421    1969.0941    862.53549    1185.0202    18.021722     23.10655    21.975803           90           90           90 
  388000    251.13917   -147.18174   -119.16678   -147.18174            0    3803.3427    17.788118    23.248064    22.130208            0            0            0    9151.7109    3528.5188    5050.2735    2831.2358    1342.8746   -1948.9633   -237.96624    17.788118    23.248064    22.130208           90           90           90 
  388500    252.35083   -147.32414   -119.17402   -147.32414            0     622.0814    17.857153    23.526269    22.171762            0            0            0    9314.6272    1924.0318    1037.6695   -1095.4571   -712.70867     1258.435     489.8392    17.857153    23.526269    22.171762           90           90           90 
  389000    248.79998   -146.56021    -118.8062   -146.56021            0    2800.2979    17.863407    23.385387    21.896007            0            0            0    9146.8965    3532.3923    3172.3215      1696.18    151.89934    1108.0141   -1888.2087    17.863407    23.385387    21.896007           90           90           90 
  389500       248.05   -146.49674   -118.82639   -146.49674            0    2804.5519    18.019588    23.288744    21.839366            0            0            0    9164.9683    2155.7713    267.33868    5990.5458    385.54133     193.8799    187.26629    18.019588    23.288744    21.839366           90           90           90 
  390000    243.67416   -147.01947   -119.83726   -147.01947            0    2222.6086    18.065968    23.216902    22.009262            0            0            0    9231.4726   -80.341929    2553.9042    4194.2634   -622.93985    1302.7973    760.15277    18.065968    23.216902    22.009262           90           90           90 
  390500    255.25218   -145.78986   -117.31609   -145.78986            0    606.77007     17.91984    23.168358    22.128304            0            0            0    9187.0802    2149.8744   -175.87142   -153.69272   -1043.4081   -1810.7152   -289.15772     17.91984    23.168358    22.128304           90           90           90 
  391000    260.86346   -145.40118   -116.30147   -145.40118            0    232.83445     17.90367    23.367749    22.078238            0            0            0    9236.8385    2376.6588   -1166.6587   -511.49673   -2700.3489   -434.53765    501.39522     17.90367    23.367749    22.078238           90           90           90 
  391500    256.38552   -143.20177   -114.60158   -143.20177            0    3381.1608    17.903207      23.4131    21.814082            0            0            0    9143.7998    5441.1885    2305.8685    2396.4254    -4345.038   -114.38702   -1914.7784    17.903207      23.4131    21.814082           90           90           90 
  392000    250.17823   -147.48213   -119.57437   -147.48213            0    1049.9998     17.99512    23.439538     21.90661            0            0            0    9240.1488    -1970.452    3670.0355    1450.4159     1436.365   -233.85511    342.85086     17.99512    23.439538     21.90661           90           90           90 
  392500    242.75794    -146.2522   -119.17218    -146.2522            0     2648.888    17.956954    23.236652    22.113136            0            0            0    9226.9157    2892.8446    2371.5462    2682.2733   -1264.3711    -1492.255   -1075.6704    17.956954    23.236652    22.113136           90           90           90 
  393000    248.28137   -144.68216     -116.986   -144.68216            0    1970.9661    17.926058    23.134942    22.239666            0            0            0    9223.1968    2330.3623    3236.4153    346.12051   -1752.2226    461.55344   -198.63653    17.926058    23.134942    22.239666           90           90           90 
  393500     276.7126   -145.19862   -114.33091   -145.19862            0    2121.8444    17.932697    23.257626    21.985588            0            0            0    9169.5722    4454.7606    2168.3137     -257.541    453.12398   -780.90793   -559.71694    17.932697    23.257626    21.985588           90           90           90 
  394000    246.77068   -145.15251   -117.62487   -145.15251            0    1550.5334    17.990396    23.521299    21.770958            0            0            0    9212.5438    1109.8746   -395.41411    3937.1398   -176.16831   -583.65644    949.18851    17.990396    23.521299    21.770958           90           90           90 
  394500    252.45746   -145.99906   -117.83705   -145.99906            0    905.89781    17.872197    23.481503    21.852623            0            0            0    9170.8039    4646.1859    582.27578   -2510.7683   -20.986801   -1597.1272   -711.24653    17.872197    23.481503    21.852623           90           90           90 
  395000    251.14661   -144.15673   -116.14094   -144.15673            0    2135.0979    17.808107    23.310075      22.2412            0            0            0    9232.5067   -1261.7164    3357.9288    4309.0813    154.55244   -1705.4294    1051.1815    17.808107    23.310075      22.2412           90           90           90 
  395500    248.31269   -145.18334   -117.48368   -145.18334            0    1129.6031    17.857789    22.986364    22.297185            0            0            0    9152.6742    4943.7558    112.87516   -1667.8218    819.05459    -2360.552    242.33121    17.857789    22.986364    22.297185           90           90           90 
  396000    251.73407   -146.71371    -118.6324   -146.71371            0    1668.5955    18.078118    23.039812    21.999958            0            0            0    9163.3444   -1973.0407    1642.9797    5335.8474   -2128.0454    973.37631     227.5914    18.078118    23.039812    21.999958           90           90           90 
  396500    260.49348   -148.39303   -119.33459   -148.39303            0    918.86541    18.161279    23.392052    21.792931            0            0            0     9258.282   -1327.0121   -3289.8082    7373.4166   -664.00579   -124.02952    1181.6037    18.161279    23.392052    21.792931           90           90           90 
  397000    248.54854   -145.20704   -117.48108   -145.20704            0    361.16276    17.914532     23.40468    21.871684            0            0            0    9170.4447     113.7582    2506.1779   -1536.4479    1930.3475   -1191.5144   -291.51822    17.914532     23.40468    21.871684           90           90           90 
  397500    258.65428   -146.08162   -117.22834   -146.08162            0    3623.7671    17.790481    23.344317    22.192713            0            0            0    9216.7806    4213.0965    1770.4658    4887.7391   -244.66472   -1248.3945    367.91454    17.790481    23.344317    22.192713           90           90           90 
  398000     241.0796   -144.77417   -117.88138   -144.77417            0    111.40072    17.823616    23.209294    22.160243            0            0            0    9167.1067    2300.9205     1135.671   -3102.3893    3452.3088   -757.22419    1143.0241    17.823616    23.209294    22.160243           90           90           90 
  398500    268.25731   -146.26465   -116.34015   -146.26465            0    1997.8014    18.004353    23.237053    21.968732            0            0            0     9191.017    700.07222    1480.3678    3812.9643   -636.84565    724.99949     -805.656    18.004353    23.237053    21.968732           90           90           90 
  399000    239.69554    -147.0332   -120.29481    -147.0332            0    2898.9391    18.049713    23.242941    21.929928            0            0            0    9200.2279    916.66891    2219.2357    5560.9128    1669.4318    144.31168   -2021.3072    18.049713    23.242941    21.929928           90           90           90 
  399500    244.22226   -145.47257   -118.22921   -145.47257            0    3096.9585    17.964546    23.196864    22.007462            0            0            0    9170.9746   -170.13329    5346.2907    4114.7182   -1300.3196   -1218.2005    1602.0848    17.964546    23.196864    22.007462           90           90           90 
  400000    249.02364   -146.95279   -119.17383   -146.95279            0     2532.444    17.863184    23.291281    22.136277            0            0            0    9209.9403    5856.9072    588.86423    1151.5606   -654.90438   -526.20267    -2063.044    17.863184    23.291281    22.136277           90           90           90 
Loop time of 2154.58 on 1 procs for 400000 steps with 864 atoms

Performance: 8.020 ns/day, 2.992 hours/ns, 185.651 timesteps/s
73.3% CPU use with 1 MPI tasks x 1 OpenMP threads

MPI task timing breakdown:
Section |  min time  |  avg time  |  max time  |%varavg| %total
---------------------------------------------------------------
Pair    | 1882.2     | 1882.2     | 1882.2     |   0.0 | 87.36
Bond    | 0.064769   | 0.064769   | 0.064769   |   0.0 |  0.00
Neigh   | 245.9      | 245.9      | 245.9      |   0.0 | 11.41
Comm    | 8.2721     | 8.2721     | 8.2721     |   0.0 |  0.38
Output  | 1.9416     | 1.9416     | 1.9416     |   0.0 |  0.09
Modify  | 14.609     | 14.609     | 14.609     |   0.0 |  0.68
Other   |            | 1.606      |            |       |  0.07

Nlocal:        864.000 ave         864 max         864 min
Histogram: 1 0 0 0 0 0 0 0 0 0
Nghost:        3757.00 ave        3757 max        3757 min
Histogram: 1 0 0 0 0 0 0 0 0 0
Neighs:         0.00000 ave           0 max           0 min
Histogram: 1 0 0 0 0 0 0 0 0 0
FullNghs:      170988.0 ave      170988 max      170988 min
Histogram: 1 0 0 0 0 0 0 0 0 0

Total # of neighbors = 170988
Ave neighs/atom = 197.90278
Ave special neighs/atom = 0.0000000
Neighbor list builds = 40000
Dangerous builds not checked

unfix		3
unfix		2

write_data	data.final.${pid}
write_data	data.final.0
System init for write_data ...

write_restart   restart.lmp.${pid}
write_restart   restart.lmp.0
System init for write_restart ...
Unloading pair style deepmd
Unloading compute style deepmd
Unloading fix style deepmd
Total wall time: 0:35:59
