LAMMPS data file via write_data, version 29 Sep 2021, timestep = 400000

1920 atoms
2 atom types

-0.13026649294403647 24.85467149294218 xlo xhi
-0.05789160724051001 24.782296607240475 ylo yhi
-0.016781266819634766 22.809153266818665 zlo zhi

Masses

1 1.008
2 15.999

Atoms # full

4 0 1 0 2.8537512865254766 1.4330297196547763 2.1706985258557556 0 0 0
5 0 2 0 3.234218635675935 1.3952345972365712 3.005358900423619 0 0 0
6 0 2 0 3.2588534914822342 2.1679922035265187 1.6794245420027 0 0 0
17 0 2 0 0.9581671751766951 1.5738767274166805 2.365818007434677 0 0 0
387 0 2 0 3.770379067463065 0.11535587397080474 0.8910243322946976 0 1 0
11 0 2 0 2.7645302069036752 3.6617499946838716 3.862907576379438 0 0 0
1455 0 2 0 1.6696883996063938 3.481204294236064 0.1979298209536354 0 0 1
16 0 1 0 -0.018839039478453987 1.5703228869968984 2.173154354751179 0 0 0
18 0 2 0 -0.070271988655154 0.8251179483022233 1.5586810990434707 0 0 0
99 0 2 0 0.3911072492178784 3.839669525775842 3.8978192843152817 1 0 0
19 0 1 0 4.457856265567289 3.1553992319402306 0.7411077861530568 0 0 0
2 0 2 0 5.350937977571742 1.4125924156240486 3.5635430460610453 0 0 0
46 0 1 0 6.219847814441543 1.2806450274058991 1.9467580612851616 0 0 0
47 0 2 0 7.17793861347573 1.270701717572984 1.991961930309189 0 0 0
48 0 2 0 5.935126422693343 2.0253200765002646 1.4273866661022199 0 0 0
1 0 1 0 4.604460163867489 1.4918236287417144 4.217094205035971 0 0 0
386 0 2 0 5.251043389043874 -0.030266952423223976 1.1094541568649559 0 1 0
45 0 2 0 6.735466804226683 3.2995321749713584 4.444319487252227 0 0 0
54 0 2 0 7.753180697312988 3.7127895372944084 1.149505234527055 0 0 0
32 0 2 0 11.783468249045146 1.7169420177373893 3.4270792939840455 0 0 0
34 0 1 0 9.188687783427584 1.5377756545517323 2.001920496802527 0 0 0
35 0 2 0 9.699748155942993 1.6227335313173235 2.800253871988343 0 0 0
36 0 2 0 9.548772858012404 2.1847013656595142 1.4307703591972338 0 0 0
49 0 1 0 10.67419500940006 3.2307684849773137 0.5243017127572521 0 0 0
51 0 2 0 11.595978676575424 3.0982348101037718 0.8046288591122542 0 0 0
31 0 1 0 11.010043160407974 1.6673040591450206 4.0506174326655024 0 0 0
42 0 2 0 9.147184368815775 3.9567847788873003 4.247066415392967 0 0 0
416 0 2 0 10.396371264280214 0.20937938210694013 1.1747050387125968 0 1 0
78 0 2 0 12.47357541723589 0.8652391694171235 1.5276539624775363 0 0 0
76 0 1 0 12.705457804385519 1.712050575647093 1.9492011940608782 0 0 0
38 0 2 0 12.67890747502526 4.0508881517359026 3.861574349138673 0 0 0
64 0 1 0 15.368073078109123 1.6652189142108011 1.8492351029533132 0 0 0
65 0 2 0 15.8898478737909 1.822300501060753 2.7060426819089014 0 0 0
66 0 2 0 15.888108304709723 0.9335375000668162 1.4588752308938817 0 0 0
77 0 2 0 13.659808742932167 1.7078231265579826 2.079373194970161 0 0 0
80 0 2 0 16.41344869771327 3.018853752234348 0.7902559176403966 0 0 0
75 0 2 0 14.599530768666693 2.9995510399994534 4.198296188123479 0 0 0
62 0 2 0 17.77800794264205 1.8128413869279127 3.3816852201936505 0 0 0
79 0 1 0 17.36007183984787 3.2901923119755665 0.6042878724672935 0 0 0
106 0 1 0 18.732923363901612 1.3314973409313615 1.8529901081969635 0 0 0
107 0 2 0 19.674595832793003 1.355790346887737 2.163349079626655 0 0 0
108 0 2 0 18.548772427931944 2.211276919596607 1.4484773078834607 0 0 0
446 0 2 0 17.78541608484663 0.1690494906580064 0.8948501501658096 0 1 0
61 0 1 0 17.1269729217165 1.7232267163121435 4.143090413596184 0 0 0
1545 0 2 0 20.05340397704363 3.1579508473524065 0.1617245113124617 0 0 1
63 0 2 0 17.39510535292461 0.8126926208381181 4.477274532258541 0 0 0
92 0 2 0 23.847426079449463 1.4612811045086807 3.5471745334419644 0 0 0
94 0 1 0 21.368913599186598 1.087290178996306 2.15733882917044 0 0 0
95 0 2 0 21.81938262474734 0.922037464842204 3.003965629387406 0 0 0
96 0 2 0 21.69833306425607 1.9397834511552559 1.8368461558868288 0 0 0
109 0 1 0 22.966628889292934 2.837626507478556 0.7331264893105793 0 0 0
110 0 2 0 23.75989490871401 2.5217380666292635 1.2392467214360396 0 0 0
91 0 1 0 23.048599806269507 1.3833603206156388 4.059456504642691 0 0 0
111 0 2 0 23.082017887869398 3.7997076755809647 0.5636098910052604 0 0 0
476 0 2 0 22.79208662173854 0.113182951516372 0.9933481992085658 0 1 0
24 0 2 0 2.2881224059334517 4.756324236828397 1.9644440707904267 0 0 0
10 0 1 0 3.104286217575844 4.499669453961267 3.5420948811773294 0 0 0
22 0 1 0 1.586725215085525 4.655605758187411 1.328236325480669 0 0 0
23 0 2 0 1.5273335464041846 5.334360082063724 0.6633419205302636 0 0 0
124 0 1 0 2.899975748697331 7.447765487937115 2.2145630707527637 0 0 0
136 0 1 0 0.24020749599951002 7.680911696226035 1.8840754891482379 0 0 0
126 0 2 0 1.9398087139449043 7.327833762590996 2.2240607804486494 0 0 0
98 0 2 0 0.3563602035736172 4.743205290866886 2.5780096210791053 1 0 0
27 0 2 0 4.01664893786155 6.154037101817616 1.474633750056825 0 0 0
97 0 1 0 -0.08862366753066324 4.614094921404034 3.4756772551558583 1 0 0
125 0 2 0 3.1117604709465128 8.17673837616365 1.6161353472038376 0 0 0
21 0 2 0 4.381652199773719 4.104515520210103 0.6680597982412206 0 0 0
122 0 2 0 4.117634233665006 7.6289509254422105 3.655233139395687 0 0 0
12 0 2 0 4.053363317992248 4.443532033814721 3.4333428220224556 0 0 0
25 0 1 0 4.7008507798289125 5.841847951722376 0.8828541584413875 0 0 0
8 0 2 0 6.19116113913933 4.620321701715267 2.6948561490418967 0 0 0
7 0 1 0 5.737152973954704 4.634035127448442 3.527915390992383 0 0 0
52 0 1 0 7.702841919433669 4.6069636246862 1.536554553177052 0 0 0
166 0 1 0 6.454349060986553 7.7608586803823645 2.2151249680125917 0 0 0
168 0 2 0 6.054854906868204 6.875276070390356 2.1329962501218054 0 0 0
9 0 2 0 6.297421957782093 5.1333777967228755 4.12647238303822 0 0 0
167 0 2 0 6.096217155795529 7.963924452360379 3.069867209102637 0 0 0
121 0 1 0 4.733093902206293 7.574861633163156 4.395015609643108 0 0 0
1619 0 2 0 7.732135726330911 5.829751358850219 0.21668480081828215 0 0 1
26 0 2 0 4.632578432533789 6.320096296070983 0.027559278788563048 0 0 0
50 0 2 0 10.667920054258673 4.187401864200589 0.3552476598489639 0 0 0
156 0 2 0 8.231804148095128 7.540139564577939 2.4453110587421882 0 0 0
53 0 2 0 8.48569071890967 4.60632325032503 2.1567817275293386 0 0 0
180 0 2 0 8.452675574503054 5.821194101981634 4.40724878426002 0 0 0
41 0 2 0 10.492143968442695 4.647102713165432 3.5302080353131706 0 0 0
40 0 1 0 9.466268442379002 4.68924190199078 3.713895979577491 0 0 0
55 0 1 0 10.790109856787625 5.9594534539036506 0.5788267985482543 0 0 0
56 0 2 0 10.016405488765459 6.484536186205952 0.9038461592667388 0 0 0
57 0 2 0 11.434014190508694 6.225551557736194 1.2297703479481419 0 0 0
153 0 2 0 11.525473480577276 7.669932758382145 3.849067362644575 0 0 0
154 0 1 0 9.203255285398768 7.659336739309623 2.368712158362698 0 0 0
152 0 2 0 10.028182732096456 7.76512684165737 3.839979967132602 0 0 0
151 0 1 0 10.775556353611837 7.696080243462367 4.461457454883839 0 0 0
37 0 1 0 12.072971384902587 4.628822980052961 3.3839465373214623 0 0 0
39 0 2 0 12.341019017378693 5.498831605617481 3.7566927655038858 0 0 0
196 0 1 0 12.500384676955424 7.5654008318066746 2.2763264477343 0 0 0
72 0 2 0 15.29950476229052 4.419405585712578 2.5935836498093816 0 0 0
70 0 1 0 15.853968910301152 4.389190238111845 3.4179808466107184 0 0 0
83 0 2 0 13.373965224378377 4.829779459391317 1.8308084675871028 0 0 0
82 0 1 0 14.074752729209818 4.648233440056339 1.1869450370428671 0 0 0
84 0 2 0 14.134872274955663 5.3878251531279355 0.5343586697426406 0 0 0
186 0 2 0 15.62068227923831 7.635777135031475 3.09206329526644 0 0 0
198 0 2 0 13.423769634561133 7.811032887342724 2.339847508222145 0 0 0
71 0 2 0 15.368862725506478 5.021011592832719 3.963458988518741 0 0 0
184 0 1 0 15.32139540116876 7.8413414571660205 2.1823306035678414 0 0 0
86 0 2 0 16.255471712329765 6.246282432513209 1.2362172766283632 0 0 0
69 0 2 0 17.48109739873407 4.639914945456904 3.4632306552935663 0 0 0
67 0 1 0 18.46314808578284 4.821943398660767 3.52761999299799 0 0 0
112 0 1 0 20.33492305531113 4.281653691119686 1.542748291848643 0 0 0
113 0 2 0 19.50094053949229 4.456458233571707 2.0886211138328874 0 0 0
87 0 2 0 17.12524054314354 5.035639954776266 0.6961883195994408 0 0 0
226 0 1 0 18.962124069515347 7.753764503464311 2.233079611587218 0 0 0
228 0 2 0 18.542667386686965 6.949466394582898 1.8607529493440755 0 0 0
183 0 2 0 17.86961941634651 7.812671311174256 3.866502444007365 0 0 0
85 0 1 0 16.995487949977154 6.002179256335863 0.6979872959658191 0 0 0
1679 0 2 0 20.341085590128856 5.679725715025101 0.25681028679338597 0 0 1
216 0 2 0 20.59322494419461 7.939537771083877 1.9441504367598483 0 0 0
68 0 2 0 18.7647961008325 4.161330616533147 4.136188932368732 0 0 0
181 0 1 0 17.21116723647699 7.719744308298285 4.543998642968539 0 0 0
240 0 2 0 19.722822073637744 5.976251227087551 4.488933217268591 0 0 0
137 0 2 0 24.696838669911564 7.660339223171914 2.6846220970327535 -1 0 0
114 0 2 0 21.04523302599258 4.132127678351287 2.1899778757774335 0 0 0
138 0 2 0 24.754443786999552 7.000925217390053 1.2734569978580772 -1 0 0
102 0 2 0 23.15980824177347 4.397728008744162 3.345897418318723 0 0 0
100 0 1 0 22.20062107614892 4.322861920894019 3.4320388322038635 0 0 0
115 0 1 0 23.221337419952953 5.652315477720178 0.7155720636345453 0 0 0
116 0 2 0 22.57183031053561 6.086042578710596 1.2908342021680093 0 0 0
213 0 2 0 22.74312721428037 7.869554234435424 3.4079435471622572 0 0 0
214 0 1 0 21.600457291127185 7.822004211240257 1.8859074342905997 0 0 0
101 0 2 0 21.864612476536486 5.171514727347907 3.7272253507687116 0 0 0
211 0 1 0 23.473544276912435 7.74504762587157 4.038890607027679 0 0 0
130 0 1 0 2.9445666231963323 10.920372245712581 3.828746693816011 0 0 0
142 0 1 0 1.763855608629213 11.171632819166005 1.5934482761733495 0 0 0
143 0 2 0 2.2617669311774895 11.155296169963577 2.409322978263158 0 0 0
144 0 2 0 1.9630215423483568 10.297696045228832 1.184962730099161 0 0 0
132 0 2 0 2.5504266838224625 11.675427327618666 4.3078800492421285 0 0 0
219 0 2 0 0.09966950867304239 10.96270744145497 2.7668559652105142 1 0 0
218 0 2 0 0.017614332287690992 10.249316232231513 4.140242005365747 1 0 0
135 0 2 0 2.118088731460076 9.414372961739941 4.366875076263513 0 0 0
269 0 2 0 0.6438098619966908 12.240789782441944 4.436686540187266 0 0 0
131 0 2 0 3.8884488619871496 10.95273542082663 4.047476666010456 0 0 0
141 0 2 0 4.40209108446576 10.428948221935087 0.664167173620703 0 0 0
139 0 1 0 4.510890054959312 9.452578958245013 0.7674278697128489 0 0 0
127 0 1 0 5.720232650602023 10.85113066640348 3.949760341864726 0 0 0
129 0 2 0 6.076691960365469 10.967589892488856 3.031177235727804 0 0 0
140 0 2 0 5.153559333356916 9.384077343645163 1.4876366024396521 0 0 0
172 0 1 0 7.16131064992094 10.79223852986216 1.515734153719189 0 0 0
173 0 2 0 7.300708080973966 9.975487586530441 0.9385567082517093 0 0 0
128 0 2 0 6.19713641176015 10.061542850066466 4.2787451931824165 0 0 0
145 0 1 0 4.414288811172475 12.150955906670667 0.5572341815661841 0 0 0
174 0 2 0 8.011321673721026 10.870189324491509 2.025743898265173 0 0 0
1740 0 2 0 7.141751945737743 12.199540819372157 0.2038776524383017 0 0 1
155 0 2 0 9.308759100469922 8.415952875085106 1.7572359431405054 0 0 0
165 0 2 0 8.472774733123824 9.43626579643488 4.3980978829962245 0 0 0
197 0 2 0 12.051116714293286 8.368746343569724 2.0006574092911444 0 0 0
160 0 1 0 9.23426499694723 10.825829679729638 3.29659890413339 0 0 0
161 0 2 0 10.19067096069928 10.925783603328219 3.587561266579118 0 0 0
169 0 1 0 10.897531478257488 9.475862038992764 1.0652490392207679 0 0 0
171 0 2 0 10.771405137949518 10.450304668938259 0.9178359214051323 0 0 0
157 0 1 0 11.86376619085696 11.078207435097148 3.78415481497698 0 0 0
175 0 1 0 10.663697924810412 12.220216213271552 0.8155109712365732 0 0 0
170 0 2 0 11.102169285302903 9.125308524279069 0.20828566118184833 0 0 0
162 0 2 0 8.773291107156489 11.47010989124203 3.9155982226939314 0 0 0
159 0 2 0 12.037164391415672 10.906655219213818 2.8710325250168642 0 0 0
185 0 2 0 15.935171606707529 8.580586902870944 1.7961401402547374 0 0 0
158 0 2 0 12.409020455467102 10.351887493578257 4.215691975038333 0 0 0
190 0 1 0 15.74456844452849 11.002966856433927 3.6430031628923576 0 0 0
192 0 2 0 15.258549920911877 11.007099829255461 2.7561280354016815 0 0 0
202 0 1 0 13.948948403090682 10.756028849693134 1.6175735617504183 0 0 0
203 0 2 0 13.860538847786453 11.465910613067336 0.9939413411221922 0 0 0
204 0 2 0 13.795719039916792 9.937882369619981 1.0788457286979887 0 0 0
194 0 2 0 14.630750229707852 9.753293798191484 4.328197962030267 0 0 0
191 0 2 0 16.710020466527148 10.889543003440721 3.5222982895434307 0 0 0
227 0 2 0 18.496996348029356 8.529604808163933 1.7237497153615158 0 0 0
199 0 1 0 17.295859143895804 9.582137342904858 0.9852600622233538 0 0 0
187 0 1 0 18.47394376033555 10.825706433393927 3.662366377308772 0 0 0
189 0 2 0 18.895810514297494 10.823399439004943 2.7434653640002407 0 0 0
232 0 1 0 20.050369641341582 10.855346368331425 1.445625697918849 0 0 0
200 0 2 0 17.19758708563475 10.51439078306303 1.0763022973499814 0 0 0
234 0 2 0 20.00747272468564 10.10317246649129 0.8607672606509924 0 0 0
188 0 2 0 18.833766513043216 9.99467051154087 3.9999688150771116 0 0 0
201 0 2 0 17.03882713683157 9.188788436366046 0.15230724427132727 0 0 0
1800 0 2 0 20.11339409328434 12.275772308393954 0.24661190399574084 0 0 1
233 0 2 0 20.847483238813382 10.745360475310923 2.0021583521022634 0 0 0
215 0 2 0 22.033305121761003 8.513782924889398 1.3388971632322069 0 0 0
217 0 1 0 24.522418267102232 10.883742836183053 3.5288033885653087 0 0 0
220 0 1 0 21.81351649472097 10.752791720234136 3.49500403461951 0 0 0
221 0 2 0 22.79965347614057 10.77664426556996 3.5071506728967643 0 0 0
229 0 1 0 23.249352522985795 9.40149794461657 0.607518876722309 0 0 0
230 0 2 0 23.948592097465635 9.165257532103352 1.1998064862474316 0 0 0
231 0 2 0 23.263641608465868 10.35263745654276 0.48771793582540834 0 0 0
222 0 2 0 21.467583962390144 11.465474916591821 4.061335109246575 0 0 0
235 0 1 0 23.35383015727325 12.084854806154812 0.8998591788288658 0 0 0
225 0 2 0 20.919780860834486 9.443993137214541 4.217557880885431 0 0 0
244 0 1 0 2.850371212316361 13.903846534742806 2.06131912415295 0 0 0
245 0 2 0 1.8640829738067648 13.92518628877468 2.2163693212303666 0 0 0
246 0 2 0 3.094074953850823 13.240706654833478 1.3944212280867239 0 0 0
256 0 1 0 0.177316746211225 14.112598122841542 2.1470167190767753 0 0 0
242 0 2 0 3.756700957787939 13.809245455883447 3.576451973631739 0 0 0
255 0 2 0 0.6859260869958417 15.941926953440985 4.2587377616159845 0 0 0
251 0 2 0 2.945266124711583 16.415255658337813 4.014148384759697 0 0 0
1709 0 2 0 1.4737201267823135 12.47409831025711 0.05762865661456083 0 0 1
260 0 2 0 4.040471750868861 15.411012612311593 1.0133932041094214 0 0 0
147 0 2 0 5.221444614216108 12.40413204135898 0.9694032232560896 0 0 0
259 0 1 0 4.904605291297778 15.583497108260326 0.727093820247436 0 0 0
286 0 1 0 6.318356775594775 14.017655925412354 2.3007315058211018 0 0 0
287 0 2 0 5.745184991691546 13.955276888679501 3.07953245151043 0 0 0
288 0 2 0 5.954540963085471 14.71161858035762 1.728116922866862 0 0 0
241 0 1 0 4.3722748066383526 13.737687800001646 4.393714758685921 0 0 0
1725 0 2 0 7.742355900587001 15.582408399811039 0.3942046916356439 0 0 1
276 0 2 0 8.075030094971133 13.865384078301215 2.2188293829209753 0 0 0
248 0 2 0 6.270785201256433 16.42259929361986 4.009015358704087 0 0 0
176 0 2 0 9.928693208751785 12.582097018623093 1.330088521711229 0 0 0
272 0 2 0 11.238944973293734 13.803432633966615 3.762531920096348 0 0 0
274 0 1 0 9.034987279811054 13.854230855851156 2.2576793041903818 0 0 0
275 0 2 0 9.349014042172811 13.735419089995217 3.145705553974064 0 0 0
289 0 1 0 11.035023072349412 15.629612628401308 0.8616511468200125 0 0 0
291 0 2 0 10.179051599870018 15.207766224167887 1.1115644259927342 0 0 0
271 0 1 0 10.484221860929825 13.756108928092049 4.3585683514687465 0 0 0
317 0 2 0 12.231229952450823 14.549635918509951 1.8714552353302254 0 0 0
318 0 2 0 12.112433189329717 13.02700270361307 1.8823441443626432 0 0 0
281 0 2 0 8.80507416105742 16.021655726061894 3.776928578141099 0 0 0
177 0 2 0 10.736528278568215 12.802224324993384 0.0024970075328745144 0 0 0
316 0 1 0 12.499228909726355 13.754934404308125 2.3925524959747677 0 0 0
304 0 1 0 15.081510816498387 13.864902811537164 2.2960401400910158 0 0 0
305 0 2 0 14.119605300041549 13.74933216113385 2.4225964804679716 0 0 0
306 0 2 0 15.334806261054082 13.106629202498697 1.7215259734291954 0 0 0
320 0 2 0 16.16210874659175 15.077295404998393 1.0803009066845248 0 0 0
315 0 2 0 13.250878662726048 15.524704770036807 4.547783013926644 0 0 0
311 0 2 0 15.283898260810977 16.26827780692457 3.7597717334160397 0 0 0
302 0 2 0 16.252007440725663 13.971051884662934 3.54923097960993 0 0 0
205 0 1 0 16.853773022490834 12.367164001992672 0.774850815837968 0 0 0
207 0 2 0 17.518739476006466 12.833678522289834 1.2413564396654033 0 0 0
319 0 1 0 16.90112234355297 15.563041088150404 0.7461045197631428 0 0 0
346 0 1 0 18.85997433907813 13.709009218289017 2.176513443690706 0 0 0
347 0 2 0 18.54611094613105 14.484298006983364 1.7179422379668066 0 0 0
348 0 2 0 18.39666314778126 13.789314828176156 3.0578996400200333 0 0 0
301 0 1 0 17.063897896075595 14.096819444341868 4.065183322934915 0 0 0
335 0 2 0 20.670943877363214 13.900669081163787 1.8838248336077905 0 0 0
309 0 2 0 18.36683209688359 16.211664294238226 4.139633884626859 0 0 0
345 0 2 0 20.428625675303863 15.713501780457324 4.507539963847536 0 0 0
359 0 2 0 19.771495011929197 12.44911283176829 4.291442010959694 0 0 0
258 0 2 0 24.803712106396688 13.30880677435233 1.7149743486996218 -1 0 0
257 0 2 0 24.609226775715413 14.056816184566134 2.9916228499858595 -1 0 0
237 0 2 0 22.446048405454903 12.370814080739049 1.0988947928018604 0 0 0
332 0 2 0 22.479221104335345 14.004606747025456 3.4501609714669894 0 0 0
334 0 1 0 21.631802259222482 13.98893566780096 1.9887726813038746 0 0 0
336 0 2 0 21.881194127434846 14.761286597285485 1.4156259169720025 0 0 0
349 0 1 0 23.2361637988774 15.378304152194369 0.37815121218698394 0 0 0
350 0 2 0 24.067763434870997 15.158496837385472 0.7574619875699481 0 0 0
331 0 1 0 23.229318326079962 14.066021956228527 4.106234589308248 0 0 0
351 0 2 0 23.278188109825777 16.36307134120494 0.3273398446707698 0 0 0
236 0 2 0 23.561371545313712 12.5562220431469 0.09499369497923137 0 0 0
264 0 2 0 0.5626512141460435 16.7695843534269 1.696894012825938 0 0 0
262 0 1 0 1.391336646045122 16.792488414961877 1.1816884472498759 0 0 0
250 0 1 0 3.3042041663808517 17.001182195820686 3.3555202142966967 0 0 0
263 0 2 0 2.1193236156109396 16.701210834917486 1.8537171571986468 0 0 0
364 0 1 0 2.9075292139913897 20.29879018722479 1.6061662462793043 0 0 0
366 0 2 0 1.957749462126133 20.375408268424742 1.8105520545071352 0 0 0
376 0 1 0 0.02549829314965868 20.20661519807657 1.9506041443457698 0 0 0
363 0 2 0 3.662625013921622 20.378048688763773 3.1640830991914193 0 0 0
338 0 2 0 0.03796115040858852 17.840412382492033 3.901566959131082 1 0 0
267 0 2 0 3.8184580531802705 18.83449419142287 0.8926907249449529 0 0 0
390 0 2 0 2.172614502226236 18.259334840073585 3.944706840988029 0 0 0
388 0 1 0 1.4598756292061132 18.68519904607099 4.4866809499634215 0 0 0
378 0 2 0 -0.1104131078065212 19.993063086275335 2.8408829907176494 0 0 0
252 0 2 0 4.181704191641642 17.225098767548324 3.7408694575651844 0 0 0
249 0 2 0 6.320331777452507 17.295949267205607 2.7905955972785983 0 0 0
266 0 2 0 4.402960782016293 17.39253644321356 0.6393616159036284 0 0 0
265 0 1 0 4.620034676349595 18.344266935579746 0.7107553600634694 0 0 0
247 0 1 0 5.898039602151864 17.293383408343857 3.671073785143838 0 0 0
408 0 2 0 5.923931591751919 19.4839804890341 1.4189870518537273 0 0 0
406 0 1 0 6.37328950306413 20.282844105396535 1.8233400060449767 0 0 0
361 0 1 0 4.417700518963371 20.403022099491544 3.8101032472707392 0 0 0
294 0 2 0 7.8221986471021125 17.909259400049717 0.7408179029750477 0 0 0
407 0 2 0 5.790117567447026 20.44446047847413 2.5832423869192445 0 0 0
292 0 1 0 7.570818312729691 17.21150993708996 1.3490198052108688 0 0 0
419 0 2 0 7.11308889405784 18.248024481049338 4.267568969292138 0 0 0
362 0 2 0 4.308120131310406 19.623881983507015 4.383898332341667 0 0 0
404 0 2 0 7.3658323298914015 20.533265191264547 4.467098812130326 0 0 0
395 0 2 0 8.254274173659457 20.2643476651638 1.970841744546884 0 0 0
290 0 2 0 10.914482537329063 16.6141462349881 0.7386810770655116 0 0 0
278 0 2 0 11.35394103158723 17.0032339773262 3.4087804078251542 0 0 0
293 0 2 0 8.308938252143452 17.136965545586012 2.012231189197279 0 0 0
280 0 1 0 9.385657295470896 16.748456502817668 3.3909436348604323 0 0 0
295 0 1 0 10.831497914757934 18.455652515256933 0.7801571396363918 0 0 0
296 0 2 0 10.089196994603592 18.913020539715248 1.2210196386611822 0 0 0
394 0 1 0 9.192349509380206 20.134031573926325 1.9959644935626981 0 0 0
396 0 2 0 9.460686154121143 20.128674624795416 2.9186474380277443 0 0 0
393 0 2 0 11.506040861236624 20.093450579996688 3.8570060090048948 0 0 0
282 0 2 0 9.12531487006298 17.556575687886795 3.82972967805839 0 0 0
391 0 1 0 10.66887100058906 19.986466050172908 4.370014996421896 0 0 0
437 0 2 0 12.220548144231968 19.192001070272607 1.829433470181556 0 0 0
277 0 1 0 12.352010623061394 16.977127325218238 3.303732644451043 0 0 0
436 0 1 0 12.494694499157378 19.95800507754323 2.343392430550449 0 0 0
279 0 2 0 12.592232000183397 17.816038632086112 3.721407825133973 0 0 0
322 0 1 0 13.72660456789853 17.173941159893285 0.9803062857134227 0 0 0
324 0 2 0 14.553745466565106 17.34327542178798 1.4225010212121694 0 0 0
323 0 2 0 13.158259359820033 16.8593640359018 1.6674046532728484 0 0 0
310 0 1 0 15.550614417569898 17.092919539269413 3.306052999218273 0 0 0
424 0 1 0 15.347386740058244 20.04337966414448 2.061401215841979 0 0 0
312 0 2 0 15.06962349482932 17.800624199001216 3.7466563059074787 0 0 0
425 0 2 0 14.358421612928694 20.06498479678612 2.044891380898053 0 0 0
326 0 2 0 16.39547487550118 18.800584414595697 1.0963555308794417 0 0 0
423 0 2 0 16.318712990075753 20.021773775858257 3.830004300341615 0 0 0
321 0 2 0 16.801467449954565 16.536742116341227 0.7675167093474579 0 0 0
353 0 2 0 19.425022111227555 17.010366812133775 2.2357178502642028 0 0 0
308 0 2 0 17.287079220387604 17.08832195933441 3.442311835854803 0 0 0
352 0 1 0 20.004581180534196 16.778712455020955 1.5662522787584738 0 0 0
307 0 1 0 18.256565068820557 17.019811034154024 3.5938785614779345 0 0 0
325 0 1 0 17.053809538213955 18.294745890759106 0.5581327391481667 0 0 0
468 0 2 0 18.28626128009968 19.527773232693843 1.821172063339165 0 0 0
421 0 1 0 17.06548049692669 20.19771297117797 4.407051870420776 0 0 0
354 0 2 0 20.080892958336136 17.455461081049318 0.9219003238557897 0 0 0
466 0 1 0 18.822471717865533 20.342340288224683 1.9819041002390627 0 0 0
467 0 2 0 18.584502096970773 20.61892086838046 2.946433578134322 0 0 0
480 0 2 0 19.324019507018832 18.181046486411407 4.344238868594838 0 0 0
455 0 2 0 20.73991228543383 19.986103738268472 1.9541667710389137 0 0 0
342 0 2 0 21.398438561682227 16.85220860796223 2.8362034243029477 0 0 0
337 0 1 0 24.713050099761787 17.059887540314257 3.3391373924550973 0 0 0
339 0 2 0 23.728688852988462 17.116968372596922 3.353206085267083 0 0 0
340 0 1 0 21.774575501298877 16.86842409728588 3.7506977165277195 0 0 0
355 0 1 0 23.348138109679404 18.15945827614206 0.6193864581412972 0 0 0
356 0 2 0 24.174591750829286 18.481169511811157 1.0439760773522904 0 0 0
456 0 2 0 22.082973419161064 19.234736881654783 1.5183129713351604 0 0 0
341 0 2 0 21.310473964601435 17.59191813361906 4.223797992089434 0 0 0
453 0 2 0 22.68583976794011 19.708183582568033 3.6744482862653793 0 0 0
451 0 1 0 23.318180790481662 19.91589308496525 4.383679529285058 0 0 0
454 0 1 0 21.72238937095944 19.989629754960372 2.009137435410292 0 0 0
365 0 2 0 3.206237567950905 21.120604404864707 1.1145451989305104 0 0 0
370 0 1 0 3.1707090362543164 23.2928194080062 3.5552800038078156 0 0 0
371 0 2 0 2.6447445137669487 23.10086220845622 2.8038804860515376 0 0 0
382 0 1 0 1.4761466083320551 23.37563524123826 1.42199438678997 0 0 0
383 0 2 0 1.335202470656877 22.568984881675814 0.9281306775103464 0 0 0
384 0 2 0 1.4106975501034844 24.104341630551442 0.7794285679391069 0 0 0
372 0 2 0 2.7285624747463753 24.007365065023105 4.021457270371405 0 0 0
459 0 2 0 -0.12136006264333353 23.396269469127134 2.6323874152276225 1 0 0
458 0 2 0 0.007658278106485644 22.31762439937616 3.762009754847041 1 0 0
29 0 2 0 0.4533687265019578 24.39706841218982 4.270124181010065 0 -1 0
374 0 2 0 2.2481772969867175 21.880782632313714 4.399950055580876 0 0 0
385 0 1 0 4.5461376916535166 24.594322964753523 0.45875197575983684 0 0 0
381 0 2 0 4.674608679992769 22.739366644134744 0.35387238335953625 0 0 0
367 0 1 0 5.914876989847251 23.553135884763964 3.366383020983083 0 0 0
368 0 2 0 4.942451650997088 23.468932690040564 3.429658628096597 0 0 0
379 0 1 0 4.665796164121569 21.75320620803774 0.3704858379395427 0 0 0
380 0 2 0 5.478302169148525 21.596368023017178 0.8587119145480058 0 0 0
414 0 2 0 7.013902704235388 23.42636741893111 2.0361683022196626 0 0 0
369 0 2 0 6.258279414040351 22.754402246140963 3.7576775940618665 0 0 0
412 0 1 0 7.68573329014345 23.29306967645836 1.3757288743001475 0 0 0
413 0 2 0 7.6661792104706885 23.98019026362337 0.6986253887378746 0 0 0
60 0 2 0 6.924128935363918 24.676006047370706 4.3463053902950985 0 -1 0
405 0 2 0 8.191712268384395 21.83683007231719 4.0057153755282 0 0 0
403 0 1 0 7.3655281696744614 21.53317707038399 4.393076131528886 0 0 0
1845 0 2 0 7.879530384244752 22.092731548624485 0.07170037153724054 0 0 1
415 0 1 0 10.987040864986918 24.55127397971803 0.620806700843745 0 0 0
400 0 1 0 9.21720729591999 23.257102065945315 3.4327906537855344 0 0 0
401 0 2 0 10.128151854326973 22.977632661364357 3.4162305112332243 0 0 0
402 0 2 0 8.939263076404538 23.50355075217233 2.5333230102837883 0 0 0
409 0 1 0 10.992619547569582 21.971205070400163 1.1848639284134854 0 0 0
410 0 2 0 10.125538249574006 21.632057802404283 1.4165555049150573 0 0 0
411 0 2 0 10.870385035442306 22.88982957328769 0.9020253278179009 0 0 0
397 0 1 0 12.18200676206423 23.2404712696416 3.603481471481869 0 0 0
438 0 2 0 12.037393369527402 20.704421156499304 1.9169610221473834 0 0 0
59 0 2 0 8.452302747312062 24.76084352219802 4.431036791182566 0 -1 0
398 0 2 0 12.590619268768817 23.813973869331008 4.195672562372267 0 0 0
426 0 2 0 15.613165357452042 20.88618995332642 1.637015946075137 0 0 0
399 0 2 0 12.554196816762255 23.43762927876438 2.7609114631866865 0 0 0
430 0 1 0 15.496593962619277 23.215714792586546 3.3487538626321056 0 0 0
431 0 2 0 15.24903998488705 22.59309186928805 4.096712102855669 0 0 0
442 0 1 0 13.856602858143285 23.032874188211196 1.139449212272942 0 0 0
443 0 2 0 14.551341648501301 22.98640427166533 1.8279685656949274 0 0 0
444 0 2 0 14.007834028277625 23.851043509394835 0.7396335058215089 0 0 0
435 0 2 0 13.264999901796884 21.839652836867863 4.297609684429171 0 0 0
432 0 2 0 16.484663167143225 23.038925931655314 3.2787764647814055 0 0 0
90 0 2 0 14.684902171798912 24.711861237353162 4.364178716895851 0 -1 0
447 0 2 0 17.052739788423892 23.678577699532568 0.4690942675772545 0 0 0
445 0 1 0 17.04750201253207 24.65759993605334 0.41424385908975186 0 0 0
439 0 1 0 16.782813838020104 21.964368551501085 0.7889134465337005 0 0 0
427 0 1 0 18.35088700801351 23.233276275383737 3.3167748088056244 0 0 0
429 0 2 0 18.47435018856953 24.166799793885872 3.558916033517884 0 0 0
440 0 2 0 17.554161083751218 21.711846946791443 1.3129643594115765 0 0 0
474 0 2 0 19.597677910436033 22.863495885713522 1.5588029459726749 0 0 0
473 0 2 0 20.206841845650622 23.70972034797968 0.43064693627814465 0 0 0
428 0 2 0 18.889914306021723 22.747809093366318 3.8923616677464272 0 0 0
472 0 1 0 20.442358972094432 22.972620699765134 1.0825343278330217 0 0 0
120 0 2 0 20.59155546671593 24.504689677201885 4.307903084966015 0 -1 0
377 0 2 0 24.47986243600743 20.955150446785538 1.6015594142379845 -1 0 0
475 0 1 0 23.591610409588 24.53959355534099 0.6306913821813968 0 0 0
457 0 1 0 24.66576556979703 23.192626417410963 3.5701661844282677 0 0 0
460 0 1 0 21.7672913967915 23.42767422682124 3.5528012488636764 0 0 0
461 0 2 0 21.644102485181413 23.334542836435492 2.617149336155687 0 0 0
462 0 2 0 22.612738057487974 23.068686048787438 3.7040238359084086 0 0 0
469 0 1 0 23.33008191711908 21.804538323282287 0.6084973292295024 0 0 0
471 0 2 0 22.51665417202215 21.398838517323984 0.9336242603858397 0 0 0
477 0 2 0 23.429804562724485 23.605656236985336 0.5705849538721971 0 0 0
13 0 1 0 1.458026474788242 2.7411952559100974 4.732710220659038 0 0 0
14 0 2 0 1.1987943444460198 1.766258439907473 4.7842314065380105 0 0 0
15 0 2 0 1.483906154248101 3.09524316662692 5.668517033784067 0 0 0
484 0 1 0 2.625999234453068 1.2671252949024663 7.748473261600632 0 0 0
485 0 2 0 1.6363556562518504 1.3154261286722402 7.752663825799478 0 0 0
486 0 2 0 3.0401808926967235 2.043605563398661 7.343516185599354 0 0 0
28 0 1 0 1.1248975759735764 0.11518556777623312 4.751699375742742 0 0 0
866 0 2 0 3.659937804861363 0.0016936160408278778 6.831449543444872 0 1 0
44 0 2 0 7.691366505420329 2.124590626482554 4.89593854475536 0 0 0
500 0 2 0 4.516853332916281 2.8879563813052753 5.618889375558202 0 0 0
43 0 1 0 7.497784799622249 3.0892268296885343 4.9785040752239045 0 0 0
3 0 2 0 4.62376479377634 0.7914315244225795 4.898798303596466 0 0 0
499 0 1 0 4.57508580708895 3.0716646206108718 6.599366330755338 0 0 0
501 0 2 0 5.062665669338632 2.3508169887511827 7.027064244088315 0 0 0
526 0 1 0 5.977233083822927 1.0649792372330622 7.929972113228601 0 0 0
527 0 2 0 6.928805730626078 1.2658664653021612 7.9831940788974425 0 0 0
528 0 2 0 5.521523251975672 1.1830353922693027 8.802206217250562 0 0 0
58 0 1 0 7.6492014075222565 0.3328801430943914 4.751517409214771 0 0 0
534 0 2 0 7.582205623730042 3.978820013529541 6.613701058016593 0 0 0
33 0 2 0 11.327370501592801 2.131459444399942 4.816825719967184 0 0 0