LAMMPS (29 Sep 2021 - Update 2)
  using 1 OpenMP thread(s) per MPI task
echo both

include		in.partitions
variable        pid world 0
include		in.temp
variable        temperature equal 285
variable        tempDamp equal 0.100 # this is 0.1 ps
include		in.pressure
variable        pressure equal 9119.25
variable        pressureDamp equal 1.0 #this is 1ps
include		in.seed
variable        seed world 745823

units           metal
atom_style	full
include		in.box
read_data       iceVI.data
Reading data file ...
  orthogonal box = (0.0000000 0.0000000 0.0000000) to (24.724405 24.724405 22.792372)
  1 by 1 by 1 MPI processor grid
  reading atoms ...
  1920 atoms
Finding 1-2 1-3 1-4 neighbors ...
  special bond factors lj:    0        0        0       
  special bond factors coul:  0        0        0       
     0 = max # of 1-2 neighbors
     0 = max # of 1-3 neighbors
     0 = max # of 1-4 neighbors
     1 = max # of special neighbors
  special bonds CPU = 0.003 seconds
  read_data CPU = 0.028 seconds
include 	in.setup
variable	out_freq equal 500
variable	out_freq2 equal 500

timestep        0.0005

neigh_modify    delay 7 every 1

include         in.deepmd
# This is deepMD model

# create groups ###
#group ox type 2
#group hy type 1

mass 2 15.999
mass 1 1.008

pair_style      deepmd ../graph.pb
pair_coeff      * *

bond_style      none
angle_style     none
dihedral_style  none
improper_style  none
neigh_modify exclude none


neighbor        2.0 bin
neigh_modify    every 10 delay 0 check no

thermo          ${out_freq}
thermo          500
thermo_style 	custom step temp pe etotal epair emol press lx ly lz xy xz yz vol pxx pyy pzz pxy pxz pyz

restart 	${out_freq} restart.lmp.${pid} restart2.lmp.${pid}
restart 	500 restart.lmp.${pid} restart2.lmp.${pid}
restart 	500 restart.lmp.0 restart2.lmp.${pid}
restart 	500 restart.lmp.0 restart2.lmp.0


include         in.dump
dump            myDump all atom ${out_freq2} dump.water.${pid}
dump            myDump all atom 500 dump.water.${pid}
dump            myDump all atom 500 dump.water.0
dump            myDump2 all dcd ${out_freq2} dump.dcd
dump            myDump2 all dcd 500 dump.dcd
dump_modify     myDump append yes
dump_modify     myDump2 append yes


timer           timeout 03:55:00 every 1000
New timer settings: style=normal  mode=nosync  timeout=03:55:00

fix             2 all nph aniso ${pressure} ${pressure} ${pressureDamp}
fix             2 all nph aniso 9119.25 ${pressure} ${pressureDamp}
fix             2 all nph aniso 9119.25 9119.25 ${pressureDamp}
fix             2 all nph aniso 9119.25 9119.25 1
fix             3 all temp/csvr ${temperature} ${temperature} ${tempDamp} ${seed}
fix             3 all temp/csvr 285 ${temperature} ${tempDamp} ${seed}
fix             3 all temp/csvr 285 285 ${tempDamp} ${seed}
fix             3 all temp/csvr 285 285 0.1 ${seed}
fix             3 all temp/csvr 285 285 0.1 745823
velocity 	all create ${temperature} ${seed} dist gaussian
velocity 	all create 285 ${seed} dist gaussian
velocity 	all create 285 745823 dist gaussian

run             400000

CITE-CITE-CITE-CITE-CITE-CITE-CITE-CITE-CITE-CITE-CITE-CITE-CITE

Your simulation uses code contributions which should be cited:

- USER-DEEPMD package:

@article{Wang_ComputPhysCommun_2018_v228_p178,
  author = {Wang, Han and Zhang, Linfeng and Han, Jiequn and E, Weinan},
  doi = {10.1016/j.cpc.2018.03.016},
  url = {https://doi.org/10.1016/j.cpc.2018.03.016},
  year = 2018,
  month = {jul},
  publisher = {Elsevier {BV}},
  volume = 228,
  journal = {Comput. Phys. Commun.},
  title = {{DeePMD-kit: A deep learning package for many-body potential energy representation and molecular dynamics}},
  pages = {178--184}
}

CITE-CITE-CITE-CITE-CITE-CITE-CITE-CITE-CITE-CITE-CITE-CITE-CITE

Neighbor list info ...
  update every 10 steps, delay 0 steps, check no
  max neighbors/atom: 2000, page size: 100000
  master list distance cutoff = 8
  ghost atom cutoff = 8
  binsize = 4, bins = 7 7 6
  1 neighbor lists, perpetual/occasional/extra = 1 0 0
  (1) pair deepmd, perpetual
      attributes: full, newton on
      pair build: full/bin
      stencil: full/bin/3d
      bin: standard
Per MPI rank memory allocation (min/avg/max) = 9.089 | 9.089 | 9.089 Mbytes
Step Temp PotEng TotEng E_pair E_mol Press Lx Ly Lz Xy Xz Yz Volume Pxx Pyy Pzz Pxy Pxz Pyz 
       0          285   -333.91511    -263.2208   -333.91511            0    45824.603    24.724405    24.724405    22.792372            0            0            0     13932.89    46484.262    47870.683    43118.865   -804.87261   -388.88048   -358.12542 
     500    259.61668   -306.73185   -242.33387   -306.73185            0    4208.6637    24.871001     24.90831     22.90946            0            0            0    14192.287    5702.5106    5651.9418    1271.5387   -1759.3589   -2026.6946     1051.643 
    1000    286.96263   -305.60911   -234.42796   -305.60911            0    8176.5454    24.891808    24.908986    22.889706            0            0            0    14192.298     7511.546    4916.5508     12101.54    453.32385   -632.62973   -1024.4143 
    1500     286.9055   -304.71586   -233.54889   -304.71586            0     14043.05    24.886391    24.776754    22.819536            0            0            0    14070.617     12778.61    15411.548     13938.99    622.79601   -1902.0875    2043.0781 
    2000    285.18754   -302.51993    -231.7791   -302.51993            0    3983.6388    24.919553    24.919395    22.947316            0            0            0    14249.829    2617.9234    3773.1217    5559.8714    716.38269    -77.47226   -1416.6952 
    2500    296.03095   -303.05793   -229.62739   -303.05793            0    11361.162     24.80805     24.84176     22.87929            0            0            0    14099.949    9690.0336    13286.188    11107.263   -447.30352   -1037.7597   -2195.1281 
    3000      291.348   -303.58961   -231.32067   -303.58961            0    11242.594    24.876837    24.887008     22.92797            0            0            0    14194.937    13799.883    12375.449    7552.4497    548.18602    1746.0249   -43.320556 
    3500    279.26716   -302.60802   -233.33574   -302.60802            0    6069.0948    24.897619    24.826387    22.923164            0            0            0    14169.218    5081.7177    8490.6642    4634.9025    2599.7861    1705.3836   -943.73238 
    4000    282.62518   -303.84084    -233.7356   -303.84084            0    9248.7345    24.856513    24.827649    22.898207            0            0            0    14131.142    11864.535    7332.2839    8549.3847    833.44549   -951.39867   -1799.7274 
    4500    290.01825   -305.90026   -233.96117   -305.90026            0    7145.7124    24.909521     24.90968    22.899643            0            0            0    14208.958    6330.6753    8147.4385    6959.0233   -758.83104    1862.1835   -461.58635 
    5000    289.52709   -303.54142   -231.72416   -303.54142            0    9832.5187    24.822157    24.815025    22.809457            0            0            0    14049.768    13024.822     5061.019    11411.715   -273.26046    2314.1782   -1116.3338 
    5500    279.56817   -303.45202   -234.10508   -303.45202            0    9671.4624    24.890541    24.894274    23.001854            0            0            0    14252.683    8247.0758    10140.992     10626.32   -486.06294     1644.758     -173.016 
    6000    286.45009    -303.3303   -232.27629    -303.3303            0    7749.8524    24.764942    24.713025     22.94439            0            0            0    14042.349    11199.711    5081.4563    6968.3895     1291.431   -448.40196     381.9251 
    6500    285.35689   -305.70301   -234.92017   -305.70301            0    8056.9995    24.959299    24.866502    22.982759            0            0            0     14264.26    9285.1652    7225.0583    7660.7751    933.39252    659.99538    -441.2799 
    7000    290.39912   -302.23113   -230.19756   -302.23113            0    13107.537    24.871643    24.856674    22.800653            0            0            0    14095.964    10053.111    13361.093    15908.408   -38.672599   -646.37738    3007.4281 
    7500    280.80552   -301.28733   -231.63346   -301.28733            0     6556.084    24.916982     24.91165    22.841197            0            0            0    14178.059    8126.5291    6520.8663    5020.8567     1084.155     642.7299    315.65668 
    8000    292.84627    -305.6465   -233.00592    -305.6465            0    6889.3483    24.920271    24.860097     22.90954            0            0            0    14192.927    9253.8709    6724.6723    4689.5016     396.4918   -755.09018   -424.71717 
    8500    294.11432   -306.65888   -233.70376   -306.65888            0    10138.703     24.79754     24.78818    22.926135            0            0            0    14092.372    9994.7724    11482.997    8938.3398    428.82976    1474.0364   -244.45706 
    9000    289.71243   -302.23328   -230.37005   -302.23328            0      6078.63    24.820942     24.91836    23.014796            0            0            0    14234.586    6454.2799    5610.2903    6171.3199    45.466992    236.63382   -504.26553 
    9500    290.63044   -302.82476   -230.73382   -302.82476            0    11330.276    24.795857    24.847019    22.893041            0            0            0    14104.474    9236.6972     12247.69     12506.44    240.91638   -1236.4584   -1003.5329 
   10000    286.28307   -300.86058     -229.848   -300.86058            0    8885.2818    25.009512    24.900293    22.882738            0            0            0    14250.092     8307.835    11791.482    6556.5285    733.62426   -65.750384    3069.7732 
   10500    301.34199   -301.36423   -226.61628   -301.36423            0    7696.3356    24.932435    24.919315    22.823012            0            0            0    14179.919    7234.8962    5433.5833    10420.527    874.09132   -1492.8331    183.78172 
   11000    293.69742   -303.44712   -230.59541   -303.44712            0    8253.1454    24.802857    24.935303    22.892393            0            0            0    14158.184    8268.3554    8549.6717    7941.4092   -329.41641   -1424.7309   -1366.3416 
   11500     275.9135   -300.62219   -232.18179   -300.62219            0    9495.3772    24.751202    24.958962    23.034278            0            0            0    14229.755    11954.346    7906.9273     8624.858   -2557.0892    761.55406    1120.5888 
   12000    289.97115   -302.06972   -230.14231   -302.06972            0     8424.036    24.764115    24.710575    22.996572            0            0            0    14072.419    10716.787     7595.539    6959.7822   -546.12617    365.88611    421.89041 
   12500    288.20531   -301.76075   -230.27136   -301.76075            0    6511.8487    25.110808    24.858852    23.006162            0            0            0    14361.041    5337.4105    5503.9449    8694.1907    798.25896    1219.9717   -913.73291 
   13000    291.66643   -300.19046   -227.84254   -300.19046            0    10434.509    24.900076    24.874896    22.756198            0            0            0    14094.889    15670.274    5511.2607    10121.994   -1069.6704    700.37559    1780.1777 
   13500    281.61163   -302.70431   -232.85048   -302.70431            0     8463.499    24.826162    25.012713    22.852515            0            0            0    14190.719    7306.3559    8889.8967    9194.2443   -264.70641   -2244.5601    -566.7312 
   14000    284.58788   -304.60084   -234.00875   -304.60084            0    8101.0673    24.845379     24.93309     22.98505            0            0            0    14238.597    7992.8249    9330.0694    6980.3077   -1787.2991     124.4852    1142.8304 
   14500     279.6265    -304.3472   -234.98578    -304.3472            0    13569.903    24.873525    24.728339    22.876836            0            0            0    14071.107    11964.278    14924.198    13821.232    59.668251    1766.3369   -1998.2818 
   15000      292.006   -304.27293   -231.84078   -304.27293            0    6020.8006    24.970569     24.86535    22.960821            0            0            0    14256.418    5948.3114    6242.2404    5871.8499   -853.60681    1047.3979    1018.7512 
   15500    288.37596   -303.04598   -231.51426   -303.04598            0    10679.945     24.81858    24.867826    22.863114            0            0            0    14110.751    11898.009    10525.985    9615.8406    992.16984    673.08711   -2661.4303 
   16000    292.84378   -303.70513   -231.06517   -303.70513            0    7186.3216     24.85166    24.989933    22.904745            0            0            0    14224.793    8663.4376    5273.8397    7621.6874    976.67205   -54.970071   -471.22423 
   16500     287.3493    -302.3637   -231.08665    -302.3637            0    5534.4361    24.932732    24.879539    22.860329            0            0            0    14180.602    8967.7331    4468.4701    3167.1049    380.12653   -543.12585   -437.37314 
   17000    290.44275   -304.16583   -232.12145   -304.16583            0    10267.673    24.963293    24.753591    22.882496            0            0            0    14139.807    9387.0596     10162.64    11253.319    293.88108    29.356293   -1802.5376 
   17500    278.67547   -301.01277   -231.88725   -301.01277            0    9078.2301    24.869653    24.919794    22.966955            0            0            0    14233.693    10149.376    9808.5073    7276.8074    1090.4406   -127.98109   -1158.2488 
   18000    286.73983   -305.84911   -234.72323   -305.84911            0    9230.1423     24.71544    24.924402     22.88485            0            0            0     14097.47    11263.033    8026.3754     8401.018   -1132.3213   -956.09279   -1772.0258 
   18500    283.15508    -304.2318   -233.99512    -304.2318            0    10293.587    24.968081    24.866714    22.884178            0            0            0    14208.194    11931.025    7479.8209    11469.915    1070.5046   -1434.5412    146.25915 
   19000    286.13662   -303.05233   -232.07608   -303.05233            0    9740.4005    25.010213    24.743707    22.850101            0            0            0     14140.68    8056.3019    10164.302    11000.598    -115.1798    3453.8586    986.95543 
   19500     283.1598   -302.54499   -232.30714   -302.54499            0    9503.2928    24.813157     24.88894    22.946609            0            0            0     14171.21    12407.536    8517.5691    7584.7733    2796.5953    1963.1635   -101.20615 
   20000    281.22688   -303.97391   -234.21552   -303.97391            0    8783.0232    24.716854    25.029487      23.0209            0            0            0    14241.884    10508.118    9144.8969    6696.0544   -195.40212    3034.7236    1202.3686 
   20500    276.51116   -302.40674   -233.81809   -302.40674            0    14018.848    24.847734    24.758218    22.886864            0            0            0    14079.669    13208.547    15973.836    12874.162    38.607344     513.7087    246.20244 
   21000    282.70504   -303.42355    -233.2985   -303.42355            0    7854.6362    25.104719    24.777683    22.895224            0            0            0    14241.671    7070.6593    8079.3217    8413.9276    2523.9214   -1657.4446   -1513.5631 
   21500    279.56071   -304.72561   -235.38052   -304.72561            0    9538.0308     24.86827       24.881    22.858052            0            0            0    14143.361    9716.4971    8605.7312    10291.864   -160.89717   -1038.0777    -1245.173 
   22000    288.53162   -303.98994   -232.41961   -303.98994            0    8701.1978    24.799048    24.968756    22.900279            0            0            0    14179.885    10450.521    8817.9836    6835.0893    258.11284   -293.89805   -816.56234 
   22500    287.51396   -302.52841   -231.21051   -302.52841            0    9902.6016    24.863143    24.882326    22.929755            0            0            0    14185.557    13255.278    7250.6539    9201.8727   -1519.7391     1223.302    2034.2408 
   23000    279.94128   -304.54098   -235.10149   -304.54098            0     9011.202    24.889953    24.806438    22.921294            0            0            0    14152.319    6429.8478        10384    10219.758    874.18907    -1304.275   -315.70309 
   23500    283.92556   -302.66498   -232.23718   -302.66498            0    9337.2178     24.85834    24.915132    22.932058            0            0            0    14202.944    9350.4157    8333.9578     10327.28   -2183.4377   -3081.6249    619.19496 
   24000    291.22201   -301.10019   -228.86251   -301.10019            0    8994.7551    24.844244    24.898663    22.876389            0            0            0     14151.07     11960.08    7824.4304    7199.7544    81.767171   -2163.7318    2439.0245 
   24500    278.11779   -300.64361   -231.65643   -300.64361            0    5892.3735    24.968657    24.909433    22.889132            0            0            0    14236.012    4840.5002    7676.1331     5160.487    1316.9458   -3555.2119   -1371.4152 
   25000    290.03667   -300.16645   -228.22279   -300.16645            0     13108.35    24.920468    24.813964    22.895531            0            0            0    14158.038    13429.612    13946.662    11948.776   -267.54234   -97.300642   -227.13919 
   25500    293.62523   -303.05187   -230.21807   -303.05187            0    10347.026    24.872444    24.911144    23.020096            0            0            0    14263.275    8807.4144    11688.812    10544.852   -92.847552   -736.70869    891.30701 
   26000    290.09022   -298.14474    -226.1878   -298.14474            0    7189.6551      24.7371    24.958102    22.964357            0            0            0    14177.989    11072.677    4239.3129     6256.976   -310.97317    -1028.787    1506.2385 
   26500    283.30592    -302.5894   -232.31531    -302.5894            0    10056.444     24.90124    24.911514    22.808604            0            0            0    14148.806     8360.904    12130.057    9678.3713    73.797273    1670.5201    11.667979 
   27000    281.40501   -300.86774   -231.06517   -300.86774            0    7097.4328    25.135093    24.896096    22.747521            0            0            0    14234.618    5686.7549    7091.0458    8514.4978   -1267.3607    438.85844   -409.81145 
   27500     281.6364   -301.75371   -231.89374   -301.75371            0    10311.818    24.911251    24.804169    22.829624            0            0            0    14106.491    11996.916      8597.03    10341.508    1383.8435   -456.78873    1868.9181 
   28000    279.20972   -302.48222   -233.22419   -302.48222            0    7915.7536    24.769288    24.883679    23.110724            0            0            0    14244.318    9842.5938    8026.0112    5878.6559   -484.05707   -607.79883   -353.45491 
   28500    288.92529   -302.79891   -231.13093   -302.79891            0    8209.9353    24.730698    24.855172    23.033843            0            0            0    14158.575    11071.836    6532.5364    7025.4333    184.94252   -1854.6319   -2129.4641 
   29000     279.6628    -303.0446   -233.67418    -303.0446            0     8304.491    24.949878    24.894772    22.904862            0            0            0    14226.703    4245.7258    10403.954    10263.793   -672.87462   -1373.3754   -1302.3467 
   29500     292.3882   -302.53395   -230.00699   -302.53395            0    10554.232    24.966958    24.867767     22.80777            0            0            0    14160.717    10753.764    10993.469     9915.462    194.80212    27.157525    1801.8423 
   30000    297.04246   -300.71373   -227.03228   -300.71373            0    10010.218    24.926902    24.926281    22.868314            0            0            0    14208.883    10148.015    8505.7777    11376.863   -1083.2023    1953.4708    1029.6877 
   30500    284.79865   -299.98694   -229.34258   -299.98694            0    5393.2696    24.880447    24.930331    22.996227            0            0            0    14264.049     5136.307    6746.7554    4296.7464     131.4942     1707.708   -106.14982 
   31000    294.96883   -302.08705   -228.91996   -302.08705            0    13350.824     24.78091    24.726992    22.954606            0            0            0    14065.604    13884.365    13583.853    12584.254    427.49724    -1300.562    -2062.166 
   31500    280.58562    -300.1817   -230.58237    -300.1817            0    7129.0183    24.963613    24.937809    23.045076            0            0            0    14346.431    6127.2729    8581.9077    6677.8743     582.2288   -1397.7567    385.98046 
   32000    289.90467   -302.83413   -230.92321   -302.83413            0    10924.332    24.818536    24.817245    22.778753            0            0            0    14030.065    11186.315    9091.1778    12495.505   -1842.3713    455.98963    969.78873 
   32500    293.05991   -303.18215   -230.48858   -303.18215            0    8320.9796    24.923318     24.94647    22.874424            0            0            0    14222.145    10974.385    4925.6515    9062.9022    857.01693   -1507.4612   -2449.8612 
   33000    290.67462   -302.06864   -229.96674   -302.06864            0    9395.0113    24.881788    24.860566    22.946789            0            0            0    14194.318    8559.2319    10602.081    9023.7214   -270.83381   -626.19307    390.56791 
   33500    284.75238   -304.71771   -234.08482   -304.71771            0    11614.207    24.861327    24.786477      22.9257            0            0            0    14127.383    10830.522    12318.144    11693.954   -282.18834   -711.80775    663.07575 
   34000    274.42563   -302.69595   -234.62461   -302.69595            0    9769.8025    24.920957    24.819473     22.88078            0            0            0    14152.335    9184.7427    11441.229    8683.4355   -1342.1029    401.52437   -654.11919 
   34500    278.31063   -304.05334   -235.01833   -304.05334            0    10188.724    24.878192    24.876234    22.819413            0            0            0    14122.381    8894.4608    11800.508    9871.2039    198.33986    536.54416     248.5562 
   35000      282.738   -305.86479   -235.73157   -305.86479            0    9651.4803    24.841708     24.92794    22.827817            0            0            0    14136.185    9319.0238    8055.5206    11579.897   -57.120432     956.4002   -1600.9807 
   35500    281.55142   -302.74657   -232.90768   -302.74657            0     7916.848    24.815886    24.885426    22.949148            0            0            0    14172.336     6403.334    8412.0679    8935.1422    151.11018    2760.6489    1176.8899 
   36000    282.83497   -303.97163   -233.81435   -303.97163            0     9107.636    24.881696    24.777622    22.970778            0            0            0    14161.698    11068.085    10317.239    5937.5831   -35.838232    1034.3128     1197.788 
   36500    281.30891   -303.67992   -233.90118   -303.67992            0    9476.2895    24.941036    24.817928    22.838452            0            0            0    14136.656    10625.308    8247.6114    9555.9491     1176.659   -747.80912    413.66678 
   37000    282.17346   -303.50211   -233.50892   -303.50211            0    9754.5257    24.882481     24.91656    22.816042            0            0            0    14145.623    8294.1655      10484.4    10485.012   -1141.6567    1140.5545    272.03042 
   37500    278.54529   -302.66795   -233.57473   -302.66795            0    9883.2921    24.817099    24.905144    22.918883            0            0            0    14165.552    10799.042    11143.585      7707.25    110.28516    -1197.228    1417.3257 
   38000    289.21039    -302.3479    -230.6092    -302.3479            0    5600.8459    24.803517     24.80559     23.04928            0            0            0    14181.435    8126.0426     4692.272    3984.2231     2105.284   -958.07463   -853.43718 
   38500    288.33376   -302.62104   -231.09979   -302.62104            0     8866.976    24.839027    24.733218    23.041865            0            0            0    14155.749    7400.9567    11795.116    7404.8555   -171.61348    840.30635     988.3676 
   39000     282.0505   -303.50946   -233.54678   -303.50946            0    8054.0045    24.941558    24.842981    22.844108            0            0            0    14154.727    8380.3047    7495.7588    8285.9499   -789.35835    -1503.177   -4074.7378 
   39500    285.85439   -300.64497   -229.73873   -300.64497            0    5744.3771    24.940566    25.009393     22.66942            0            0            0    14140.015     2318.945    8351.8428    6562.3435   -771.46936    915.13455   -581.61175 
   40000      284.623   -304.39217   -233.79137   -304.39217            0    7283.0889    24.829213    25.010256    22.827121            0            0            0      14175.3    8625.9425    7345.7667    5877.5575    765.06473   -2920.4527    2551.8344 
   40500     289.0308   -305.87711   -234.18296   -305.87711            0    9880.2901    24.733804    24.779319    23.040881            0            0            0    14121.453    10475.862     8619.755    10545.253   -456.31079   -1166.0743   -993.14819 
   41000    277.83127   -303.15128   -234.23518   -303.15128            0    6552.4121    24.890383    24.729345    23.093364            0            0            0    14214.494    8010.4701    7277.8378    4368.9284   -1529.9926     2771.896   -222.22719 
   41500    287.10754   -303.13611   -231.91902   -303.13611            0    11013.487    24.881225    24.803195    22.815135            0            0            0    14079.993    11602.273    11895.322    9542.8663    801.73108    790.88644   -427.66064 
   42000    286.59859   -303.08013   -231.98929   -303.08013            0    11705.452    24.950282    25.019633    22.726314            0            0            0    14186.831    9973.3695    12488.925     12654.06    -159.6245    1156.3873    906.15062 
   42500    288.17521   -302.63968   -231.15776   -302.63968            0    8335.0243      24.8506    24.980488    22.810119            0            0            0    14160.068    8309.8804    6266.5961    10428.596    1384.6191   -2175.8811    1316.1784 
   43000    286.32071   -301.79238   -230.77046   -301.79238            0    9372.4549    24.803511    24.832933     22.96144            0            0            0     14142.96    7874.3946    11123.977    9118.9937   -740.10256   -1195.0746   -263.57677 
   43500    289.79014   -303.23206   -231.34955   -303.23206            0    10816.156    24.904388    24.800046    23.012084            0            0            0    14212.953     12351.41     10114.36    9982.6992   -104.70687   -3037.4806   -1156.4656 
   44000    286.55863   -304.39874   -233.31781   -304.39874            0     8389.235    24.887912    24.791552    22.873023            0            0            0    14112.883    5593.8925    10819.673    8754.1393   -152.49787   -1219.7996    50.089658 
   44500    290.66666   -305.36483    -233.2649   -305.36483            0    10554.291    24.906683     24.96537    22.815233            0            0            0    14186.616    11977.244    8863.0569    10822.572   -2687.0472     2349.873   -2004.0731 
   45000    288.82366   -305.85299   -234.21021   -305.85299            0    10499.956    24.837947    24.927202    22.825268            0            0            0    14132.049    10913.402    6350.1771    14236.288    182.39167    523.47149    504.60973 
   45500    283.51195     -305.682    -235.3568     -305.682            0    7935.4278    24.820002    24.770219    22.950184            0            0            0    14109.701    8623.5451    8678.7555    6503.9827   -2797.0079   -188.13666    2298.8231 
   46000    284.30997   -304.18212   -233.65897   -304.18212            0    9542.5615    24.872308    24.761031    23.037415            0            0            0    14187.915    9189.2731     11732.11     7706.301    1011.3408   -1414.5898    1669.0257 
   46500    290.22669    -303.5134    -231.5226    -303.5134            0    6604.7934    24.808172    24.880977    22.912135            0            0            0    14142.551    6778.1771    5659.6627    7376.5406   -753.93296    175.46912    573.85771 
   47000    282.36491   -302.49266   -232.45198   -302.49266            0    9500.1921    24.871232    25.052792    22.714376            0            0            0    14153.187    8312.8453     9889.845    10297.886     1705.018    246.52855   -131.37446 
   47500     285.3188   -300.48566   -229.71227   -300.48566            0    10011.659    25.071765    24.850431    22.712392            0            0            0    14150.823    8657.4041    10858.088    10519.485   -1038.9054    921.91359    -2182.167 
   48000    279.62887   -301.68209   -232.32009   -301.68209            0    5943.7725    24.986242    24.681186    23.038096            0            0            0    14207.365     1843.712    9642.6053    6345.0003     390.1507   -487.74258    -501.3207 
   48500     287.2894   -302.93438   -231.67218   -302.93438            0     9942.247    24.604329    24.835897    23.152328            0            0            0    14147.707    10430.527    9591.6591    9804.5549    244.74815    2352.9498   -79.935026 
   49000    284.92098   -300.74176   -230.06705   -300.74176            0    7635.0039     24.71385    24.999298    22.992978            0            0            0    14205.726    6292.0973    7529.9956    9082.9187   -289.26768    100.06871   -2438.4919 
   49500    301.29949   -300.82991    -226.0925   -300.82991            0    10741.942    25.027089    24.908534     22.79935            0            0            0    14212.843    9919.8571    10083.085    12222.885    1938.3626   -395.07332   -137.37452 
   50000     296.6684   -303.12231   -229.53365   -303.12231            0    8526.1834      24.9877    24.907408    22.792464            0            0            0    14185.547    8902.5991    7951.0962    8724.8548   -396.10862    1178.9239   -1340.1218 
   50500    292.91256   -303.90585   -231.24883   -303.90585            0    7036.4964    24.752246    24.851142    22.939458            0            0            0    14110.555    5148.4428    9142.3726    6818.6739   -835.85729   -174.74385   -91.893071 
   51000    293.58228    -302.8971   -230.07396    -302.8971            0    11036.671    24.753832    24.837427    23.067653            0            0            0    14182.489    12485.417     10384.77    10239.826    271.48941    2558.6471     251.0655 
   51500    289.14729   -303.33144   -231.60839   -303.33144            0    8636.4805    24.867685    24.785867    22.951836            0            0            0    14146.757    6091.2319    10976.823    8841.3868     985.6622   -1595.5371   -2054.5249 
   52000    284.17326   -304.54092   -234.05168   -304.54092            0    8899.7405    24.947178    24.878618    22.762095            0            0            0    14127.324    8176.1232    6863.8348    11659.264    1111.3898   -1959.9172    482.06197 
   52500     288.9981   -302.11257   -230.42653   -302.11257            0     10108.52    24.898116    25.018935    22.793361            0            0            0    14198.539    9976.5631    6914.4979    13434.498    888.22084   -1224.8606   -110.30805 
   53000    285.88039   -303.99775   -233.08505   -303.99775            0    10813.974    24.808374    24.839867     22.89581            0            0            0    14109.239    11709.694    9559.9768    11172.252   -57.104974   -201.97314   -346.84902 
   53500     282.1314   -302.22494   -232.24218   -302.22494            0    7706.1081    24.911087    24.751966    23.010473            0            0            0    14188.221    5893.9033     7790.916     9433.505    2061.4454    116.04027    391.19752 
   54000    285.17168   -300.70052   -229.96363   -300.70052            0    10805.876    24.906728    24.756479    22.933581            0            0            0    14140.912    13079.174    9203.0018    10135.453    1834.5324   -85.755616   -1835.7164 
   54500    277.07162   -303.05589   -234.32822   -303.05589            0    9386.3365    24.773542     25.00365    22.841659            0            0            0    14148.785    9364.6505    9102.1984    9692.1607    1132.7701   -719.32363   -1657.9914 
   55000    284.02181   -302.07867   -231.62699   -302.07867            0    11550.827    24.776545    24.988368     22.80076            0            0            0     14116.53    12982.241    11603.323    10066.916    762.30836   -243.93876    986.72532 
   55500    283.83402   -304.48369    -234.0786   -304.48369            0    8434.6787    24.973338    24.748339    22.936107            0            0            0     14175.63     6123.152    9551.5775    9629.3067   -788.22862    1041.3451    701.56059 
   56000    289.80222   -301.66868   -229.78317   -301.66868            0    6673.2176    24.984334    24.669771    22.984114            0            0            0    14166.438    5147.5619    9641.6355    5230.4553    320.34401   -767.91628   -678.55059 
   56500    286.61967   -302.95565   -231.85958   -302.95565            0    10208.313    24.799489    24.922638    22.896668            0            0            0    14151.713    12035.104    9810.7963    8779.0373     348.9424    253.54753    3384.8959 
   57000    283.04826   -303.74631   -233.53613   -303.74631            0    8645.3208    24.739407    25.021017     22.83707            0            0            0    14136.263    8285.2001    8592.4146    9058.3478   -1527.2192    1050.8784   -1219.7276 
   57500      284.176   -302.82943   -232.33951   -302.82943            0    8815.3492    24.971158    24.778113    22.911215            0            0            0    14176.043    10222.693    7688.6447    8534.7098   -684.19265    1917.3633   -864.21437 
   58000     284.5912   -303.45928   -232.86637   -303.45928            0    9255.9478    25.004128    24.698681    22.902014            0            0            0    14143.574    10450.642    9456.8543    7860.3473    1338.9011   -2235.8585    109.77158 
   58500    289.26123   -302.45866   -230.70735   -302.45866            0    11148.063    24.843799    24.864657    22.913201            0            0            0     14154.23     13629.34     7975.763    11839.085    1822.7794   -1646.6709    2770.3548 
   59000     284.1099   -302.37498   -231.90146   -302.37498            0    6443.9872    24.817518     24.93575    22.899587            0            0            0    14171.259    7035.9682    6733.8004     5562.193     -162.851    1343.3167   -231.56242 
   59500     286.2088   -302.44851   -231.45436   -302.44851            0    7593.5589    24.823985    24.870285    22.876869            0            0            0    14123.712    8939.1796    6451.5041     7389.993    1163.0985    2166.2079    -763.2814 
   60000    280.80174   -303.84785   -234.19492   -303.84785            0    8512.8337    24.922755    24.832898    22.847435            0            0            0    14140.374     6579.777    11852.577    7106.1473    299.41031    2553.1892   -751.49334 
   60500    284.07844   -304.31354   -233.84782   -304.31354            0    9189.9075    24.915612    24.866074    22.892321            0            0            0    14183.016    9927.3403    6959.9601    10682.422    -1306.925   -146.55848   -362.60757 
   61000    282.15947   -303.10885   -233.11913   -303.10885            0     14276.25    24.786313    24.822695    22.927985            0            0            0    14106.743    12292.223    17767.065    12769.462    414.50732    811.50982   -2338.6657 
   61500    287.15947   -301.90608   -230.67611   -301.90608            0    7585.4172    24.841441    24.884171    22.991868            0            0            0    14212.622    8344.2646    8528.7697    5883.2174     873.5379    1317.2568    667.63402 
   62000    289.08758   -301.83983    -230.1316   -301.83983            0     8671.063     24.89559    24.827273    22.841497            0            0            0    14118.092    6042.4026    9360.6488    10610.137    168.38499    964.58882    871.92318 
   62500    287.41388   -304.60891   -233.31583   -304.60891            0    9342.0814     25.03292    24.827178    22.717908            0            0            0    14119.106    9205.9845     9835.525    8984.7347    1251.7723    -472.9545     69.14727 
   63000    292.60969   -300.21996   -227.63807   -300.21996            0       8119.3    24.978847    24.978811     22.85641            0            0            0    14261.071    7171.6852    6992.9679    10193.247    405.11978    -576.3996    677.71351 
   63500    284.44383   -303.33256   -232.77621   -303.33256            0    9021.1434    24.711811    24.828969    22.968179            0            0            0    14092.557    11583.721    11712.905    3766.8036    482.87505   -962.12832    448.36005 
   64000    290.55373   -302.07781    -230.0059   -302.07781            0     7297.581    24.869914    24.833536     23.09804            0            0            0    14265.532    7763.2495    7595.6336    6533.8599    1120.3641    1781.5313   -617.81015 
   64500    287.06981   -303.78143    -232.5737   -303.78143            0     9755.124    24.886673    24.795801    22.891494            0            0            0    14125.998    11425.024    6938.9485      10901.4   -1189.7271   -1315.7745   -576.07018 
   65000    282.13366   -305.77804   -235.79472   -305.77804            0    6735.0955    24.878753    24.976795    22.800154            0            0            0    14167.822    8675.6228     4912.446    6617.2177    2596.0274   -150.52959     484.6428 
   65500    278.50625   -302.64991   -233.56637   -302.64991            0     7861.519    24.859501    24.936484    22.845673            0            0            0    14162.228    9061.0036    6528.0046    7995.5487   -2006.3492    961.32781   -390.22405 
   66000    292.79206   -301.63812   -229.01098   -301.63812            0    9904.2147    24.862519    24.779604    22.912858            0            0            0    14116.231    10461.397    10638.439    8612.8075    1227.0047   -1812.5557     1209.881 
   66500    285.78144   -300.84869   -229.96054   -300.84869            0    6562.6292    24.931952    24.851986    23.011918            0            0            0     14258.38    6334.2009    8917.5046     4436.182   -258.19775    130.50872    2763.8418 
   67000     280.4961   -302.39761   -232.82049   -302.39761            0    8254.9666    24.818234    24.896952    22.834753            0            0            0    14109.557    7941.4246    9647.9653    7175.5099    519.36739    301.80858   -2960.8828 
   67500    280.45522   -303.36452   -233.79754   -303.36452            0    6123.2168    24.922617    24.965191    22.789013            0            0            0    14179.276    6114.1968    5671.8113    6583.6422    783.11846     299.5376   -716.58726 
   68000    289.02113    -305.3777   -233.68594    -305.3777            0     9066.091    24.958803    24.834082    22.855424            0            0            0    14166.454     7479.248    10353.218    9365.8075    81.042993    580.95447    1149.9328 
   68500    286.47715   -302.54968   -231.48896   -302.54968            0    5820.2757    24.814995    24.736727    22.995166            0            0            0    14115.393    7964.4907    4492.7791    5003.5573   -1291.7298   -565.60631   -722.10117 
   69000    277.47116   -304.14831   -235.32153   -304.14831            0    9039.2697    24.764768    24.894361      23.0923            0            0            0    14236.474    7688.3766    10681.718    8747.7143    35.012663    2473.2843    1507.9487 
   69500    276.92277   -302.27813   -233.58737   -302.27813            0    10751.839    24.733287    24.892144    22.856951            0            0            0    14072.215    13259.118    10542.288    8454.1098    202.88987   -741.27771    -130.4288 
   70000     282.9243    -304.0582   -233.87877    -304.0582            0    8651.1893    25.005475     24.93122    22.770547            0            0            0    14195.546    6924.4375    9765.8592    9263.2712    2257.6274   -1160.6106   -4455.7525 
   70500    282.76053   -303.27817   -233.13936   -303.27817            0    9594.9879    24.979365    24.857243    22.743642            0            0            0     14121.94    8723.1145    9414.4425    10647.407   -1576.8739   -384.70559    580.87896 
   71000    280.57976   -304.38841   -234.79054   -304.38841            0     10636.04    24.790586     24.83614    22.936365            0            0            0    14121.977    12533.104    8362.2084    11012.807    696.87324    1637.1273   -320.37659 
   71500    279.01133   -302.05105   -232.84222   -302.05105            0    6829.6892    24.772964     24.86664    23.126533            0            0            0    14246.415    7244.7562    7919.7664     5324.545    337.33733    102.73848   -1704.7178 
   72000    296.03911    -301.6205   -228.18794    -301.6205            0    11324.897    24.812405     24.83417    22.961464            0            0            0    14148.751    11354.254    11601.452    11018.986   -5.1745519    305.39705   -1200.3515 
   72500    284.91122   -303.47626   -232.80397   -303.47626            0    7862.9318    25.074424    24.945587    22.751548            0            0            0    14231.008    8956.6206     6936.929    7695.2458   -53.858743    543.17701    112.79926 
   73000    286.11059   -304.36582   -233.39602   -304.36582            0    8719.3214    24.951217     24.85683    22.745517            0            0            0    14106.955    10030.546    8633.2935    7494.1245    294.81101   -2142.0243    460.39892 
   73500    280.79735   -300.77076   -231.11891   -300.77076            0    7787.5228    24.776934    24.876039    23.020548            0            0            0     14188.76    5906.0467    8481.1481    8975.3737    565.86695    261.97419   -417.62979 
   74000    285.64653   -302.44567   -231.59099   -302.44567            0    10484.906    24.704672    24.843035    23.031461            0            0            0    14135.306    10713.084    11446.993    9294.6409    -1324.186    -836.1205       3329.2 
   74500    282.16223   -302.60852   -232.61812   -302.60852            0    9645.4946    24.849689    24.869032    22.915942            0            0            0    14161.771    10530.477    8415.7634    9990.2431    1877.7378    -1057.749   -604.06187 
   75000    288.61849   -302.61935   -231.02747   -302.61935            0    8854.1777    24.970744    24.843995    22.861378            0            0            0    14182.583    8365.1191    9978.0581    8219.3559    850.41892     255.7185    3494.8127 
   75500    285.68395   -302.42129   -231.55733   -302.42129            0    7802.6946    24.923138     24.87758    22.821496            0            0            0    14149.952    8371.1998    5861.6322    9175.2518   -1026.8615    812.94865   -1168.2376 
   76000     282.7553   -302.33166   -232.19414   -302.33166            0    9983.1887    24.829945     24.89678    22.911964            0            0            0    14163.848    9812.4051    8995.9296    11141.231    257.46248    28.503367    1085.7665 
   76500    280.34115   -308.02415   -238.48547   -308.02415            0    7402.4186    24.770382    24.892112    22.942249            0            0            0    14145.895     8062.436    7815.5419    6329.2779    512.62988    2123.5682    603.80948 
   77000    277.12272   -306.19305    -237.4527   -306.19305            0    9457.0346     24.88785    24.721712    22.844105            0            0            0    14055.298    9251.2054     9922.692    9197.2063    403.38654    427.56293   -453.28314 
   77500    278.34136   -303.59415   -234.55151   -303.59415            0    8402.3546    25.069583    24.827501    22.877328            0            0            0    14239.194    8733.8044    9438.4772    7034.7822    744.91674    446.55375   -1426.7519 
   78000    289.46456   -299.86322   -228.06148   -299.86322            0    8426.7676    24.793021    24.937408     22.82434            0            0            0    14111.689    9673.9015    6414.2253    9192.1758   -438.81138    615.11083   -33.071453 
   78500    283.45971   -304.24038   -233.92814   -304.24038            0     7678.991    24.743289    25.043119    22.916785            0            0            0    14200.366    7470.6188    6508.3782    9057.9761    158.70839   -67.387727    1642.6959 
   79000    285.07547   -304.77515   -234.06212   -304.77515            0    10027.948    24.903788    24.740983    22.997267            0            0            0    14169.633    10129.184    10738.625    9216.0348   -169.47378   -221.79661      1477.61 
   79500    285.74963   -302.92195    -232.0417   -302.92195            0    9409.4576    25.018495    24.563354    22.974024            0            0            0    14118.414    6818.6445     13354.77    8054.9579   -321.28627   -2630.1071    1933.0536 
   80000    287.32584   -303.13852   -231.86729   -303.13852            0    10357.889    24.950327    24.943009     22.89035            0            0            0    14245.494    11700.929    7454.8999    11917.838    46.308271   -1512.7409    41.421232 
   80500    288.67753   -303.87705   -232.27053   -303.87705            0    11992.556    24.761313    25.019755    22.764595            0            0            0    14103.167    13756.201    11886.831    10334.637   -383.72697   -1215.0036    659.23045 
   81000    282.63144   -302.90753   -232.80074   -302.90753            0    7662.0219    24.864644    24.881661    22.936224            0            0            0    14190.038    3590.7055    11171.667    8223.6934    -75.82406   -2070.2685   -610.94467 
   81500    280.80685   -304.00467   -234.35047   -304.00467            0    9036.4417     24.89418    24.750013    23.010215            0            0            0    14177.313    9471.5677    6923.3577      10714.4    2185.0964    266.80981    641.99579 
   82000    282.15604   -302.48188   -232.49301   -302.48188            0    6382.1021    24.846361    24.794138    22.969677            0            0            0    14150.334    6211.5685    5987.7226    6947.0152    805.35168   -1516.1897    -525.8557 
   82500    294.62392    -301.5198   -228.43827    -301.5198            0    6942.9828    24.880805     24.98714    22.874053            0            0            0    14220.803    7318.2865    3717.9309    9792.7309    228.15965   -437.14348   -483.30866 
   83000    293.44198   -303.53296   -230.74461   -303.53296            0    9631.4226    24.892008     24.97013    22.791649            0            0            0    14166.302    11413.034    7929.2594    9551.9739   -472.95698    710.17691    2002.8129 
   83500    285.85933   -302.73486   -231.82739   -302.73486            0    8412.1508    24.963241    24.802746    22.852186            0            0            0    14149.089    6576.0512    10636.822    8023.5793    1514.2439   -451.53092    688.79097 
   84000     294.5286   -301.85699    -228.7991   -301.85699            0    7992.1449    24.899571    24.832884    22.983215            0            0            0    14211.169     9056.282    8653.7237    6266.4292   -32.192533   -2401.8518    2931.3651 
   84500    286.54153   -303.33588   -232.25919   -303.33588            0    13184.982    24.715273    24.874889    22.967251            0            0            0    14120.028    14082.393    14071.435    11401.118    974.88702   -222.54781    2095.6445 
   85000     277.5625     -302.463   -233.61357     -302.463            0    6628.0792    24.914287    24.891208    22.904963            0            0            0    14204.437    9347.0956    2800.8113    7736.3306     1063.862    2405.7449   -117.21697 
   85500    287.46739   -301.03439   -229.72805   -301.03439            0    11212.223    24.966743    24.824109    22.775164            0            0            0    14115.526    13193.908    12023.344    8419.4152    713.17321   -115.91268   -781.34515 
   86000    291.29908   -304.24862   -231.99182   -304.24862            0    6667.8079    24.945637    24.950438    22.849832            0            0            0     14221.84     7203.459    5159.8575    7640.1071    -856.0949     162.3149     620.1924 
   86500     284.2135   -304.21154   -233.71232   -304.21154            0     10440.21    24.696718    24.868398    22.950815            0            0            0    14095.652    11384.809    9864.5457    10071.275    1451.7041    574.36851     997.2371 
   87000    284.35012   -303.88866   -233.35555   -303.88866            0    12696.499    24.779604     24.78392    23.081494            0            0            0     14175.17    15636.058    11284.887    11168.553   -968.26015     -921.068   -1255.6622 
   87500    281.02821   -302.29742   -232.58831   -302.29742            0    8442.7321    24.969561    24.777422    22.977222            0            0            0    14215.578    7875.4327     11106.73    6346.0339     1501.509    864.82489    1527.4695 
   88000    290.79827    -301.5827   -229.45013    -301.5827            0    9765.1637     24.93353    24.891399    22.708932            0            0            0    14093.855    10108.056     7268.566    11918.869   -357.06137   -174.28312    2096.1216 
   88500    282.39715    -303.2243   -233.17563    -303.2243            0    9657.9178     24.92867    24.983928    22.826489            0            0            0    14216.705    12532.922    7149.6406    9291.1909   -724.72482   -196.40459    538.97058 
   89000    275.58904   -305.06017   -236.70025   -305.06017            0    11620.053    24.788974    24.814007    22.950459            0            0            0    14117.144    10707.514     10864.83    13287.815    1204.2609   -274.28622    1426.2854 
   89500    280.71493   -306.37385   -236.74245   -306.37385            0    11349.002    24.800657    24.827256    23.014404            0            0            0    14170.711     13136.48    9851.8019    11058.724   -1850.3067   -590.93107    2362.2476 
   90000    275.86737   -304.76827   -236.33931   -304.76827            0    8429.1368      24.8275    24.887035    22.876826            0            0            0    14135.199    8262.8393    8227.9727    8796.5982    2089.6256    904.51634      977.905 
   90500    287.74522   -303.21917    -231.8439   -303.21917            0    6981.8641    24.905239    24.932949    22.801984            0            0            0    14159.144    11516.949    2761.8197    6666.8235   -490.57089    2981.1514   -1001.4818 
   91000    282.07275   -303.26115   -233.29295   -303.26115            0    8911.5329    24.958847    24.917253    22.862705            0            0            0    14218.451    11483.414    6510.1993    8740.9856   -161.84325    172.13437   -491.88529 
   91500      285.974   -305.19784   -234.26193   -305.19784            0    9195.9616     24.78699    24.769526    22.941569            0            0            0    14085.252    10391.148    9319.6626    7877.0738    616.54373    1206.7947    151.67852 
   92000    287.60218   -304.82176   -233.48198   -304.82176            0    6771.9225    24.842004     24.81917    23.088584            0            0            0    14235.449    5602.1997    9991.9587    4721.6091    206.82888    1008.8973   -1269.7212 
   92500    283.62584   -302.01233   -231.65887   -302.01233            0    9057.3747    24.911266    24.864314    22.902345            0            0            0    14185.748    6032.4538    9544.4076    11595.263     -492.448   -806.48243    1170.8559 
   93000    291.78368   -303.78381    -231.4068   -303.78381            0    10904.889    24.897883    24.938866    22.739457            0            0            0    14119.496    13642.172    10897.481     8175.014   -829.36376    1326.8768    1030.7448 
   93500    280.07603   -303.49116   -234.01824   -303.49116            0    7061.4433    24.895133    24.966171    22.910468            0            0            0    14239.684    6319.2893    6233.0181    8632.0225   -374.16081    623.97242    -2469.449 
   94000    288.42404   -304.87468   -233.33103   -304.87468            0    9002.8975    24.766004     24.72369    23.002713            0            0            0    14084.722    9316.0358    9124.6224    8568.0343   -1161.2691   -147.82161    3859.5773 
   94500    277.89635   -303.11732   -234.18507   -303.11732            0    5135.1747     24.90072    24.847875    23.045174            0            0            0     14258.74    6008.7479    4739.1039    4657.6723   -2.1058604   -930.58154    -601.0918 
   95000     286.4435   -305.18951   -234.13713   -305.18951            0     10071.87    24.841551    24.896314     22.82644            0            0            0    14117.309    12215.901    6314.0488    11685.661   -245.45328    202.87644   -433.35852 
   95500    277.33065   -301.69671   -232.90478   -301.69671            0    9834.9286    24.898115    24.965999    22.798659            0            0            0    14171.791    10176.837    9579.1601    9748.7886    553.92234    561.67771    1092.0815 
   96000     278.6433   -301.80765   -232.69012   -301.80765            0    8676.4067    24.934305    24.954366    22.895042            0            0            0    14245.748     10838.43    7318.8352    7871.9545    759.37684    12.299546   -327.96728 
   96500    282.43563   -302.46242    -232.4042   -302.46242            0    10805.412    24.834031    24.787846    22.869183            0            0            0    14077.861    10547.682    12803.446    9065.1074    1799.9972   -540.89182   -75.010108 
   97000    280.25373   -302.55178   -233.03478   -302.55178            0    7541.3329    24.917039    24.921569    22.953523            0            0            0    14253.488     8174.978    5242.6497    9206.3709    1391.6724   -664.61861    -9.053306 
   97500    278.88824   -301.65082   -232.47253   -301.65082            0     8535.537    24.864879    24.794319    22.868438            0            0            0    14098.569    5743.9599    10853.172    9009.4785    934.14419    1906.6659   -1289.8358 
   98000    278.85344   -302.83992   -233.67027   -302.83992            0    9759.1857     24.88862    24.878037    22.913831            0            0            0    14187.786    12760.127    8877.5336    7639.8963   -1345.9688    363.06133   -2552.4653 
   98500    283.32421   -304.73877   -234.46014   -304.73877            0    9753.1921    24.797377    24.889231    22.862364            0            0            0    14110.368     10002.06     6660.899    12596.618    1247.6916    3570.9173    2826.4193 
   99000    279.92083   -302.26421   -232.82979   -302.26421            0    8941.1178    24.887503    24.879402    22.901334            0            0            0     14180.19    7663.3385    11209.152    7950.8628    628.42817    2292.1857    1010.0787 
   99500    294.80533   -301.89305   -228.76653   -301.89305            0    11060.898    24.951003    24.765384    22.931462            0            0            0    14169.836    12216.212    10569.084    10397.398   -1388.2916    873.65991    843.33892 
  100000    288.96349    -303.9169   -232.23944    -303.9169            0    8749.1952    24.866197     24.75957    22.961496            0            0            0     14136.85     8457.515    6641.6671    11148.403    1183.1345   -1855.3991   -2017.2874 
  100500    284.86666   -303.21386   -232.55263   -303.21386            0     5864.327    24.821861    24.988454    22.979391            0            0            0    14253.195    5732.6702    6835.9111    5024.3997   -877.17458    1741.5445   -924.77027 
  101000    288.95388   -303.66429   -231.98922   -303.66429            0    11077.633    24.822377    24.929002     22.76217            0            0            0    14085.164    11638.678    10108.803    11485.419   -1209.9819    1218.8028    376.37254 
  101500    287.31401   -304.26652   -232.99822   -304.26652            0    5723.7805    25.064242    24.875724    22.841339            0            0            0    14241.373    2329.1976     7329.456     7512.688   -780.56989   -1041.3676   -690.03137 
  102000    288.99049    -302.0352   -230.35105    -302.0352            0    9235.0065    24.927636    24.721223    22.900092            0            0            0     14111.99    10411.087    9607.6169    7686.3155   -1748.6045   -438.09061   -878.09737 
  102500    278.47576   -303.38651   -234.31054   -303.38651            0    9688.4201    24.732012    24.897017    23.028142            0            0            0    14179.655    10355.569    9069.2016    9640.4894   -707.19784   -814.48915   -490.34767 
  103000    285.70789   -305.26037   -234.39046   -305.26037            0    9386.6662    24.743497    24.943884    22.992059            0            0            0    14190.674    9484.7304    7835.9869    10839.281    1372.5261   -593.99194    -404.5331 
  103500     284.8431   -304.17308   -233.51769   -304.17308            0    13185.359    24.839256    24.786739    22.872917            0            0            0    14082.493    13666.828    12737.365    13151.884    -458.3679    407.53548    1802.8276 
  104000    283.61014   -302.56449   -232.21493   -302.56449            0    9034.8875     25.05441    24.830522    22.901682            0            0            0    14247.459    6641.7908    10680.259     9782.613   -453.55804   -376.57355    315.60559 
  104500    275.60117   -302.45514   -234.09221   -302.45514            0    9865.5354    24.848483    24.834588    22.816046            0            0            0    14079.824    8663.6578    9849.5089     11083.44   -341.39586    494.92117    318.06425 
  105000    284.57653   -301.29067    -230.7014   -301.29067            0     7816.401    24.771867     25.01031      22.9647            0            0            0    14227.827    9565.5919    8012.0209    5871.5902   -1447.0606   -604.21777   -525.14761 
  105500    292.45561    -300.8265   -228.28282    -300.8265            0    10839.291     24.78437    24.803358    23.013906            0            0            0    14147.467    9023.3561     11533.05    11961.467    1237.6304    331.62263     -2161.24 
  106000    290.67252   -304.60361   -232.50222   -304.60361            0    9279.2569    24.905345     24.71488    23.019688            0            0            0    14169.369    9061.8527    10923.208    7852.7099   -977.56043    178.27567    1561.2817 
  106500    290.55445   -302.32136   -230.24926   -302.32136            0    10239.589    24.952534    24.840365    22.890954            0            0            0    14188.502     8917.709    11294.312    10506.746    1097.9341    991.03868      1480.27 
  107000    286.55265   -303.29465    -232.2152   -303.29465            0    11336.664    24.805737    25.016642    22.803012            0            0            0    14150.551     11208.62    9937.8505    12863.522   -1632.9548    3249.1232    1589.7836 
  107500    287.82998   -301.55119    -230.1549   -301.55119            0    8468.1514    24.829435    24.933277    22.876409            0            0            0    14162.308    9262.6279    9685.6416    6456.1846   -933.87534     1167.324   -502.21204 
  108000    285.79958   -301.70456   -230.81192   -301.70456            0    8764.4738    24.893485     24.74743    22.996555            0            0            0    14167.023    7583.2289    7416.6355    11293.557   -200.76336    2047.2266    482.73519 
  108500    291.17528   -303.87685   -231.65076   -303.87685            0    8744.4472    24.901691    24.770432    23.025571            0            0            0    14202.762    7613.1933    10115.256    8504.8919   -223.08101    1043.4394   -1358.0007 
  109000    285.97056   -303.61958   -232.68452   -303.61958            0    8752.8788    24.818299    24.897424    22.894357            0            0            0    14146.691    8674.1919    7046.6075    10537.837    1067.9669   -1554.7153    1654.5358 
  109500    289.50477   -303.78059   -231.96886   -303.78059            0     9056.612    24.881485    24.910794    22.881299            0            0            0    14182.231    9130.4995    7284.5772    10754.759     1752.295   -2185.4602    1738.5372 
  110000    279.76047   -301.29737   -231.90272   -301.29737            0    10297.023    24.883964    24.856428    22.897772            0            0            0    14162.878    8031.1316    10799.355    12060.583   -1312.8895    15.239363   -1003.9247 
  110500    279.61881   -304.17381    -234.8143   -304.17381            0    8447.6715    24.804588    24.845599    22.929714            0            0            0    14131.235    10420.963     6833.935    8088.1163    1780.9555   -1005.2002   -3670.9835 
  111000    277.07935    -301.8908    -233.1612    -301.8908            0      8021.17     24.82043    24.907486    22.911131            0            0            0    14163.994    9005.4145    7465.9429    7592.1525    300.34077    1578.0305    236.92079 
  111500    276.44011   -301.15565   -232.58462   -301.15565            0    9545.4541    24.872559    24.953678    22.853447            0            0            0    14184.262    9538.7546    8955.9291    10141.679   -230.90939    908.99254    83.266804 
  112000    278.63462   -303.08809   -233.97272   -303.08809            0    8856.2732    24.908429    24.827184    22.837344            0            0            0    14122.754    6197.8781    12056.205    8314.7362     1053.196    3193.4316    3287.0338 
  112500     278.5242   -303.09843   -234.01044   -303.09843            0    9704.2499    24.907972    24.787038    22.930233            0            0            0    14157.008    11885.118      8266.47    8961.1613   -906.07836     189.2323   -632.67511 
  113000    283.75362   -303.55702   -233.17187   -303.55702            0    8899.1551     24.72602    24.836364    23.014193            0            0            0    14133.118    8628.2454     11155.83    6913.3898   -489.99633   -1419.2924    289.03932 
  113500      284.977   -302.37628   -231.68767   -302.37628            0     8182.597     24.71124    25.065657    22.970338            0            0            0    14227.907    11143.999    7035.6094    6368.1822    1580.2942   -1019.5844    154.34626 
  114000    282.24381   -302.87231   -232.86167   -302.87231            0    11513.266    24.908504    24.956189    22.727994            0            0            0    14128.206    12632.155    11638.981    10268.661    1716.1722   -1966.0333   -839.93195 
  114500    291.90859    -303.2023   -230.79431    -303.2023            0    10614.113    25.095235    24.770992    22.766064            0            0            0    14152.156    7450.4517    11462.955    12928.932    1651.0114   -308.78056    237.40907 
  115000    288.96555   -302.10286    -230.4249   -302.10286            0    9226.6595    24.935708    24.832741    22.991886            0            0            0     14237.08    11811.994    9353.6126    6514.3714   -437.94345   -2336.4869   -1408.1262 
  115500    285.21793   -302.54909   -231.80072   -302.54909            0    6367.0107    24.720487     24.83755    23.023675            0            0            0    14136.452    4235.4092    8700.6187    6165.0041     164.8448    758.18071   -846.73169 
  116000    277.30528   -305.00745   -236.22182   -305.00745            0    9405.0113    24.811664    24.896385    23.033945            0            0            0    14228.545    9992.5932    8241.7962    9980.6445    962.95451   -577.34075    736.50195 
  116500    294.00652   -304.10897   -231.18059   -304.10897            0    10770.466    24.878965    24.819658     22.83963            0            0            0    14103.184    9166.0372    13369.677    9775.6848     998.7656    2021.1727     2252.148 
  117000    277.92344   -304.49311   -235.55413   -304.49311            0    7748.8932    24.975808    24.900328     22.83485            0            0            0    14201.126    8706.2002    5407.6197    9132.8596    -853.0613    3.5214672   -587.30697 
  117500    282.72044   -305.27584   -235.14698   -305.27584            0    10777.261    24.850058    24.886358    22.832247            0            0            0    14120.088     8668.387    9560.5547    14102.841     847.3267    126.03745    836.61263 
  118000    275.84883   -304.11077   -235.68641   -304.11077            0    8218.7318    24.833002    24.854275    22.974912            0            0            0     14180.26     7991.573    9057.2856    7607.3368    521.86173    1651.1188   -1475.4722 
  118500    281.06684   -302.40909    -232.6904   -302.40909            0    8405.0577    24.889684    24.782859    23.033059            0            0            0    14207.655     8662.988    8422.1144    8130.0705    1135.0375    -1510.244   -150.14789 
  119000    284.08314   -303.72192   -233.25504   -303.72192            0    12121.178    24.845949    24.790331    22.905671            0            0            0    14108.503    15351.542    8960.9575    12051.036    10.958809   -1981.3558   -222.04314 
  119500    285.64662   -302.79405   -231.93934   -302.79405            0    5225.0784    24.951195     25.02684    22.873759            0            0            0    14283.509    7541.6527    5012.4402    3121.1424   -1584.1357    229.35743    444.14424 
  120000    290.37892    -302.3557   -230.32715    -302.3557            0    8227.6819    24.872715    24.968666    22.701536            0            0            0    14098.528    9503.7498    8309.1138    6870.1821    832.85181   -986.96879   -771.23454 
  120500    290.05137   -304.30026   -232.35295   -304.30026            0    7407.3222    24.878814    24.886305    22.815047            0            0            0    14125.748    5581.5484    7628.4074    9012.0108   -1241.0889    1059.4321    841.31038 
  121000    283.90375   -303.40883   -232.98645   -303.40883            0    8844.2173     24.93243    24.801426    23.063618            0            0            0    14261.614    7731.7873    8871.1323    9929.7324     292.4293    270.74988    1157.6831 
  121500    282.77037   -303.74602   -233.60477   -303.74602            0    11697.457    24.733533     24.74519     22.96992            0            0            0    14058.417    11974.665    12519.498    10598.209    44.516976    1493.4569   -1476.7315 
  122000    288.39227   -303.77526   -232.23949   -303.77526            0    5688.2835    24.855181    25.027151    22.929059            0            0            0    14263.121     5547.241    6516.9304    5000.6791   -784.44424   -1291.5598   -395.42192 
  122500    294.17238   -302.90819   -229.93866   -302.90819            0    11437.059    24.901218    24.923613    22.760884            0            0            0    14126.049     10783.95     9588.456     13938.77    573.31453    64.810387   -761.42693 
  123000    281.46804   -303.36441    -233.5462   -303.36441            0    6879.5149    24.983028    24.817628    22.898791            0            0            0    14197.697    4995.8076    8475.5381     7167.199    997.14209   -317.72521    2153.5668 
  123500    285.06348   -302.94586    -232.2358   -302.94586            0    9481.3879    24.850859    24.758842    23.007995            0            0            0    14156.325     11469.42    7963.3169    9011.4266    588.29909    886.85213    1217.4006 
  124000     281.7782   -301.89425    -231.9991   -301.89425            0    9244.7691    24.759685    24.874108    22.968579            0            0            0    14145.775    10056.253    10343.309    7334.7456    1208.1243    14.842246    172.63043 
  124500    286.68937   -302.08499   -230.97163   -302.08499            0     8486.094    24.862862    24.977253    22.884987            0            0            0    14211.714    10282.735    8376.8463    6798.7007    155.65631    726.74811    2508.9692 
  125000    287.71512   -299.24864   -227.88084   -299.24864            0    10140.911    24.968053    24.839777    22.815649            0            0            0    14150.285    8936.6359    12687.708    8798.3894    2145.2569    -924.6715   -1320.3826 
  125500     279.5349   -300.77346   -231.43477   -300.77346            0    8514.1993    25.007929    24.834294     22.85632            0            0            0    14195.015    10367.095     7972.495     7203.008     192.4863   -2544.0902   -289.91781 
  126000    289.95133   -302.04378   -230.12129   -302.04378            0    8739.4188    24.811157    24.877554    22.948558            0            0            0    14164.789    11875.797    7555.0842    6787.3749   -141.80456   -1830.2491    1638.3118 
  126500    283.54148   -304.13489   -233.80237   -304.13489            0    10522.418    24.708549    24.910087    22.971202            0            0            0    14138.594    10782.668    12418.125    8366.4627   -511.70222   -768.41026    1463.1792 
  127000    279.83373   -301.78061    -232.3678   -301.78061            0    7068.6474    24.913788    24.905876     22.90209            0            0            0     14210.74    4589.6838    9033.8434    7582.4151    7.8508982    126.73235    2135.3612 
  127500    288.96225   -303.44839   -231.77125   -303.44839            0    10511.634    25.016352    24.820894    22.752159            0            0            0    14127.458    11389.264    11172.736    8972.9015    -1463.202   -187.00515   -2447.7626 
  128000    288.96217    -304.3175   -232.64037    -304.3175            0    10143.894    24.896853    24.881448    22.846779            0            0            0    14152.888    7050.9835    12192.609    11188.089    1527.4047   -3463.5958   -728.15739 
  128500    281.55983    -301.9027   -232.06172    -301.9027            0    6383.3775    24.773003    24.918956    23.025305            0            0            0     14213.92    4662.7615    7033.4693    7453.9018   -1290.0222    1247.7188   -1258.1505 
  129000     284.5973    -302.1599   -231.56548    -302.1599            0    12976.689     24.82179    24.760419    22.933507            0            0            0    14094.885    12467.087    15455.692    11007.286    676.80821    1277.6082    806.44239 
  129500    286.50888   -302.49218   -231.42359   -302.49218            0    7744.7769    25.048923    24.840472    22.936461            0            0            0    14271.687    7146.1342    7926.8943    8161.3022    89.015074   -1608.0814    2470.1419 
  130000    288.01503    -303.5376   -232.09541    -303.5376            0       9775.5    24.852951    24.851655       22.833            0            0            0    14102.505    7078.1153     11030.36    11218.025    1061.1953    2520.6401    2638.0376 
  130500     277.9204   -300.73694   -231.79873   -300.73694            0    9752.6905    24.767872    24.958156    22.913947            0            0            0    14164.495    11120.204    9590.9094    8546.9583   -354.27055    2727.8134    260.09085 
  131000    276.94471   -304.49849    -235.8023   -304.49849            0     10383.78    24.888796    24.863049    22.957953            0            0            0    14206.641    11636.398    9958.1479    9556.7958    340.10652   -879.76612     290.8048 
  131500     277.8515   -304.76309   -235.84196   -304.76309            0    9210.7003    24.887562    24.724186    22.840674            0            0            0    14054.431    8058.6473    9793.2389    9780.2146    1377.0585   -51.512523    2322.6059 
  132000    278.92986   -303.18627   -233.99766   -303.18627            0    9775.8933    24.965053    24.900075    22.934201            0            0            0    14256.626    9961.9539    12365.837    6999.8896    663.03817   -435.50021    1766.7614 
  132500     287.0936   -300.85917   -229.64554   -300.85917            0    8530.6001    24.744369     24.94148    22.904985            0            0            0    14136.067    10495.306    7534.7127    7561.7818     232.1379      982.258    240.72271 
  133000    291.41992   -302.70282   -230.41605   -302.70282            0    7217.4414    24.915009    24.888334    22.931194            0            0            0    14219.474    6928.5139     6389.478    8334.3323     545.9526    104.64985   -1752.9304 
  133500    284.25165   -303.15539    -232.6467   -303.15539            0    6717.4665    25.110837    24.784936    22.933994            0            0            0    14273.441    3927.9773    7918.2834    8306.1389    314.07224    -14.76182   -1646.9018 
  134000     285.4276   -304.58979   -233.78942   -304.58979            0    10251.715    24.785591    24.764124    22.823072            0            0            0    14008.652    11948.128    6901.2983    11905.719    1259.9734     -1209.61    -14.90837 
  134500      284.096    -302.2008   -231.73072    -302.2008            0    8192.0859    24.774555    25.107845    22.970115            0            0            0    14288.231    10036.647    8914.3638    5625.2469     343.4802   -4363.9601   -1897.8282 
  135000    286.48994   -306.11486   -235.05097   -306.11486            0     10190.99    24.763336    24.931359    22.868877            0            0            0     14118.87     12201.92    9568.5996    8802.4505    801.13807   -1943.1904    1097.3848 
  135500    282.63109   -303.72206   -233.61535   -303.72206            0      10534.9    24.952573    24.774868    22.892701            0            0            0    14152.193    10129.068    11148.999    10326.634    154.91084    597.74535    1601.0692 
  136000    284.79347   -303.39413   -232.75104   -303.39413            0    7672.0078    24.956551    24.845691     22.93592            0            0            0     14221.71    7681.0335    7537.6709    7797.3191    38.802708   -512.35285    -1256.645 
  136500    279.65974   -301.36643   -231.99677   -301.36643            0    11235.573    24.781948    24.857175      22.9212            0            0            0     14119.67    10150.134     9820.785      13735.8   -589.54899    2069.1128   -1259.7951 
  137000    282.32772   -301.63954   -231.60809   -301.63954            0    7673.3812    24.857832    24.910188    22.967457            0            0            0    14221.754    10043.415    6060.0652    6916.6639   -25.628522   -154.79247    103.23836 
  137500    288.50138   -300.61756   -229.05473   -300.61756            0    9339.8259     24.92761    24.764267     22.88698            0            0            0    14128.452     6269.554    9508.8705    12241.053    526.42101   -1740.7203    905.25294 
  138000    280.26267   -300.07829   -230.55907   -300.07829            0    7669.9009    24.948463    24.853518    22.923168            0            0            0    14213.672    8520.6277    7666.3798    6822.6953   -1090.8523   -1930.0414   -2009.5171 
  138500    282.91839   -302.45549   -232.27752   -302.45549            0    8781.7346    24.787631    24.856752    22.906704            0            0            0    14113.737    8293.9199    7150.4072    10900.877    2442.3373    227.97413   -55.358565 
  139000    268.88617   -304.14242   -237.44514   -304.14242            0     9558.938    24.773264    24.905305    22.936477            0            0            0    14151.478    12822.481    6895.1253    8959.2074    1405.7864   -2618.0134    -518.0148 
  139500    278.75283   -301.90579   -232.76109   -301.90579            0    9068.8189    24.890724    24.889683    22.841194            0            0            0    14150.627    4750.4655    11577.686    10878.305   -766.26775   -1050.5896   -161.11672 
  140000    283.44062   -301.27181    -230.9643   -301.27181            0    11179.339     24.98046    24.888504    22.802075            0            0            0    14176.649    8894.4897     10587.58    14055.947    2569.5639   -1899.0369    910.42828 
  140500    289.52694   -301.08817   -229.27095   -301.08817            0    11427.772    24.917335     24.88326    22.855203            0            0            0    14170.786    12723.962    10285.174     11274.18    1372.0911   -1228.4665   -107.51588 
  141000     282.0628   -302.65037   -232.68463   -302.65037            0     10592.07    24.802405    24.866042    23.020081            0            0            0     14197.35    12127.931    12427.257    7221.0224   -14.001946   -1596.3458    232.09033 
  141500    281.87276   -302.74193   -232.82333   -302.74193            0     10977.75    24.697802    24.810928       23.019            0            0            0    14105.476    11668.168    12915.327    8349.7568    616.37782   -1031.8409    1016.1427 
  142000    283.58592   -302.74338   -232.39983   -302.74338            0    8364.3075    24.881206     24.91341    22.926861            0            0            0    14211.804    9728.6637    7436.0891    7928.1697    1054.6912   -143.97913    274.74471 
  142500    288.42898   -301.41587     -229.871   -301.41587            0    11130.963    25.002031    24.913771    22.717837            0            0            0    14150.824    9931.5779    12201.225    11260.087    -2121.825   -1459.7045   -1963.9368 
  143000    285.84368   -303.08056   -232.17697   -303.08056            0    7960.7913    24.963785    24.911871    22.768256            0            0            0    14159.455     7219.713     8504.607    8158.0538    811.82469   -1502.8311   -558.33273 
  143500    284.04789   -302.05677   -231.59863   -302.05677            0    7913.1708    24.802759    24.869487    23.053225            0            0            0    14219.965    6520.6689    9069.5465    8149.2971   -2435.8566    2743.9586   -1389.8106 
  144000    288.90617   -303.11193   -231.44869   -303.11193            0    7762.8011    24.737725    24.806553    23.056765            0            0            0    14148.961    8890.6139    8113.4989    6284.2904    95.141191    535.05337   -159.74653 
  144500      280.722   -300.97768   -231.34453   -300.97768            0    9598.2591    24.933777    24.871678    22.855838            0            0            0    14173.931     8444.308    10308.215    10042.255   -753.98755   -1604.6256   -1088.8249 
  145000    279.22614    -301.1227    -231.8606    -301.1227            0    9369.7099     25.01053    24.967866    22.692443            0            0            0    14170.513    11816.155    5892.0948     10400.88   -1868.8906    1809.3884   -790.34932 
  145500    281.95372    -302.3922   -232.45352    -302.3922            0    8805.0103    24.831107    24.959408    22.851784            0            0            0    14162.844    7681.3969    10309.486    8424.1476    537.99713   -467.43805   -521.34194 
  146000    273.45967   -301.05326   -233.22153   -301.05326            0     6837.396    24.744753    24.842447    23.073258            0            0            0    14183.598    5883.9335    8379.7732    6248.4813    134.11633   -3248.3045    1304.4957 
  146500    280.20991   -303.12259   -233.61646   -303.12259            0    12452.757    24.801323    24.774406    23.005142            0            0            0    14135.234    11183.393    13870.705    12304.173    371.27188    940.41887   -1144.2296 
[...]
  365000    285.00075   -301.48981   -230.79531   -301.48981            0    6802.9453    24.942063    24.987912    22.775881            0            0            0    14195.069    7163.7211    6392.7226    6852.3923    1383.6104   -1196.8448    886.75356 
  365500    290.41432   -303.54412   -231.50678   -303.54412            0    8970.1355    24.920922    24.738718     22.85055            0            0            0    14087.631    9695.4615    8601.7624    8613.1828    184.90921    284.43908    734.64709 
  366000    298.13326   -303.72665   -229.77463   -303.72665            0    9802.3076    24.925866    24.794837    23.106006            0            0            0     14280.27     8653.972    12420.934    8332.0168    118.45381   -2286.0622    78.110604 
  366500     287.6175   -302.27031   -230.92673   -302.27031            0    8958.7682    24.678664    24.822014    23.003954            0            0            0    14091.628    12524.183    6207.8267    8144.2951   -1331.7921   -1739.3228   -1737.8369 
  367000    284.49423   -304.81928   -234.25043   -304.81928            0    7624.1582    24.913729    24.943322    22.929475            0            0            0     14249.09    7988.9107    7147.1011    7736.4628    2165.6466   -954.99201    4060.0245 
  367500    285.47979   -302.43586   -231.62253   -302.43586            0    11509.967    24.984633    24.855289    22.729999            0            0            0    14115.336    9641.0182    11149.118    13739.765    797.62071    -889.1691    2649.1888 
  368000    283.70505   -301.77285   -231.39975   -301.77285            0    8189.4867    24.955755    24.878774    22.806332            0            0            0    14159.735    7363.0789    7558.8518    9646.5296    1319.2664   -625.66896   -16.925133 
  368500    286.20757    -303.8513   -232.85745    -303.8513            0    6469.6091    24.805638    24.901888    22.950759            0            0            0    14176.849    3573.3399    7033.5592    8801.9281   -569.89774    634.27376    1037.1177 
  369000    293.36108   -304.29562   -231.52734   -304.29562            0    9310.7059    24.775324    24.864124    22.961179            0            0            0     14144.47    10523.576    8081.9011      9326.64   -284.59338   -289.99766    645.45458 
  369500    283.64392   -302.02202   -231.66408   -302.02202            0    10316.887    24.946776    24.857713    22.908467            0            0            0    14205.994    11604.632    9219.6074    10126.421    46.429564    -1665.686     255.4579 
  370000    284.54523   -301.79635   -231.21485   -301.79635            0    9781.4025    24.956472     24.85664    22.879398            0            0            0     14192.87    6622.7391    12458.608     10262.86   -1114.2806    1738.5932    945.02734 
  370500    276.31095   -302.93932   -234.40033   -302.93932            0    8866.7971    24.838452    24.862682    22.927658            0            0            0    14158.987    10512.778     7416.047    8671.5662    69.835724    -3239.407    247.58141 
  371000    282.02292   -305.27002   -235.31417   -305.27002            0    8741.8512    24.783017    24.803815    22.988951            0            0            0    14131.616    11778.935     7891.199    6555.4195   -903.26949    468.25174   -296.68022 
  371500    279.79181   -302.77008   -233.36766   -302.77008            0    9100.7726     24.91457    24.785979    22.992841            0            0            0    14198.815    10326.759    8716.4507    8259.1081    78.200479   -1608.6192    211.27154 
  372000    294.22878   -304.39527   -231.41176   -304.39527            0    11325.159    24.997257    24.836588    22.799551            0            0            0    14155.023    11954.071    11597.243    10424.164    342.12232    1363.8021   -483.84267 
  372500    277.88929   -303.67094   -234.74044   -303.67094            0    7727.2556    24.924663    25.023199    22.741256            0            0            0    14183.603     7246.037    6524.8188    9410.9111    976.51275    267.53854    1103.1235 
  373000    271.73823   -305.42379   -238.01907   -305.42379            0    8510.2786    24.708436    24.957439    22.870581            0            0            0    14103.356    10140.898    6831.9008    8558.0372   -1625.7922    1516.8668   -141.65566 
  373500    284.92975   -302.96411   -232.28723   -302.96411            0    8812.6985    24.784065      24.7522    23.088117            0            0            0    14163.639    11933.046    8880.9446    5624.1053   -1819.6796   -306.00919   -775.26625 
  374000    279.76975   -301.64726   -232.25031   -301.64726            0    7377.3078    24.954177    24.754159    22.985258            0            0            0    14198.446    3495.5944     10438.06    8198.2689   -446.80255    790.22438    2230.0888 
  374500    289.37341   -300.41613   -228.63699   -300.41613            0    10528.725    24.905413    24.924717    22.779522            0            0            0    14140.625    12172.429    10092.069    9321.6759    1063.1713    -1194.703    739.67741 
  375000    281.32442   -300.71594   -230.93336   -300.71594            0     7314.389    24.881467    25.068589    22.783693            0            0            0    14211.175    8811.3583     3948.805    9183.0038    2169.6653    722.09648    -556.9429 
  375500    294.69548   -305.00522   -231.90594   -305.00522            0    11424.134    24.818086    24.857469    22.867834            0            0            0    14107.506    8175.2094    13858.281    12238.912    1454.5871    -2587.212    1313.3337 
  376000    287.65233   -301.91381   -230.56159   -301.91381            0    9113.3376    24.891634    24.780541    23.068083            0            0            0    14229.043    7886.0834    11689.852    7764.0771   -234.23425    1032.3072   -558.27446 
  376500    285.01072   -302.59086   -231.89389   -302.59086            0    8365.1817    24.792215    24.825843    23.063514            0            0            0    14195.308    8164.4185    8808.5071    8122.6195    157.82821   -1624.3481    2017.9599 
  377000    273.35184    -302.3427   -234.53771    -302.3427            0    11045.515    24.793093    24.925473    22.898554            0            0            0    14150.838    10309.236    10381.496    12445.814    655.01656    283.09064    681.01158 
  377500    272.78214   -302.46765   -234.80398   -302.46765            0    7515.4536    24.854163    24.951178    22.822001            0            0            0    14152.851    8372.3997    4977.0484    9196.9126    26.502137   -1109.9344   -2002.7055 
  378000    283.40819   -302.86101   -232.56154   -302.86101            0    8894.0513    24.913959    24.845237    22.886262            0            0            0    14166.441    9130.1353    8732.0365    8819.9821   -80.151178   -1056.9903    -455.2918 
  378500    281.63899    -302.4418   -232.58119    -302.4418            0    7967.9549    24.875718    24.794384    22.937811            0            0            0    14147.539    9574.8039      5745.78    8583.2809   -153.36353   -7.7793566   -1371.7296 
  379000     287.4131   -303.54632   -232.25344   -303.54632            0    8465.7341    24.862442    24.894957    22.931821            0            0            0    14193.637    6514.4074    10197.471    8685.3242   -233.58892   -1516.3864    773.68414 
  379500    286.74355   -305.57587   -234.44907   -305.57587            0    9498.5082    24.834281    24.916184    22.859427            0            0            0    14144.853    10916.842    8687.9389    8890.7442    1444.0083   -490.38868    351.34773 
  380000    280.61535   -306.19083   -236.58413   -306.19083            0    9278.5697    24.908586    24.906646    22.810977            0            0            0    14151.687    12349.147    7650.4175    7836.1443   -2048.6573   -165.31407   -938.25753 
  380500    286.54502   -302.83014   -231.75259   -302.83014            0    8642.5393    24.907944    24.844544    22.873745            0            0            0     14154.88    9294.2563     9568.596    7064.7657    538.66816   -1079.2568    910.38922 
  381000    277.25508   -300.73261   -231.95942   -300.73261            0    10894.892     24.89421    24.796128    23.016317            0            0            0    14207.513     9387.374    15067.229    8230.0732   -321.63363   -1126.4385   -666.93504 
  381500    289.99713   -300.36159   -228.42774   -300.36159            0    8890.8138     24.83668    24.865648    23.012214            0            0            0    14211.886    8089.2451    9316.7421    9266.4541     797.4327     1092.917    701.59964 
  382000    292.26777   -304.47094   -231.97385   -304.47094            0    8620.6798    24.822687    24.991569    22.795004            0            0            0     14141.06    8820.8314    8704.7413    8336.4667   -489.82289    752.47848    761.68941 
  382500     295.4832   -302.29155   -228.99688   -302.29155            0    7970.8262     25.00643    24.969537    22.761618            0            0            0    14212.331    6705.5261     7869.824    9337.1286   -191.90672   -152.68406    41.425276 
  383000    291.10361   -300.69555   -228.48724   -300.69555            0    9946.4416    24.897752    24.835748    22.923816            0            0            0     14175.04    7388.8625    13114.564    9335.8986   -496.07109    -369.5774    1869.7932 
  383500    291.72164    -301.1702   -228.80859    -301.1702            0      7094.38    24.764565    24.840073    23.102992            0            0            0    14211.889    6494.1274    8051.2911    6737.7215    1038.5571    -424.9883    1096.0615 
  384000    280.11134    -304.6743   -235.19262    -304.6743            0    10393.818    24.726858    24.927245    23.004998            0            0            0    14179.647    8983.2036    12602.269     9595.981    21.661496   -437.91281   -284.75719 
  384500    281.24148   -303.70886   -233.94685   -303.70886            0    10082.985    24.930186    24.884686    22.769392            0            0            0    14125.672    10552.382    9565.5202    10131.052     1279.349   -569.03032    1614.4657 
  385000    270.62601   -302.05088   -234.92204   -302.05088            0    7365.9657    25.041027    24.873808    22.799418            0            0            0    14200.975    2794.1096    8351.1965    10952.591    202.94418    476.60023    617.90704 
  385500    281.64757   -303.57602   -233.71328   -303.57602            0    10277.424    24.827527    24.784395    22.884446            0            0            0    14081.606    13134.853    8473.9668    9223.4535    -619.2568   -2432.3202    1907.8287 
  386000    283.55386   -301.61359     -231.278   -301.61359            0    7011.0769    24.815481    24.902919    23.067693            0            0            0    14255.325    5784.8078    9669.3608     5579.062   -734.36935   -1175.8352   -922.98176 
  386500    293.85322   -304.20848   -231.31812   -304.20848            0    9049.2271     24.80013    24.905197    22.924943            0            0            0     14159.64    8346.0605    8736.8473    10064.774     1824.468    274.34948    371.86362 
  387000    283.81804   -302.85078   -232.44965   -302.85078            0    8237.3496    24.912896    24.848603    22.843567            0            0            0    14141.325    8859.0284    8579.6629    7273.3574    1578.2622   -622.65061    -353.8541 
  387500     285.8958   -305.03346   -234.11694   -305.03346            0    6985.6097    24.984559    24.815943    22.929648            0            0            0    14216.735    6447.2233    6297.9365    8211.6693   -188.59645   -1778.4277    2173.3316 
  388000    280.58636   -304.21623   -234.61672   -304.21623            0    12557.922    24.754878    24.805635    22.929614            0            0            0    14080.169    13584.247    13582.837    10506.682    61.312897   -287.19236    462.73271 
  388500    269.76376   -303.62622   -236.71126   -303.62622            0    8984.9564    24.752405    25.086955    22.920425            0            0            0    14232.724    7839.5002     7297.754    11817.615   -548.76068   -754.07524   -19.071422 
  389000     280.7682   -304.51759   -234.87298   -304.51759            0    12157.042    24.851326     24.85884    22.772691            0            0            0    14068.402    14237.281    9450.0696    12783.776   -801.36447    1391.8199     215.3834 
  389500    275.70302    -305.5838    -237.1956    -305.5838            0    6948.3178    25.089294    24.681392    22.902865            0            0            0     14182.34    6038.0384    11110.902    3696.0133   -1201.8329    1691.2506   -217.63934 
  390000    273.93164   -305.63968   -237.69088   -305.63968            0    10860.064    24.865634    24.741244    22.989028            0            0            0    14143.005    10384.456    12379.934    9815.8021   -2025.9441     2411.397    3184.1204 
  390500    297.05308   -305.64477   -231.96068   -305.64477            0    6756.3295    24.623696    24.991468    22.998517            0            0            0    14152.881    8730.8712    7112.9497    4425.1675    1193.5406   -1669.8534    1734.9278 
  391000      292.414   -304.31058   -231.77722   -304.31058            0    7772.8319    24.790037     24.96472    22.930624            0            0            0     14191.22    9814.7982    6837.5286    6666.1688    921.63875    246.60959    658.89942 
  391500    289.15362   -302.98511    -231.2605   -302.98511            0    10298.073     25.00597    24.772727    22.859355            0            0            0    14160.595    9265.7067    12187.312    9441.2004    968.65492    1581.9764    354.20265 
  392000    280.56722   -304.26169   -234.66693   -304.26169            0     7852.485    24.982821    24.816064     22.82219            0            0            0    14149.194    6501.5449    7898.8373    9157.0728   -1024.3291    1140.7584    1337.9883 
  392500    285.38786   -303.17352     -232.383   -303.17352            0    9365.8578    24.747516    24.947103    22.862267            0            0            0     14114.68    11427.282    7222.3705    9447.9211   -1039.9188   -921.64203    551.38932 
  393000    282.16381   -302.13392   -232.14313   -302.13392            0     7855.417    24.803407    24.922981    23.020158            0            0            0    14230.482    8331.6787    5717.5211    9517.0511   -849.36678   -1293.0423   -675.69463 
  393500     280.3111   -301.37682   -231.84559   -301.37682            0    7730.9148    24.898011    24.726512    22.958935            0            0            0    14134.461    5841.5444    9421.5445    7929.6556    3075.1176    3239.0309    498.24086 
  394000    278.21295   -303.29468    -234.2839   -303.29468            0     5332.726    24.986716    24.834265    22.882257            0            0            0    14199.052     6305.358    4493.8514    5198.9686   -1695.7606   -452.75606    2332.7787 
  394500    287.98925   -303.01131   -231.57552   -303.01131            0    11169.419    24.855464    24.953287     22.78022            0            0            0    14128.874    12092.453    9752.1095    11663.694    1471.1385   -798.99147    799.52331 
  395000    282.42247   -303.57986   -233.52491   -303.57986            0    9608.9114    24.870887    24.931066    22.910372            0            0            0    14205.753    7738.6403    10996.159    10091.935   -464.89765   -1313.6941    118.39979 
  395500    279.00027   -303.18184   -233.97576   -303.18184            0    9542.2242    24.849792    24.725885    23.020987            0            0            0    14144.856    11544.857    8334.9405    8746.8752    618.97739   -526.41985    1966.5546 
  396000    282.76904   -304.97722    -234.8363   -304.97722            0    11482.621    24.820061    24.740577    23.025738            0            0            0    14139.245     10201.29    13718.895    10527.679   -732.44672   -970.98907    149.99705 
  396500    295.42124   -303.06439   -229.78509   -303.06439            0    8626.4607    24.846351    24.970475    22.903734            0            0            0    14210.053    7839.8019    7308.6781    10730.902    65.773929    -2090.875    203.43838 
  397000    288.33103    -305.5085   -233.98793    -305.5085            0    8953.0314    24.824829      24.9798    22.741221            0            0            0     14102.27    9593.9169    8386.0887    8879.0887     1067.603   -1793.4734     457.8388 
  397500    285.47483   -302.93077   -232.11867   -302.93077            0    6806.3337    25.020133    24.931875    22.890876            0            0            0    14279.302    3741.9656    5956.2795    10720.756   -472.07257   -849.37102    -694.9352 
  398000    286.52767   -303.55591   -232.48266   -303.55591            0     9934.237     24.90198    24.668276    22.941817            0            0            0    14092.904    9297.4772    9217.0031    11288.231      299.665   -281.52575   -2649.3485 
  398500    280.55587   -302.43783   -232.84588   -302.43783            0    10103.991    24.797295     24.86706    23.100727            0            0            0    14244.736    10602.852    11040.287    8668.8332    782.44718    1171.4372   -1189.2056 
  399000    278.94497   -304.14205   -234.94969   -304.14205            0    10030.257      24.7363    24.915327    22.923489            0            0            0    14128.045    12030.946     9950.144    8109.6798    1511.0467    35.979699    15.738027 
  399500    281.35565   -304.78674   -234.99641   -304.78674            0     10695.27    24.880386    24.943172    22.800611            0            0            0    14149.962    9976.1108    9768.5473    12341.151   -205.62728   -172.24862    1408.1112 
  400000    287.14242    -306.7931   -235.56736    -306.7931            0    7411.8841    24.984938    24.840188    22.825935            0            0            0    14166.473    6738.4543     7420.105    8077.0928    106.85342   -1849.3904    323.11277 
Loop time of 4370.76 on 1 procs for 400000 steps with 1920 atoms

Performance: 3.954 ns/day, 6.071 hours/ns, 91.517 timesteps/s
64.6% CPU use with 1 MPI tasks x 1 OpenMP threads

MPI task timing breakdown:
Section |  min time  |  avg time  |  max time  |%varavg| %total
---------------------------------------------------------------
Pair    | 3739.4     | 3739.4     | 3739.4     |   0.0 | 85.55
Bond    | 0.066446   | 0.066446   | 0.066446   |   0.0 |  0.00
Neigh   | 581.19     | 581.19     | 581.19     |   0.0 | 13.30
Comm    | 16.127     | 16.127     | 16.127     |   0.0 |  0.37
Output  | 2.5091     | 2.5091     | 2.5091     |   0.0 |  0.06
Modify  | 29.247     | 29.247     | 29.247     |   0.0 |  0.67
Other   |            | 2.266      |            |       |  0.05

Nlocal:        1920.00 ave        1920 max        1920 min
Histogram: 1 0 0 0 0 0 0 0 0 0
Nghost:        7205.00 ave        7205 max        7205 min
Histogram: 1 0 0 0 0 0 0 0 0 0
Neighs:         0.00000 ave           0 max           0 min
Histogram: 1 0 0 0 0 0 0 0 0 0
FullNghs:      547106.0 ave      547106 max      547106 min
Histogram: 1 0 0 0 0 0 0 0 0 0

Total # of neighbors = 547106
Ave neighs/atom = 284.95104
Ave special neighs/atom = 0.0000000
Neighbor list builds = 40000
Dangerous builds not checked

unfix		3
unfix		2

write_data	data.final.${pid}
write_data	data.final.0
System init for write_data ...

write_restart   restart.lmp.${pid}
write_restart   restart.lmp.0
System init for write_restart ...
Total wall time: 1:12:56
