LAMMPS data file via MDAnalysis

        1920  atoms
           0  bonds
           0  angles
           0  dihedrals
           0  impropers

           2  atom types
           0  bond types
           0  angle types
           0  dihedral types
           0  improper types

0.000000 24.724405 xlo xhi
0.000000 24.724405 ylo yhi
0.000000 22.792374 zlo zhi


Masses

1 15.999000
2 1.008000

Atoms

1 0 1 0.000000 4.590000 1.500000 4.280000
2 0 2 0.000000 4.750000 2.180000 4.940000
3 0 2 0.000000 5.270000 1.650000 3.620000
4 0 1 0.000000 2.940000 1.550000 2.030000
5 0 2 0.000000 3.360000 1.550000 2.890000
6 0 2 0.000000 2.000000 1.550000 2.230000
7 0 1 0.000000 6.030000 4.590000 3.580000
8 0 2 0.000000 6.460000 5.270000 4.100000
9 0 2 0.000000 5.090000 4.750000 3.700000
10 0 1 0.000000 3.330000 4.610000 3.630000
11 0 2 0.000000 2.820000 5.200000 4.180000
12 0 2 0.000000 2.820000 4.530000 2.830000
13 0 1 0.000000 1.500000 2.940000 4.980000
14 0 2 0.000000 2.180000 3.370000 4.460000
15 0 2 0.000000 1.660000 2.000000 4.860000
16 0 1 0.000000 0.240000 1.520000 2.070000
17 0 2 0.000000 -0.270000 1.440000 2.880000
18 0 2 0.000000 -0.270000 2.110000 1.520000
19 0 1 0.000000 4.640000 3.330000 0.720000
20 0 2 0.000000 3.880000 2.860000 1.080000
21 0 2 0.000000 5.390000 2.860000 1.080000
22 0 1 0.000000 1.590000 4.600000 1.430000
23 0 2 0.000000 0.920000 4.750000 2.090000
24 0 2 0.000000 1.440000 5.270000 0.770000
25 0 1 0.000000 4.590000 6.030000 0.730000
26 0 2 0.000000 5.270000 6.460000 1.250000
27 0 2 0.000000 4.750000 5.100000 0.850000
28 0 1 0.000000 1.520000 0.240000 4.930000
29 0 2 0.000000 2.110000 -0.270000 4.380000
30 0 2 0.000000 1.440000 -0.270000 5.730000
31 0 1 0.000000 10.820000 1.550000 4.210000
32 0 2 0.000000 10.820000 2.300000 4.800000
33 0 2 0.000000 10.820000 0.790000 4.800000
34 0 1 0.000000 9.030000 1.520000 2.070000
35 0 2 0.000000 9.540000 1.440000 2.880000
36 0 2 0.000000 9.550000 2.110000 1.520000
37 0 1 0.000000 12.209999 4.590000 3.580000
38 0 2 0.000000 12.640000 5.270000 4.100000
39 0 2 0.000000 11.270000 4.750000 3.700000
40 0 1 0.000000 9.510000 4.670000 3.630000
41 0 2 0.000000 9.000000 4.750000 2.830000
42 0 2 0.000000 9.000000 4.080000 4.180000
43 0 1 0.000000 7.760000 2.850000 4.930000
44 0 2 0.000000 7.830000 3.370000 5.730000
45 0 2 0.000000 7.170000 3.370000 4.380000
46 0 1 0.000000 6.340000 1.590000 2.120000
47 0 2 0.000000 5.910000 0.910000 1.600000
48 0 2 0.000000 7.270000 1.440000 2.000000
49 0 1 0.000000 10.790000 3.330000 0.780000
50 0 2 0.000000 11.380000 2.820000 1.330000
51 0 2 0.000000 10.710000 2.820000 -0.030000
52 0 1 0.000000 7.770000 4.690000 1.430000
53 0 2 0.000000 7.620000 4.010000 0.770000
54 0 2 0.000000 7.100000 4.530000 2.090000
55 0 1 0.000000 10.770000 6.030000 0.730000
56 0 2 0.000000 10.930000 5.100000 0.850000
57 0 2 0.000000 11.450000 6.460000 1.250000
58 0 1 0.000000 7.680000 0.150000 4.980000
59 0 2 0.000000 8.360001 -0.270000 4.460000
60 0 2 0.000000 7.840000 1.090000 4.860000
61 0 1 0.000000 17.050001 1.500000 4.280000
62 0 2 0.000000 16.369999 1.650000 3.620000
63 0 2 0.000000 16.889999 2.180000 4.940000
64 0 1 0.000000 15.299999 1.500000 2.120000
65 0 2 0.000000 15.730000 2.180000 1.600000
66 0 2 0.000000 14.360000 1.660000 2.000000
67 0 1 0.000000 18.309999 4.610000 3.630000
68 0 2 0.000000 18.820000 5.200000 4.180000
69 0 2 0.000000 18.820000 4.540000 2.820000
70 0 1 0.000000 15.610000 4.590000 3.580000
71 0 2 0.000000 16.540001 4.750000 3.700000
72 0 2 0.000000 15.180000 5.270000 4.100000
73 0 1 0.000000 13.910000 2.860000 4.980000
74 0 2 0.000000 14.670000 3.320000 4.630000
75 0 2 0.000000 13.150001 3.330000 4.630000
76 0 1 0.000000 12.600000 1.570000 2.070000
77 0 2 0.000000 12.090000 0.990000 1.520000
78 0 2 0.000000 12.090000 1.650000 2.880000
79 0 1 0.000000 17.000000 3.250000 0.820000
80 0 2 0.000000 17.000000 4.180000 0.620000
81 0 2 0.000000 17.000000 2.820000 -0.030000
82 0 1 0.000000 13.910000 4.640000 1.360000
83 0 2 0.000000 14.670000 4.640000 1.950000
84 0 2 0.000000 13.150001 4.640000 1.950000
85 0 1 0.000000 17.029999 5.950000 0.780000
86 0 2 0.000000 17.110001 6.460000 -0.030000
87 0 2 0.000000 16.440001 6.460000 1.330000
88 0 1 0.000000 13.860001 0.150000 4.980000
89 0 2 0.000000 14.020000 1.090000 4.860000
90 0 2 0.000000 14.540000 -0.270000 4.460000
91 0 1 0.000000 23.230000 1.500000 4.280000
92 0 2 0.000000 23.070000 2.180000 4.940000
93 0 2 0.000000 22.550001 1.650000 3.620000
94 0 1 0.000000 21.480000 1.590000 2.120000
95 0 2 0.000000 21.910000 0.910000 1.600000
96 0 2 0.000000 20.539999 1.440000 2.000000
97 0 1 0.000000 24.489998 4.640000 3.580000
98 0 2 0.000000 24.960001 5.400000 3.930000
99 0 2 0.000000 24.960001 3.880000 3.930000
100 0 1 0.000000 21.789999 4.640000 3.680000
101 0 2 0.000000 21.359999 4.640000 2.820000
102 0 2 0.000000 22.730000 4.640000 3.480000
103 0 1 0.000000 20.090000 2.860000 4.980000
104 0 2 0.000000 19.330000 3.330000 4.630000
105 0 2 0.000000 20.850000 3.320000 4.630000
106 0 1 0.000000 18.780001 1.520000 2.070000
107 0 2 0.000000 18.270000 2.110000 1.520000
108 0 2 0.000000 18.270000 1.440000 2.880000
109 0 1 0.000000 23.230000 3.250000 0.730000
110 0 2 0.000000 23.070000 4.180000 0.850000
111 0 2 0.000000 22.550001 2.820000 1.250000
112 0 1 0.000000 20.090000 4.640000 1.490000
113 0 2 0.000000 20.090000 3.880000 0.910000
114 0 2 0.000000 20.090000 5.400000 0.900000
115 0 1 0.000000 23.210001 5.950000 0.780000
116 0 2 0.000000 22.620001 6.460000 1.330000
117 0 2 0.000000 23.290001 6.460000 -0.030000
118 0 1 0.000000 20.090000 0.150000 4.880000
119 0 2 0.000000 20.090000 1.090000 5.080000
120 0 2 0.000000 20.090000 -0.270000 5.740000
121 0 1 0.000000 4.640000 7.730000 4.340000
122 0 2 0.000000 3.880000 7.730000 3.760000
123 0 2 0.000000 5.390000 7.730000 3.760000
124 0 1 0.000000 2.860000 7.730000 2.130000
125 0 2 0.000000 3.320000 6.970000 1.770000
126 0 2 0.000000 3.320000 8.490000 1.770000
127 0 1 0.000000 6.030000 10.780000 3.580000
128 0 2 0.000000 6.460000 11.450000 4.100000
129 0 2 0.000000 5.090000 10.930000 3.700000
130 0 1 0.000000 3.330000 10.820000 3.580000
131 0 2 0.000000 2.860000 11.580000 3.930000
132 0 2 0.000000 2.860000 10.060000 3.930000
133 0 1 0.000000 1.570000 9.040000 4.930000
134 0 2 0.000000 1.650000 9.550000 5.730000
135 0 2 0.000000 0.980000 9.550000 4.380000
136 0 1 0.000000 0.150000 7.770000 2.120000
137 0 2 0.000000 1.090000 7.620000 2.000000
138 0 2 0.000000 -0.270000 7.100000 1.600000
139 0 1 0.000000 4.640000 9.430000 0.820000
140 0 2 0.000000 4.640000 10.369999 0.620000
141 0 2 0.000000 4.640000 9.000000 -0.030000
142 0 1 0.000000 1.500000 10.780000 1.430000
143 0 2 0.000000 2.170000 10.930000 2.090000
144 0 2 0.000000 1.650000 11.450000 0.770000
145 0 1 0.000000 4.640000 12.139999 0.720000
146 0 2 0.000000 5.390000 12.600000 1.080000
147 0 2 0.000000 3.880000 12.600000 1.080000
148 0 1 0.000000 1.550000 6.340000 4.880000
149 0 2 0.000000 1.550000 7.270000 5.080000
150 0 2 0.000000 1.550000 5.910000 5.740000
151 0 1 0.000000 10.870000 7.770000 4.280000
152 0 2 0.000000 10.190001 7.620000 3.620000
153 0 2 0.000000 10.710000 7.100000 4.940000
154 0 1 0.000000 9.040000 7.730000 2.130000
155 0 2 0.000000 9.500000 8.490000 1.770000
156 0 2 0.000000 9.500000 6.970000 1.770000
157 0 1 0.000000 12.209999 10.820000 3.680000
158 0 2 0.000000 11.270000 10.820000 3.480000
159 0 2 0.000000 12.640000 10.820000 2.820000
160 0 1 0.000000 9.510000 10.850000 3.630000
161 0 2 0.000000 9.000000 10.930000 2.830000
162 0 2 0.000000 9.000000 10.260000 4.180000
163 0 1 0.000000 7.760000 9.040000 4.930000
164 0 2 0.000000 7.170000 9.550000 4.380000
165 0 2 0.000000 7.830000 9.550000 5.730000
166 0 1 0.000000 6.340000 7.680000 2.120000
167 0 2 0.000000 7.270000 7.840000 2.000000
168 0 2 0.000000 5.910000 8.360001 1.600000
169 0 1 0.000000 10.820000 9.430000 0.820000
170 0 2 0.000000 10.820000 9.000000 -0.030000
171 0 2 0.000000 10.820000 10.369999 0.620000
172 0 1 0.000000 7.770000 10.870000 1.430000
173 0 2 0.000000 7.620000 10.190001 0.770000
174 0 2 0.000000 7.100000 10.720000 2.090000
175 0 1 0.000000 10.820000 12.139999 0.720000
176 0 2 0.000000 11.580000 12.600000 1.080000
177 0 2 0.000000 10.060000 12.600000 1.080000
178 0 1 0.000000 7.680000 6.340000 4.980000
179 0 2 0.000000 7.840000 7.270000 4.860000
180 0 2 0.000000 8.360001 5.910000 4.460000
181 0 1 0.000000 17.050001 7.770000 4.280000
182 0 2 0.000000 16.369999 7.620000 3.620000
183 0 2 0.000000 16.889999 7.100000 4.940000
184 0 1 0.000000 15.299999 7.680000 2.120000
185 0 2 0.000000 15.730000 8.360001 1.600000
186 0 2 0.000000 14.360000 7.840000 2.000000
187 0 1 0.000000 18.309999 10.850000 3.630000
188 0 2 0.000000 18.820000 10.260000 4.180000
189 0 2 0.000000 18.820000 10.930000 2.830000
190 0 1 0.000000 15.610000 10.870000 3.580000
191 0 2 0.000000 15.180000 10.190001 4.100000
192 0 2 0.000000 16.549999 10.710000 3.700000
193 0 1 0.000000 13.940001 9.040000 4.930000
194 0 2 0.000000 13.350000 9.550000 4.380000
195 0 2 0.000000 14.020000 9.550000 5.730000
196 0 1 0.000000 12.600000 7.700000 2.070000
197 0 2 0.000000 12.090000 8.290000 1.520000
198 0 2 0.000000 12.090000 7.620000 2.880000
199 0 1 0.000000 16.970001 9.510000 0.780000
200 0 2 0.000000 16.889999 9.000000 -0.030000
201 0 2 0.000000 17.560001 9.000000 1.330000
202 0 1 0.000000 13.860001 10.870000 1.430000
203 0 2 0.000000 14.010000 10.190001 0.770000
204 0 2 0.000000 14.540000 10.720000 2.090000
205 0 1 0.000000 17.000000 12.220000 0.820000
206 0 2 0.000000 17.000000 11.280001 0.630000
207 0 2 0.000000 17.000000 12.640000 -0.030000
208 0 1 0.000000 13.910000 6.340000 4.880000
209 0 2 0.000000 13.910000 7.270000 5.080000
210 0 2 0.000000 13.910000 5.910000 5.740000
211 0 1 0.000000 23.139999 7.680000 4.280000
212 0 2 0.000000 23.290001 8.360001 4.940000
213 0 2 0.000000 23.810001 7.840000 3.620000
214 0 1 0.000000 21.480000 7.730000 2.030000
215 0 2 0.000000 20.539999 7.730000 2.230000
216 0 2 0.000000 21.910000 7.730000 2.890000
217 0 1 0.000000 24.570000 10.820000 3.680000
218 0 2 0.000000 25.000000 10.820000 2.820000
219 0 2 0.000000 23.640001 10.820000 3.480000
220 0 1 0.000000 21.870001 10.820000 3.580000
221 0 2 0.000000 21.400002 11.580000 3.930000
222 0 2 0.000000 21.410000 10.060000 3.930000
223 0 1 0.000000 20.090000 9.120000 4.880000
224 0 2 0.000000 20.090000 8.180000 5.080000
225 0 2 0.000000 20.090000 9.550000 5.740000
226 0 1 0.000000 18.780001 7.760000 2.070000
227 0 2 0.000000 18.270000 7.170000 1.520000
228 0 2 0.000000 18.270000 7.830000 2.880000
229 0 1 0.000000 23.180000 9.510000 0.720000
230 0 2 0.000000 22.420002 9.040000 1.080000
231 0 2 0.000000 23.940001 9.040000 1.080000
232 0 1 0.000000 20.039999 10.780000 1.430000
233 0 2 0.000000 20.720001 10.930000 2.090000
234 0 2 0.000000 20.200001 11.450000 0.770000
235 0 1 0.000000 23.230000 12.220000 0.730000
236 0 2 0.000000 23.070000 11.280001 0.850000
237 0 2 0.000000 22.550001 12.640000 1.250000
238 0 1 0.000000 20.060001 6.420000 4.930000
239 0 2 0.000000 20.650002 5.910000 4.380000
240 0 2 0.000000 19.980000 5.910000 5.730000
241 0 1 0.000000 4.680000 13.950000 4.280000
242 0 2 0.000000 4.530000 13.280000 4.940000
243 0 2 0.000000 4.010000 13.800000 3.620000
244 0 1 0.000000 2.940000 13.860001 2.120000
245 0 2 0.000000 2.000000 14.020000 2.000000
246 0 2 0.000000 3.360000 14.540000 1.600000
247 0 1 0.000000 5.950000 17.029999 3.630000
248 0 2 0.000000 6.460000 16.440001 4.180000
249 0 2 0.000000 6.460000 17.110001 2.830000
250 0 1 0.000000 3.250000 17.000000 3.680000
251 0 2 0.000000 2.820000 17.000000 2.820000
252 0 2 0.000000 4.180000 17.000000 3.480000
253 0 1 0.000000 1.550000 15.219999 4.980000
254 0 2 0.000000 0.790000 15.690001 4.630000
255 0 2 0.000000 2.300000 15.690001 4.630000
256 0 1 0.000000 0.230000 13.910000 2.130000
257 0 2 0.000000 -0.230000 14.670000 1.770000
258 0 2 0.000000 -0.230000 13.150001 1.770000
259 0 1 0.000000 4.640000 15.610000 0.820000
260 0 2 0.000000 4.640000 16.549999 0.620000
261 0 2 0.000000 4.640000 15.180000 -0.030000
262 0 1 0.000000 1.550000 17.000000 1.490000
263 0 2 0.000000 1.550000 16.250000 0.910000
264 0 2 0.000000 1.550000 17.760000 0.900000
265 0 1 0.000000 4.670000 18.309999 0.780000
266 0 2 0.000000 4.740000 18.820000 -0.030000
267 0 2 0.000000 4.080000 18.820000 1.330000
268 0 1 0.000000 1.590000 12.520000 4.980000
269 0 2 0.000000 1.440000 13.450001 4.860000
270 0 2 0.000000 0.910000 12.090000 4.460000
271 0 1 0.000000 10.870000 13.950000 4.280000
272 0 2 0.000000 10.710000 13.280000 4.940000
273 0 2 0.000000 10.190001 13.800000 3.620000
274 0 1 0.000000 9.120000 13.860001 2.120000
275 0 2 0.000000 9.550000 14.540000 1.600000
276 0 2 0.000000 8.180000 14.020000 2.000000
277 0 1 0.000000 12.130001 17.029999 3.630000
278 0 2 0.000000 12.640000 16.440001 4.180000
279 0 2 0.000000 12.640000 17.110001 2.830000
280 0 1 0.000000 9.430000 17.050001 3.580000
281 0 2 0.000000 10.360001 16.889999 3.700000
282 0 2 0.000000 9.000000 16.369999 4.100000
283 0 1 0.000000 7.730000 15.299999 4.880000
284 0 2 0.000000 7.730000 14.370001 5.080000
285 0 2 0.000000 7.730000 15.730000 5.740000
286 0 1 0.000000 6.420000 13.880000 2.070000
287 0 2 0.000000 5.910000 13.800000 2.880000
288 0 2 0.000000 5.910000 14.470000 1.520000
289 0 1 0.000000 10.770000 15.610000 0.730000
290 0 2 0.000000 10.930000 16.549999 0.850000
291 0 2 0.000000 11.450000 15.180000 1.250000
292 0 1 0.000000 7.680000 17.050001 1.430000
293 0 2 0.000000 7.830000 16.369999 0.770000
294 0 2 0.000000 8.360001 16.900002 2.090000
295 0 1 0.000000 10.820000 18.320000 0.720000
296 0 2 0.000000 10.060000 18.780001 1.080000
297 0 2 0.000000 11.580000 18.780001 1.080000
298 0 1 0.000000 7.700000 12.600000 4.930000
299 0 2 0.000000 7.620000 12.090000 5.730000
300 0 2 0.000000 8.290000 12.090000 4.380000
301 0 1 0.000000 16.950001 13.860001 4.280000
302 0 2 0.000000 17.110001 14.540000 4.940000
303 0 2 0.000000 17.630001 14.020000 3.620000
304 0 1 0.000000 15.210000 13.940001 2.070000
305 0 2 0.000000 15.730000 13.350000 1.520000
306 0 2 0.000000 15.720000 14.020000 2.880000
307 0 1 0.000000 18.309999 17.029999 3.630000
308 0 2 0.000000 18.820000 17.110001 2.830000
309 0 2 0.000000 18.820000 16.440001 4.180000
310 0 1 0.000000 15.610000 16.959999 3.580000
311 0 2 0.000000 15.180000 17.640001 4.100000
312 0 2 0.000000 16.540001 17.110001 3.700000
313 0 1 0.000000 13.860001 15.299999 4.980000
314 0 2 0.000000 14.540000 15.730000 4.460000
315 0 2 0.000000 14.020000 14.370001 4.860000
316 0 1 0.000000 12.520000 13.910000 2.030000
317 0 2 0.000000 12.090000 13.910000 2.890000
318 0 2 0.000000 13.450001 13.910000 2.230000
319 0 1 0.000000 17.029999 15.700001 0.780000
320 0 2 0.000000 17.110001 15.180000 -0.030000
321 0 2 0.000000 16.440001 15.180000 1.330000
322 0 1 0.000000 13.860001 16.959999 1.430000
323 0 2 0.000000 14.540000 17.110001 2.090000
324 0 2 0.000000 14.020000 17.630001 0.770000
325 0 1 0.000000 17.000000 18.400000 0.820000
326 0 2 0.000000 17.000000 18.820000 -0.030000
327 0 2 0.000000 17.000000 17.460001 0.630000
328 0 1 0.000000 13.910000 12.600000 4.980000
329 0 2 0.000000 14.670000 12.130001 4.630000
330 0 2 0.000000 13.150001 12.130001 4.620000
331 0 1 0.000000 23.139999 13.950000 4.280000
332 0 2 0.000000 23.810001 13.800000 3.620000
333 0 2 0.000000 23.290001 13.280000 4.940000
334 0 1 0.000000 21.480000 13.910000 2.030000
335 0 2 0.000000 20.539999 13.910000 2.230000
336 0 2 0.000000 21.910000 13.910000 2.890000
337 0 1 0.000000 24.489998 16.980000 3.630000
338 0 2 0.000000 25.000000 16.900002 2.820000
339 0 2 0.000000 25.000000 17.560001 4.180000
340 0 1 0.000000 21.789999 16.959999 3.580000
341 0 2 0.000000 22.730000 17.110001 3.700000
342 0 2 0.000000 21.359999 17.640001 4.100000
343 0 1 0.000000 20.060001 15.219999 4.930000
344 0 2 0.000000 19.980000 15.730000 5.730000
345 0 2 0.000000 20.650002 15.730000 4.380000
346 0 1 0.000000 18.780001 13.910000 2.130000
347 0 2 0.000000 18.309999 13.150001 1.770000
348 0 2 0.000000 18.309999 14.670000 1.770000
349 0 1 0.000000 23.210001 15.700001 0.780000
350 0 2 0.000000 22.620001 15.180000 1.330000
351 0 2 0.000000 23.290001 15.180000 -0.030000
352 0 1 0.000000 20.039999 16.959999 1.430000
353 0 2 0.000000 20.200001 17.630001 0.770000
354 0 2 0.000000 20.720001 17.110001 2.090000
355 0 1 0.000000 23.180000 18.400000 0.820000
356 0 2 0.000000 23.180000 17.460001 0.630000
357 0 2 0.000000 23.180000 18.820000 -0.030000
358 0 1 0.000000 20.139999 12.520000 4.980000
359 0 2 0.000000 19.980000 13.450001 4.860000
360 0 2 0.000000 19.459999 12.090000 4.460000
361 0 1 0.000000 4.680000 20.139999 4.280000
362 0 2 0.000000 4.010000 19.980000 3.620000
363 0 2 0.000000 4.530000 19.459999 4.940000
364 0 1 0.000000 2.940000 20.039999 2.120000
365 0 2 0.000000 3.360000 20.720001 1.600000
366 0 2 0.000000 2.000000 20.200001 2.000000
367 0 1 0.000000 5.950000 23.180000 3.580000
368 0 2 0.000000 6.410000 22.430000 3.930000
369 0 2 0.000000 6.420000 23.940001 3.930000
370 0 1 0.000000 3.250000 23.230000 3.580000
371 0 2 0.000000 4.180000 23.070000 3.700000
372 0 2 0.000000 2.820000 22.550001 4.100000
373 0 1 0.000000 1.570000 21.400002 4.930000
374 0 2 0.000000 1.650000 21.910000 5.730000
375 0 2 0.000000 0.980000 21.910000 4.380000
376 0 1 0.000000 0.240000 20.120001 2.070000
377 0 2 0.000000 -0.270000 19.529999 1.520000
378 0 2 0.000000 -0.270000 20.200001 2.880000
379 0 1 0.000000 4.590000 21.789999 0.730000
380 0 2 0.000000 4.750000 22.730000 0.850000
381 0 2 0.000000 5.270000 21.359999 1.250000
382 0 1 0.000000 1.500000 23.230000 1.430000
383 0 2 0.000000 2.170000 23.080002 2.090000
384 0 2 0.000000 1.650000 22.550001 0.770000
385 0 1 0.000000 4.670000 24.489998 0.780000
386 0 2 0.000000 4.740000 25.000000 -0.030000
387 0 2 0.000000 4.080000 25.000000 1.330000
388 0 1 0.000000 1.500000 18.700001 4.980000
389 0 2 0.000000 2.180000 18.270000 4.460000
390 0 2 0.000000 1.660000 19.630001 4.860000
391 0 1 0.000000 10.770000 20.039999 4.280000
392 0 2 0.000000 10.930000 20.720001 4.940000
393 0 2 0.000000 11.450000 20.200001 3.620000
394 0 1 0.000000 9.120000 20.090000 2.030000
395 0 2 0.000000 9.540000 20.090000 2.890000
396 0 2 0.000000 8.180000 20.090000 2.230000
397 0 1 0.000000 12.130001 23.180000 3.580000
398 0 2 0.000000 12.600000 22.430000 3.930000
399 0 2 0.000000 12.600000 23.940001 3.930000
400 0 1 0.000000 9.430000 23.180000 3.680000
401 0 2 0.000000 9.000000 23.180000 2.820000
402 0 2 0.000000 10.360001 23.180000 3.480000
403 0 1 0.000000 7.680000 21.480000 4.980000
404 0 2 0.000000 7.840000 20.550001 4.860000
405 0 2 0.000000 8.360001 21.910000 4.460000
406 0 1 0.000000 6.420000 20.120001 2.070000
407 0 2 0.000000 5.910000 19.529999 1.520000
408 0 2 0.000000 5.910000 20.200001 2.880000
409 0 1 0.000000 10.850000 21.879999 0.780000
410 0 2 0.000000 10.260000 21.359999 1.330000
411 0 2 0.000000 10.930000 21.370001 -0.030000
412 0 1 0.000000 7.770000 23.230000 1.430000
413 0 2 0.000000 7.100000 23.080002 2.090000
414 0 2 0.000000 7.620000 22.550001 0.770000
415 0 1 0.000000 10.870000 24.580000 0.730000
416 0 2 0.000000 10.190001 25.000000 1.250000
417 0 2 0.000000 10.710000 23.640001 0.850000
418 0 1 0.000000 7.730000 18.780001 4.980000
419 0 2 0.000000 6.970000 18.309999 4.620000
420 0 2 0.000000 8.480000 18.309999 4.630000
421 0 1 0.000000 16.950001 20.139999 4.280000
422 0 2 0.000000 17.630001 19.980000 3.620000
423 0 2 0.000000 17.110001 19.459999 4.940000
424 0 1 0.000000 15.210000 20.120001 2.070000
425 0 2 0.000000 15.730000 19.529999 1.520000
426 0 2 0.000000 15.720000 20.200001 2.880000
427 0 1 0.000000 18.309999 23.180000 3.580000
428 0 2 0.000000 18.780001 22.430000 3.930000
429 0 2 0.000000 18.780001 23.940001 3.930000
430 0 1 0.000000 15.610000 23.180000 3.680000
431 0 2 0.000000 16.549999 23.180000 3.480000
432 0 2 0.000000 15.180000 23.180000 2.820000
433 0 1 0.000000 13.860001 21.480000 4.980000
434 0 2 0.000000 14.020000 20.550001 4.860000
435 0 2 0.000000 14.540000 21.910000 4.460000
436 0 1 0.000000 12.520000 20.039999 2.120000
437 0 2 0.000000 13.450001 20.200001 2.000000
438 0 2 0.000000 12.090000 20.720001 1.600000
439 0 1 0.000000 17.050001 21.789999 0.730000
440 0 2 0.000000 16.889999 22.730000 0.850000
441 0 2 0.000000 16.369999 21.359999 1.250000
442 0 1 0.000000 13.950000 23.230000 1.430000
443 0 2 0.000000 13.280000 23.080002 2.090000
444 0 2 0.000000 13.800000 22.550001 0.770000
445 0 1 0.000000 17.000000 24.500000 0.720000
446 0 2 0.000000 16.240000 24.960001 1.080000
447 0 2 0.000000 17.760000 24.960001 1.080000
448 0 1 0.000000 13.940001 18.780001 4.930000
449 0 2 0.000000 14.010000 18.270000 5.730000
450 0 2 0.000000 13.350000 18.270000 4.380000
451 0 1 0.000000 23.230000 20.139999 4.280000
452 0 2 0.000000 22.550001 19.980000 3.620000
453 0 2 0.000000 23.070000 19.459999 4.940000
454 0 1 0.000000 21.480000 20.139999 2.120000
455 0 2 0.000000 21.910000 19.459999 1.600000
456 0 2 0.000000 20.539999 19.980000 2.000000
457 0 1 0.000000 24.489998 23.160000 3.630000
458 0 2 0.000000 25.000000 23.750000 4.180000
459 0 2 0.000000 25.000000 23.080002 2.820000
460 0 1 0.000000 21.789999 23.139999 3.580000
461 0 2 0.000000 21.359999 23.820000 4.100000
462 0 2 0.000000 22.730000 23.299999 3.700000
463 0 1 0.000000 20.039999 21.480000 4.980000
464 0 2 0.000000 20.200001 20.550001 4.860000
465 0 2 0.000000 20.720001 21.910000 4.460000
466 0 1 0.000000 18.780001 20.090000 2.130000
467 0 2 0.000000 18.309999 20.850000 1.770000
468 0 2 0.000000 18.309999 19.330000 1.770000
469 0 1 0.000000 23.180000 21.870001 0.720000
470 0 2 0.000000 22.420002 21.410000 1.080000
471 0 2 0.000000 23.940001 21.410000 1.080000
472 0 1 0.000000 20.090000 23.180000 1.360000
473 0 2 0.000000 20.850000 23.180000 1.950000
474 0 2 0.000000 19.330000 23.180000 1.950000
475 0 1 0.000000 23.139999 24.580000 0.730000
476 0 2 0.000000 23.290001 23.640001 0.850000
477 0 2 0.000000 23.810001 25.000000 1.250000
478 0 1 0.000000 20.120001 18.780001 4.930000
479 0 2 0.000000 19.529999 18.270000 4.380000
480 0 2 0.000000 20.200001 18.270000 5.730000
481 0 1 0.000000 4.590000 1.500000 9.980000
482 0 2 0.000000 5.270000 1.650000 9.320000
483 0 2 0.000000 4.750000 2.180000 10.640000
484 0 1 0.000000 2.850000 1.570000 7.770000
485 0 2 0.000000 3.360000 1.650000 8.580000
486 0 2 0.000000 3.370000 0.990000 7.220000
487 0 1 0.000000 6.030000 4.690000 9.280000
488 0 2 0.000000 6.460000 4.010000 9.800000
489 0 2 0.000000 5.090000 4.530000 9.400000
490 0 1 0.000000 3.330000 4.670000 9.330000
491 0 2 0.000000 2.820000 4.750000 8.520000
492 0 2 0.000000 2.820000 4.080000 9.880000
493 0 1 0.000000 1.550000 2.940000 10.580000
494 0 2 0.000000 1.550000 2.000000 10.780000
495 0 2 0.000000 1.550000 3.370000 11.440001
496 0 1 0.000000 0.150000 1.590000 7.820000
497 0 2 0.000000 -0.270000 0.910000 7.300000
498 0 2 0.000000 1.090000 1.440000 7.700000
499 0 1 0.000000 4.680000 3.250000 6.430000
500 0 2 0.000000 4.000000 2.820000 6.950000
501 0 2 0.000000 4.530000 4.180000 6.550000
502 0 1 0.000000 1.590000 4.690000 7.120000
503 0 2 0.000000 0.920000 4.530000 7.790000
504 0 2 0.000000 1.440000 4.010000 6.460000
505 0 1 0.000000 4.670000 5.950000 6.480000
506 0 2 0.000000 4.080000 6.460000 7.030000
507 0 2 0.000000 4.740000 6.460000 5.670000
508 0 1 0.000000 1.520000 0.240000 10.629999
509 0 2 0.000000 1.440000 -0.270000 11.430000
510 0 2 0.000000 2.110000 -0.270000 10.070000
511 0 1 0.000000 10.820000 1.550000 10.039999
512 0 2 0.000000 10.060000 1.550000 9.460000
513 0 2 0.000000 11.580000 1.550000 9.460000
514 0 1 0.000000 9.120000 1.590000 7.820000
515 0 2 0.000000 8.180000 1.440000 7.700000
516 0 2 0.000000 9.550000 0.910000 7.300000
517 0 1 0.000000 12.209999 4.690000 9.280000
518 0 2 0.000000 12.640000 4.010000 9.800000
519 0 2 0.000000 11.270000 4.530000 9.400000
520 0 1 0.000000 9.510000 4.610000 9.330000
521 0 2 0.000000 9.000000 5.200000 9.880000
522 0 2 0.000000 9.000000 4.530000 8.520000
523 0 1 0.000000 7.680000 2.940000 10.679999
524 0 2 0.000000 8.360001 3.370000 10.160000
525 0 2 0.000000 7.840000 2.000000 10.559999
526 0 1 0.000000 6.420000 1.550000 7.830000
527 0 2 0.000000 5.950000 0.790000 7.470000
528 0 2 0.000000 5.950000 2.300000 7.470000
529 0 1 0.000000 10.870000 3.250000 6.430000
530 0 2 0.000000 10.190001 2.820000 6.950000
531 0 2 0.000000 10.710000 4.180000 6.550000
532 0 1 0.000000 7.770000 4.600000 7.120000
533 0 2 0.000000 7.620000 5.270000 6.460000
534 0 2 0.000000 7.100000 4.750000 7.790000
535 0 1 0.000000 10.820000 5.950000 6.420000
536 0 2 0.000000 11.580000 6.420000 6.780000
537 0 2 0.000000 10.060000 6.420000 6.780000
538 0 1 0.000000 7.700000 0.240000 10.629999
539 0 2 0.000000 8.290000 -0.270000 10.070000
540 0 2 0.000000 7.620000 -0.270000 11.430000
541 0 1 0.000000 17.000000 1.550000 10.039999
542 0 2 0.000000 16.240000 1.550000 9.460000
543 0 2 0.000000 17.760000 1.550000 9.460000
544 0 1 0.000000 15.219999 1.550000 7.830000
545 0 2 0.000000 15.690001 0.790000 7.470000
546 0 2 0.000000 15.679999 2.300000 7.470000
547 0 1 0.000000 18.309999 4.610000 9.330000
548 0 2 0.000000 18.820000 4.540000 8.520000
549 0 2 0.000000 18.820000 5.200000 9.880000
550 0 1 0.000000 15.610000 4.640000 9.370000
551 0 2 0.000000 16.549999 4.640000 9.180000
552 0 2 0.000000 15.180000 4.640000 8.520000
553 0 1 0.000000 13.860001 2.940000 10.679999
554 0 2 0.000000 14.540000 3.370000 10.160000
555 0 2 0.000000 14.020000 2.000000 10.559999
556 0 1 0.000000 12.520000 1.500000 7.820000
557 0 2 0.000000 13.450001 1.660000 7.700000
558 0 2 0.000000 12.090000 2.180000 7.300000
559 0 1 0.000000 16.950001 3.250000 6.430000
560 0 2 0.000000 17.110001 4.180000 6.550000
561 0 2 0.000000 17.630001 2.820000 6.950000
562 0 1 0.000000 13.950000 4.690000 7.120000
563 0 2 0.000000 13.280000 4.530000 7.790000
564 0 2 0.000000 13.800000 4.010000 6.460000
565 0 1 0.000000 17.000000 5.950000 6.420000
566 0 2 0.000000 17.760000 6.420000 6.780000
567 0 2 0.000000 16.240000 6.420000 6.780000
568 0 1 0.000000 13.910000 0.230000 10.679999
569 0 2 0.000000 14.670000 -0.230000 10.320000
570 0 2 0.000000 13.150001 -0.230000 10.320000
571 0 1 0.000000 23.139999 1.500000 9.980000
572 0 2 0.000000 23.810001 1.650000 9.320000
573 0 2 0.000000 23.290001 2.180000 10.640000
574 0 1 0.000000 21.400002 1.520000 7.770000
575 0 2 0.000000 21.910000 1.440000 8.580000
576 0 2 0.000000 21.910000 2.110000 7.220000
577 0 1 0.000000 24.489998 4.640000 9.280000
578 0 2 0.000000 24.960001 3.880000 9.630000
579 0 2 0.000000 24.960001 5.400000 9.630000
580 0 1 0.000000 21.789999 4.690000 9.280000
581 0 2 0.000000 22.730000 4.530000 9.400000
582 0 2 0.000000 21.359999 4.010000 9.800000
583 0 1 0.000000 20.139999 2.940000 10.679999
584 0 2 0.000000 19.459999 3.370000 10.150000
585 0 2 0.000000 19.980000 2.000000 10.559999
586 0 1 0.000000 18.700001 1.590000 7.820000
587 0 2 0.000000 18.270000 0.910000 7.300000
588 0 2 0.000000 19.630001 1.440000 7.700000
589 0 1 0.000000 23.139999 3.250000 6.430000
590 0 2 0.000000 23.290001 4.180000 6.550000
591 0 2 0.000000 23.810001 2.820000 6.950000
592 0 1 0.000000 20.039999 4.690000 7.120000
593 0 2 0.000000 20.200001 4.010000 6.460000
594 0 2 0.000000 20.720001 4.530000 7.790000
595 0 1 0.000000 23.210001 5.950000 6.480000
596 0 2 0.000000 22.620001 6.460000 7.030000
597 0 2 0.000000 23.290001 6.460000 5.670000
598 0 1 0.000000 20.120001 0.240000 10.629999
599 0 2 0.000000 19.529999 -0.270000 10.070000
600 0 2 0.000000 20.200001 -0.270000 11.430000
601 0 1 0.000000 4.680000 7.770000 9.980000
602 0 2 0.000000 4.530000 7.100000 10.640000
603 0 2 0.000000 4.010000 7.620000 9.320000
604 0 1 0.000000 2.940000 7.680000 7.820000
605 0 2 0.000000 3.360000 8.360001 7.300000
606 0 2 0.000000 2.000000 7.840000 7.700000
607 0 1 0.000000 5.950000 10.820000 9.280000
608 0 2 0.000000 6.420000 11.580000 9.630000
609 0 2 0.000000 6.410000 10.060000 9.630000
610 0 1 0.000000 3.250000 10.780000 9.280000
611 0 2 0.000000 4.180000 10.930000 9.400000
612 0 2 0.000000 2.820000 11.450000 9.800000
613 0 1 0.000000 1.550000 9.040000 10.679999
614 0 2 0.000000 2.300000 9.510000 10.320000
615 0 2 0.000000 0.790000 9.510000 10.320000
616 0 1 0.000000 0.240000 7.760000 7.770000
617 0 2 0.000000 -0.270000 7.830000 8.580000
618 0 2 0.000000 -0.270000 7.170000 7.220000
619 0 1 0.000000 4.610000 9.510000 6.480000
620 0 2 0.000000 5.200000 9.000000 7.030000
621 0 2 0.000000 4.530000 9.000000 5.670000
622 0 1 0.000000 1.500000 10.780000 7.120000
623 0 2 0.000000 2.170000 10.930000 7.790000
624 0 2 0.000000 1.650000 11.450000 6.460000
625 0 1 0.000000 4.590000 12.220000 6.430000
626 0 2 0.000000 4.750000 11.280001 6.550000
627 0 2 0.000000 5.270000 12.640000 6.950000
628 0 1 0.000000 1.500000 6.340000 10.679999
629 0 2 0.000000 2.180000 5.910000 10.150000
630 0 2 0.000000 1.660000 7.270000 10.559999
631 0 1 0.000000 10.770000 7.770000 9.980000
632 0 2 0.000000 11.450000 7.620000 9.320000
633 0 2 0.000000 10.930000 7.100000 10.640000
634 0 1 0.000000 9.120000 7.730000 7.730000
635 0 2 0.000000 9.540000 7.730000 8.590000
636 0 2 0.000000 8.180000 7.730000 7.930000
637 0 1 0.000000 12.130001 10.850000 9.330000
638 0 2 0.000000 12.640000 10.260000 9.880000
639 0 2 0.000000 12.640000 10.930000 8.520000
640 0 1 0.000000 9.430000 10.870000 9.280000
641 0 2 0.000000 10.360001 10.710000 9.400000
642 0 2 0.000000 9.000000 10.190001 9.800000
643 0 1 0.000000 7.730000 9.120000 10.580000
644 0 2 0.000000 7.730000 9.550000 11.440001
645 0 2 0.000000 7.730000 8.180000 10.780000
646 0 1 0.000000 6.420000 7.760000 7.770000
647 0 2 0.000000 5.910000 7.830000 8.580000
648 0 2 0.000000 5.910000 7.170000 7.220000
649 0 1 0.000000 10.850000 9.510000 6.480000
650 0 2 0.000000 10.930000 9.000000 5.670000
651 0 2 0.000000 10.260000 9.000000 7.030000
652 0 1 0.000000 7.730000 10.820000 7.059999
653 0 2 0.000000 6.970000 10.820000 7.650000
654 0 2 0.000000 8.480000 10.820000 7.640000
655 0 1 0.000000 10.770000 12.220000 6.430000
656 0 2 0.000000 11.450000 12.640000 6.950000
657 0 2 0.000000 10.930000 11.280001 6.550000