LAMMPS data file via write_data, version 29 Sep 2021, timestep = 400000

1008 atoms
2 atom types

0.14324272855692932 18.25631227144353 xlo xhi
-0.25010887101561785 22.820497871015895 ylo yhi
0.12580974890349417 19.379906251098564 zlo zhi
-0.06147819643765235 -7.181774117713196 0.018800578466013778 xy xz yz

Masses

1 1.008
2 15.999

Atoms # full

1 0 1 0 6.492254153922223 1.113826675092703 4.676713740039016 0 0 0
2 0 2 0 6.65104823890636 1.723382314085191 5.43293413743896 0 0 0
3 0 2 0 5.528496730149808 0.993219329797488 4.787305850740658 0 0 0
4 0 1 0 3.7262398213359598 0.9030834762605061 5.150997330345057 0 0 0
5 0 2 0 3.1118280457392817 0.13928236217600062 5.216841993452657 0 0 0
6 0 2 0 3.3141895458931883 1.4797210730904595 4.531869574672875 0 0 0
7 0 1 0 -0.6424580996189331 6.166021766578745 4.7773532124654725 0 0 0
8 0 2 0 -0.6402275760178591 5.530413215142749 5.531754517396473 0 0 0
9 0 2 0 -0.4790559197985991 5.477981609815132 4.0705568015067985 0 0 0
10 0 1 0 2.1886422112979895 6.100540420491923 4.98856141220681 0 0 0
11 0 2 0 2.598157944490129 5.417893482230761 5.547383443710797 0 0 0
12 0 2 0 1.2358679714086018 6.164063508980731 5.226365893748784 0 0 0
13 0 1 0 4.604135330051696 4.759771797607135 9.501149110302446 0 0 0
14 0 2 0 3.6455262538190985 4.613291022750607 9.534013443822014 0 0 0
15 0 2 0 4.702717708511619 5.478806947369617 10.09382474572241 0 0 0
16 0 1 0 5.231757818516016 4.863862699504855 0.432853162747042 0 0 0
17 0 2 0 6.093829742996898 4.415974755870482 0.5633979250989019 0 0 0
18 0 2 0 4.6312450292635985 4.107673335197785 0.319562574893279 0 0 0
19 0 1 0 -6.065844641355975 2.5612002958277467 19.35154707180007 0 0 -1
20 0 2 0 -6.5125701127175155 1.8392303851482186 18.84617051791286 0 0 -1
21 0 2 0 1.253833457108762 2.0870624937185536 0.9565949913473684 0 0 0
22 0 1 0 -0.2789672437998214 2.4798140591073055 9.581892306903617 0 0 0
23 0 2 0 0.1085296604277266 1.8197155435547903 10.268500661196889 0 0 0
24 0 2 0 0.24957731225703306 3.280589578714187 9.702967322021172 0 0 0
25 0 1 0 4.746206627075647 6.185576022781612 7.199990122793309 0 0 0
26 0 2 0 5.040130017437143 5.903889826022745 6.309414645311663 0 0 0
27 0 2 0 4.948055687303718 5.469167159096775 7.851135223906658 0 0 0
28 0 1 0 5.88174337308374 6.716620114493704 2.7420397613729093 0 0 0
29 0 2 0 5.339171035870965 7.5043580532142755 2.759438685760545 0 0 0
30 0 2 0 5.6130176479432885 6.232203226278853 1.9066691367875448 0 0 0
31 0 1 0 1.1109881993421207 1.0849666777499998 2.616850808678122 0 0 0
32 0 2 0 1.001468424021609 1.3964128983585264 3.5443885489968086 0 0 0
33 0 2 0 0.43932141617146236 0.3479811328184852 2.5025609599245393 0 0 0
34 0 1 0 -0.21215336971672283 0.9510096875455347 7.341494217410291 0 0 0
35 0 2 0 -0.11775102607939347 1.5450156498853573 8.087398275497847 0 0 0
36 0 2 0 -1.1643569447372988 0.8096798609375245 7.409311962075753 0 0 0
37 0 1 0 6.487554727587025 2.6084491122819813 2.206161108559194 0 0 0
38 0 2 0 6.622768856771902 1.9998823942419004 1.3943377725619521 0 0 0
39 0 2 0 6.610436189996421 2.0219921567772845 2.9461518429588573 0 0 0
40 0 1 0 4.384046327836798 2.3222026621486798 7.489114178975829 0 0 0
41 0 2 0 3.9816497195305267 1.6499932369930097 6.898855438859306 0 0 0
42 0 2 0 3.998314124140582 2.0652013500933286 8.338509339030646 0 0 0
43 0 1 0 -0.49053404291758795 4.713386760734492 7.23631337970398 0 0 0
44 0 2 0 -0.6341810981311835 5.159282261234891 8.12099628370901 0 0 0
45 0 2 0 0.397071147768846 4.336396356293764 7.294183455892843 0 0 0
46 0 1 0 2.1595457214207183 4.924593735030923 2.3490939004474116 0 0 0
47 0 2 0 2.173246327819334 5.348187734014634 1.4743175005920663 0 0 0
48 0 2 0 2.4066361438726442 5.563593201102794 2.9899053903006956 0 0 0
49 0 1 0 6.748430704344518 3.1609992697323954 6.442252504459371 0 0 0
50 0 2 0 6.0938797125517885 2.9043749520447815 7.15301709348871 0 0 0
51 0 2 0 6.171235306393555 3.6283815891754045 5.819342392774622 0 0 0
52 0 1 0 3.8492778042086226 2.96194027094776 3.2612410717975715 0 0 0
53 0 2 0 4.583106279078568 2.6514574292492337 2.7121065496116255 0 0 0
54 0 2 0 3.4074877096350953 3.729926663229973 2.8310768989156543 0 0 0
55 0 1 0 -0.5093241439732007 4.136119558827902 3.1943329039737716 0 0 0
57 0 2 0 0.31174308566279896 4.162139913893811 2.625548588211174 0 0 0
58 0 1 0 2.252191879623954 3.9997692514928502 6.854592972249738 0 0 0
59 0 2 0 1.940624539967898 3.4494886996869374 6.147720171693029 0 0 0
60 0 2 0 3.007400618917087 3.5889007747518313 7.157136718976261 0 0 0
61 0 1 0 8.5102717099629 7.029325652894055 1.5717404259190146 0 0 0
62 0 2 0 8.34929653154575 7.7084159659582285 0.9239480390967296 0 0 0
63 0 2 0 7.753017521382485 7.153753648473714 2.207786517932733 0 0 0
64 0 1 0 2.1035184869054513 6.7086661163430925 8.19807157916578 0 0 0
65 0 2 0 2.6439688716415644 7.414565445716556 8.672744705181993 0 0 0
66 0 2 0 2.7367914047695705 6.213738064465221 7.616525529262621 0 0 0
67 0 1 0 -2.869795701560046 0.4196911109879022 8.268248024958332 0 0 0
69 0 2 0 15.033905256694878 1.2529782819848212 8.720659890888903 -1 0 0
70 0 1 0 3.5515984440846182 0.25772898189377286 1.550949012593615 0 0 0
71 0 2 0 2.8248729878928156 0.5802524888318445 2.1634205374506417 0 0 0
72 0 2 0 4.184083959931164 -0.21274076471718312 2.1167715488237224 0 0 0
73 0 1 0 5.10954753747974 4.786994022760139 4.740787979629312 0 0 0
74 0 2 0 4.659599740847199 4.086566367913306 4.229486274487767 0 0 0
75 0 2 0 5.261070260374442 5.526904310940439 4.097793105596814 0 0 0
76 0 1 0 0.8156017204020247 2.0522589564074183 5.221655052452211 0 0 0
77 0 2 0 0.43123222139332906 1.6684784353494042 6.0173320113249975 0 0 0
78 0 2 0 0.2663814971205094 2.7906421260430765 4.857763204864919 0 0 0
79 0 1 0 6.881271034639727 1.0142562890678612 0.18270292631353213 0 0 0
80 0 2 0 -0.9873382389722671 0.38134495300718835 19.122034315402587 0 0 -1
81 0 2 0 7.462865149502709 0.4099002646233115 0.6976751146203546 0 0 0
82 0 1 0 -4.837144242598246 6.1254378530929054 19.123459523559454 0 0 -1
83 0 2 0 -5.532548334705863 6.614627299456019 18.612287291347847 0 0 -1
84 0 2 0 -4.449848171788693 5.474057844097535 18.491553112653058 0 0 -1
85 0 1 0 15.563985216084333 1.1002130346116696 4.774253511876526 0 0 0
86 0 2 0 15.685312167526412 1.4549679432500726 3.8661675449259874 0 0 0
87 0 2 0 14.657494131648223 0.8721636372586942 4.831838966327159 0 0 0
88 0 1 0 12.876086378375417 0.8382907967893009 5.344170675475923 0 0 0
89 0 2 0 12.23576021367515 0.10911067012852395 5.184867145887853 0 0 0
90 0 2 0 12.673068869585817 1.2905783461527716 6.193402378208832 0 0 0
91 0 1 0 8.408740037232544 6.683599665778332 4.944864532551233 0 0 0
92 0 2 0 7.610693277883053 7.218935016254596 4.8321380884812495 0 0 0
93 0 2 0 8.242348396332218 5.806914333815099 4.5615682849459445 0 0 0
94 0 1 0 11.279002916503616 6.439831678214053 4.673014951059106 0 0 0
95 0 2 0 10.378541434487513 6.751980997683802 4.776831817118623 0 0 0
96 0 2 0 11.76824479870073 7.264679097846912 4.717608584606781 0 0 0
98 0 2 0 13.226494180826569 5.398821401482465 8.611416557550818 0 0 0
100 0 1 0 7.504859155427912 4.698792609364654 19.355128119429523 0 0 -1
101 0 2 0 8.396465920418882 4.387393933774454 19.253524270651567 0 0 -1
102 0 2 0 7.4492810333291555 5.489665494943779 18.805250925658093 0 0 -1
103 0 1 0 10.119469923462292 2.2876699960348716 0.46619919596261966 0 0 0
104 0 2 0 9.43587644802808 2.918987427864513 0.2230618814101002 0 0 0
105 0 2 0 10.974550597456018 2.741832364997517 0.26097552566800064 0 0 0
106 0 1 0 8.864800246716529 2.7294250007727148 9.747586798750456 0 0 0
107 0 2 0 9.137317650084606 2.628625287917163 8.802446895723438 0 0 0
108 0 2 0 8.992434551101955 1.8616000948041929 10.160998681297215 0 0 0
109 0 1 0 13.23722185321956 6.307881769375007 7.251646634289378 0 0 0
110 0 2 0 13.485385465200507 6.0037544055768555 6.393493363055088 0 0 0
111 0 2 0 12.264882305664196 6.618248402121371 7.2234353712987165 0 0 0
112 0 1 0 14.862311605644885 6.235240729073448 2.424239975381802 0 0 0
113 0 2 0 14.882826057184941 5.806511228441619 3.2836656414266785 0 0 0
114 0 2 0 14.806093671283293 5.530973667095871 1.7745672775544308 0 0 0
115 0 1 0 9.865967612527406 0.5214253801832672 2.614965741264834 0 0 0
116 0 2 0 10.783440263765971 0.22481098975995675 2.6419599907786804 0 0 0
117 0 2 0 9.94384326874156 1.242309824352371 1.9877930383902576 0 0 0
118 0 1 0 9.139122764627647 1.2686197515092896 7.504710888538816 0 0 0
119 0 2 0 9.031622085031156 1.254212756516923 6.531001197712383 0 0 0
120 0 2 0 9.75078585805191 0.5458509157889491 7.792686200345698 0 0 0
121 0 1 0 15.351505504191284 2.4927031331638627 2.438963001907265 0 0 0
122 0 2 0 15.625951334192667 2.1402905771028964 1.573240913257178 0 0 0
123 0 2 0 14.399413561408426 2.659199000387419 2.427564864357079 0 0 0
124 0 1 0 12.58445049565856 2.534811575906193 7.510520526319873 0 0 0
125 0 2 0 12.0118606788977 3.2372530595251985 7.14799988852416 0 0 0
126 0 2 0 13.442348400958238 2.953126826729279 7.389061146492964 0 0 0
127 0 1 0 8.563422460427645 5.046910959829278 7.197131450045403 0 0 0
128 0 2 0 8.374432951965781 5.7084529081456665 6.506413945660965 0 0 0
129 0 2 0 7.939791583938852 4.3072581714007105 6.954746661707856 0 0 0
130 0 1 0 10.93963743627282 4.561181208999875 2.608046235376777 0 0 0
131 0 2 0 9.962590524002998 4.624028748742834 2.579939148429798 0 0 0
132 0 2 0 11.162336284416698 5.114535208986066 3.382742087929834 0 0 0
135 0 2 0 -1.8608237962698149 3.576579976935204 6.903365297196772 1 0 0
136 0 1 0 12.671284232521023 2.5719403872765905 3.2246417227736677 0 0 0
137 0 2 0 11.878149675462717 3.12169759068447 3.0619710969269094 0 0 0
138 0 2 0 12.653960037483571 2.091657977466921 4.075272647391305 0 0 0
139 0 1 0 8.3626626754669 4.294035068126826 3.7847864665915965 0 0 0
140 0 2 0 7.791375065451599 4.001005139831894 3.0673158574593535 0 0 0
141 0 2 0 8.738271112038671 3.5811709372590403 4.356957931273256 0 0 0
142 0 1 0 10.940346055946076 4.011509428082035 6.129929105176062 0 0 0
143 0 2 0 11.22779875577339 4.871747684496671 5.869879499403108 0 0 0
144 0 2 0 10.121185020100807 4.19122364409526 6.622069041400253 0 0 0
146 0 2 0 16.651290223463374 6.598632488400784 2.0141711545823706 0 0 0
147 0 2 0 17.168617855839965 7.778142690789807 1.2402062326686785 0 0 0
148 0 1 0 10.902897043257292 6.977176260589975 8.062305443936403 0 0 0
149 0 2 0 10.602366461408367 6.270036749399705 8.655977521446637 0 0 0
150 0 2 0 10.147519444143931 7.517479966029528 7.811034811100045 0 0 0
151 0 1 0 7.042482373668975 0.1269512284860967 8.599987418491352 0 0 0
152 0 2 0 7.75686803214815 0.5151593385430264 8.040060735780589 0 0 0
153 0 2 0 6.724701968242892 0.8795499464250264 9.136199918079058 0 0 0
154 0 1 0 12.85234907239641 0.15158917999028126 1.8480562421693825 0 0 0
155 0 2 0 12.804496565043012 1.1286827860972417 1.8428104971804156 0 0 0
156 0 2 0 12.44443744156853 -0.24172431401268568 1.0251486676250836 0 0 0
157 0 1 0 14.272375909725993 4.94871438066417 4.810953420029343 0 0 0
158 0 2 0 13.613802335211828 4.409716296264407 4.453793699934279 0 0 0
159 0 2 0 14.842361907191647 4.352814317935834 5.367464085551938 0 0 0
160 0 1 0 9.385315682583508 1.8846352024320907 4.84222095934457 0 0 0
161 0 2 0 10.251380892918583 2.410913127898518 4.942726120306702 0 0 0
162 0 2 0 9.43581968975588 1.3834451065609683 4.004575730959647 0 0 0
163 0 1 0 16.157014900280135 0.8708283191744686 0.2526266159002618 0 0 0
164 0 2 0 8.987183237014943 1.404844838855983 18.62969278331161 0 0 -1
165 0 2 0 8.117348925360945 0.433528602069444 19.37879556020308 0 0 -1
166 0 1 0 11.822675533867686 6.225170650387804 0.23909952886212532 0 0 0
167 0 2 0 11.467631041821727 5.671275052570223 0.9289351907222237 0 0 0
168 0 2 0 3.957227403877507 6.804528670363934 19.17265824306294 0 0 -1
169 0 1 0 6.724533146919422 8.913257109655015 4.486258096500043 0 0 0
170 0 2 0 5.850487538536518 8.485199587450332 4.719870619406786 0 0 0
171 0 2 0 6.6394620260568535 9.658546062084516 5.092521512945387 0 0 0
172 0 1 0 4.178398889715362 8.445984600014627 5.405770940801684 0 0 0
173 0 2 0 3.717441929450354 7.609029342201242 5.570083555461064 0 0 0
174 0 2 0 3.591070085072783 8.991873139409998 4.891271583562989 0 0 0
175 0 1 0 -0.38292934473838347 14.248206051154392 4.953002093764582 0 0 0
176 0 2 0 -1.0353639691595444 14.9992592197418 4.8306816409496 0 0 0
177 0 2 0 0.516545937699507 14.44375467975755 4.6191270831810955 0 0 0
178 0 1 0 2.3974480145139117 14.101417442589531 4.809721419276374 0 0 0
179 0 2 0 2.4824395526547978 13.269069478927408 5.275605589561369 0 0 0
180 0 2 0 2.4845084017743786 13.82419052268726 3.872980303986797 0 0 0
181 0 1 0 4.545625795370574 12.257418986029398 9.826597274540061 0 0 0
182 0 2 0 4.8587305356990775 13.121588598847849 10.12798248590406 0 0 0
183 0 2 0 5.308709428305425 11.723131150562951 9.859563197283238 0 0 0
184 0 1 0 5.384526491608246 12.413584397243346 0.35763438232794276 0 0 0
185 0 2 0 -1.7708127601752137 13.06770641721928 18.82136627879769 0 0 -1
186 0 2 0 6.221885902650164 11.942182840742264 0.25175524925127396 0 0 0
187 0 1 0 0.8179032560828494 10.451439834814558 0.5367041347309911 0 0 0
188 0 2 0 0.6150126523389192 10.146224025290643 1.4330904337416863 0 0 0
189 0 2 0 1.7908021988575358 10.48400729002226 0.47093478814655176 0 0 0
190 0 1 0 0.240917562509519 10.123429500950857 9.175647588920487 0 0 0
191 0 2 0 0.5401469706344604 9.584312052592473 8.40415689375554 0 0 0
192 0 2 0 0.7537307475545512 10.956437809809513 9.206384388404727 0 0 0
193 0 1 0 4.462118408271251 13.697234744899653 7.329043951919721 0 0 0
194 0 2 0 4.5583366720364875 13.28638182795765 6.443795709839733 0 0 0
195 0 2 0 4.448010452301934 12.975537884956863 7.988233489771223 0 0 0
196 0 1 0 5.8049341916294 14.033150006274692 2.598627150066087 0 0 0
197 0 2 0 5.603391912731029 13.45716012432075 1.833113005701238 0 0 0
198 0 2 0 5.445265716399581 13.55580022360926 3.4059815423749247 0 0 0
199 0 1 0 1.4215963421517304 8.414293017002068 2.6174093823316107 0 0 0
200 0 2 0 0.9315174144992923 7.698650759880487 2.2072582412701154 0 0 0
201 0 2 0 2.3762920641346246 8.231281223110658 2.494438285545242 0 0 0
202 0 1 0 0.03339913359569824 8.2417809136464 7.166871843126712 0 0 0
203 0 2 0 -0.8339007523376134 7.965827899813672 7.445802349837048 0 0 0
204 0 2 0 0.642714438665827 7.539224633361882 7.487670447357308 0 0 0
205 0 1 0 6.420184764933746 10.388828336879119 2.092106498477542 0 0 0
206 0 2 0 6.5077306672795565 9.679610504791004 2.7156009182471057 0 0 0
207 0 2 0 7.048554948374159 10.998237244958718 2.4843462420770153 0 0 0
208 0 1 0 4.1287294710620515 10.259426758623215 7.544789046556898 0 0 0
209 0 2 0 3.4053513877089947 10.737968695631853 7.1299826945707805 0 0 0
210 0 2 0 4.124860380040305 9.467406600683146 7.014457477777642 0 0 0
211 0 1 0 -0.36793754058952066 12.48807885486485 7.010247230518583 0 0 0
212 0 2 0 -0.6030610783073289 12.789558375178594 7.92157352887954 0 0 0
213 0 2 0 -0.408279143078528 13.205691241859768 6.327951921070697 0 0 0
214 0 1 0 2.0111746385331597 12.864591031663688 2.3123046444772797 0 0 0
215 0 2 0 2.0910637043602485 13.536354623416306 1.5988423211422897 0 0 0
216 0 2 0 1.1085867411412935 12.698768966266078 2.386201886745875 0 0 0
217 0 1 0 6.813983448487809 10.949617915123497 6.286585085983421 0 0 0
218 0 2 0 6.142552470894795 10.87701976544255 6.9423555046835705 0 0 0
219 0 2 0 7.466346963808935 11.534641437494347 6.703150244009107 0 0 0
220 0 1 0 3.5183753788994716 10.64505317163949 3.5711723725295155 0 0 0
221 0 2 0 4.270340417939696 10.376770611345913 3.0340543587400473 0 0 0
222 0 2 0 2.931142323415198 11.197864779825657 2.99843966354402 0 0 0
223 0 1 0 -0.40060767124952423 11.656505596243099 3.276445303340963 0 0 0
224 0 2 0 0.09544455498453908 11.088371324260361 3.945828967754901 0 0 0
225 0 2 0 -0.6647390800874331 12.408386113629343 3.8432262943791176 0 0 0
226 0 1 0 2.072303589123036 11.487740349686456 6.28874996382095 0 0 0
227 0 2 0 1.3986442488650552 11.8477997146702 6.923524589785776 0 0 0
228 0 2 0 1.6089033032570388 10.807080929712937 5.68650983113781 0 0 0
229 0 1 0 8.326883344213547 14.794112007384397 1.6606683695454936 0 0 0
230 0 2 0 7.510002849444972 14.529988361665458 2.1397741054894355 0 0 0
231 0 2 0 8.86939894065075 15.075074639979974 2.3984266003182872 0 0 0
232 0 1 0 1.9514021274796058 14.54564141447711 8.102235533101057 0 0 0
233 0 2 0 2.621483857977782 14.223449227114644 7.535037255432544 0 0 0
234 0 2 0 1.2188277588469005 14.974378425543982 7.6078308657374185 0 0 0
235 0 1 0 -2.570539447532533 7.769583223435639 7.963621405223467 0 0 0
237 0 2 0 -2.824973766759409 8.560897736980968 8.481639165907298 0 0 0
238 0 1 0 3.9370634247619276 8.200872792708706 1.669343183885881 0 0 0
239 0 2 0 3.711898401406596 9.119591818326796 1.2516427742410108 0 0 0
240 0 2 0 3.5910349939592012 7.61110612173496 0.9887385495933971 0 0 0
241 0 1 0 4.907318306152845 12.584311521507205 4.931281616684508 0 0 0
242 0 2 0 5.714811614938117 12.19046500811717 5.2827404213885245 0 0 0
243 0 2 0 4.306260406340067 11.830939698490857 4.784528248459406 0 0 0
244 0 1 0 0.6060251741413605 9.784260236337921 4.887774384900517 0 0 0
245 0 2 0 0.8472633812978208 9.106481095982677 4.2189037650464885 0 0 0
246 0 2 0 0.30183893654199867 9.276938527599599 5.677444861359116 0 0 0
247 0 1 0 7.092475998377893 8.780247969963336 0.1557675119340859 0 0 0
248 0 2 0 6.649289963561496 9.25824708694213 0.891967021287386 0 0 0
249 0 2 0 -0.7896936967126624 8.31042505733678 18.903662531431344 0 0 -1
250 0 1 0 -4.603681026379409 14.268134591772592 19.343659318293078 0 0 -1
251 0 2 0 -5.235729976060304 14.873454616775422 18.89908283432041 0 0 -1
252 0 2 0 3.168867950507898 14.912267110687655 0.4932349851705485 0 0 0
253 0 1 0 15.71806720006782 8.28728605118778 4.794159304911865 0 0 0
255 0 2 0 15.915576137620146 8.73824128926562 3.954064773657991 0 0 0
256 0 1 0 12.893352230396632 8.545941800331013 4.893009612028895 0 0 0
257 0 2 0 13.843598293594479 8.38961410834318 4.730464450955293 0 0 0
258 0 2 0 12.7831953623965 8.991911783460472 5.696763737099974 0 0 0
259 0 1 0 8.447670213611946 13.997457157538847 5.186862902993474 0 0 0
260 0 2 0 9.293033521711324 14.43899913794506 5.149910296679157 0 0 0
261 0 2 0 8.56879748339211 13.171158067040906 4.665389824276753 0 0 0
262 0 1 0 11.338436821287981 14.034104516052063 4.573506641332261 0 0 0
263 0 2 0 11.268700076013568 13.788401437339768 3.6644727416475935 0 0 0
264 0 2 0 11.881883658235374 14.796138853803459 4.522898198247718 0 0 0
265 0 1 0 13.890213071433257 12.429112620330129 9.319106691916762 0 0 0
267 0 2 0 13.803301769631226 12.669275769613362 8.391394350737208 0 0 0
268 0 1 0 14.247668564659515 12.572975541623087 0.27845533598273775 0 0 0
269 0 2 0 14.075948457884168 12.885674473945663 1.166333904632547 0 0 0
270 0 2 0 6.502299200498474 11.830447927563403 19.35451326754906 0 0 -1
271 0 1 0 9.895836430967902 10.358560133024207 0.1537896953325879 0 0 0
272 0 2 0 3.7187217159376296 10.39642995052981 19.306504410493254 0 0 -1
273 0 2 0 9.864123664658743 10.114329416470973 1.0726552935599964 0 0 0
274 0 1 0 9.347160854749823 10.18354421124534 9.553708579762144 0 0 0
275 0 2 0 9.910152276196646 10.99935051799113 9.554101002251569 0 0 0
276 0 2 0 9.133481051926982 10.05782728063382 8.582171934751523 0 0 0
277 0 1 0 13.657224018549394 13.968592721306118 7.092816545746683 0 0 0
278 0 2 0 14.2511939197861 14.570500801675523 7.52826129489554 0 0 0
279 0 2 0 12.741225291538647 14.34182767809434 7.177171022525239 0 0 0
280 0 1 0 14.82660716814288 14.360990442622365 2.550339327855281 0 0 0
281 0 2 0 14.906811632201446 13.907125152037972 3.43895578041648 0 0 0
282 0 2 0 15.792861476358722 14.627394904530096 2.3471008980004697 0 0 0
283 0 1 0 10.348055339318178 9.012713293079324 2.5147745702331155 0 0 0
284 0 2 0 9.70414022099007 8.275065626018662 2.321950458547567 0 0 0
285 0 2 0 11.291437793716355 8.597735308118446 2.4473217477652307 0 0 0
286 0 1 0 8.95256318042627 8.655255458555 7.300341362443083 0 0 0
287 0 2 0 8.027409847056193 8.390289819846299 7.2910970533763395 0 0 0
288 0 2 0 9.10400029982182 9.213010566255871 6.517831343037591 0 0 0
289 0 1 0 15.460238849227729 10.094866369512344 2.613712283142469 0 0 0
290 0 2 0 16.176806752288794 10.716098283919143 2.7538321394016134 0 0 0
291 0 2 0 14.559910182914411 10.47795997585902 2.8091644157415283 0 0 0
292 0 1 0 13.040035297322554 10.327944807262588 7.4684043413080525 0 0 0
293 0 2 0 14.007223765578932 10.450067151764905 7.345560622275267 0 0 0
294 0 2 0 12.93501202440608 9.823096762016078 8.297690615074368 0 0 0
295 0 1 0 8.744439114502143 12.516886902740081 7.335937436653159 0 0 0
296 0 2 0 8.523877118177582 13.199087995135802 6.696229305382194 0 0 0
297 0 2 0 9.68754938088523 12.227244253287534 7.148994919331118 0 0 0
298 0 1 0 11.02123314261434 12.486964587035889 2.2640636376081953 0 0 0
299 0 2 0 11.207105179960115 12.759370070505149 1.3658744961298694 0 0 0
300 0 2 0 11.665589992605721 11.780752849356903 2.452196048704206 0 0 0
303 0 2 0 -1.5733272499560838 11.034648196907982 6.644863198377722 1 0 0
304 0 1 0 13.00428663674522 10.843703317106986 3.1355771339793175 0 0 0
305 0 2 0 12.64215512999538 10.013755570550003 3.5623612139136696 0 0 0
306 0 2 0 13.209930449695749 11.513334465252488 3.879339822043035 0 0 0
307 0 1 0 8.451644157685752 11.751919433454058 3.3274565335066484 0 0 0
308 0 2 0 9.118854944166953 12.163607293371731 2.7726573053595716 0 0 0
309 0 2 0 8.878632263728502 11.110909584758682 3.9269462981869365 0 0 0
310 0 1 0 11.0474874200509 11.806862440098547 6.177051685523687 0 0 0
311 0 2 0 11.907058561235349 11.512005461380705 6.484190865329154 0 0 0
312 0 2 0 11.256304924424782 12.639980768533496 5.685537468092036 0 0 0
314 0 2 0 0.2730249170619714 14.886627207025773 2.1229457221137737 1 0 0
316 0 1 0 11.108345735253124 14.483754471357917 8.084383719533372 0 0 0
317 0 2 0 10.720500276020807 13.72590601523372 8.541236000442282 0 0 0
318 0 2 0 11.472582273526406 15.06600557540258 8.74866234224208 0 0 0
319 0 1 0 6.493237243088843 8.02901732770503 8.12451297457065 0 0 0
320 0 2 0 6.688211353626058 7.54839018684535 8.976741428357004 0 0 0
321 0 2 0 5.707615529915989 7.5433606514813025 7.826177446831456 0 0 0
322 0 1 0 12.838862755467188 8.089829326387026 1.6623949300482563 0 0 0
323 0 2 0 12.488812557742655 7.445944793450103 0.9823766301695108 0 0 0
324 0 2 0 13.52515257428724 7.532303661282444 2.083318838820428 0 0 0
325 0 1 0 14.453474283242207 12.259542496211196 4.89664835658007 0 0 0
326 0 2 0 15.144289053865931 11.652635183103383 5.320303991444207 0 0 0
327 0 2 0 14.166372860377916 12.875993267807807 5.606319430826678 0 0 0
328 0 1 0 9.567787430661758 10.014833603941696 5.034025058796721 0 0 0
329 0 2 0 9.831297620232977 9.486612831680599 4.226180536653946 0 0 0
330 0 2 0 10.330610243445438 10.496386982929948 5.3015270162854256 0 0 0
331 0 1 0 16.25519592493107 8.831388567197031 0.36006256627183086 0 0 0
332 0 2 0 15.787393206208932 9.431213134918451 0.9557044612081323 0 0 0
333 0 2 0 9.438287097362158 9.438115301817387 18.95489209038395 0 0 -1
334 0 1 0 4.510147269022565 13.87171542502907 18.863421068345794 0 0 -1
335 0 2 0 4.7436342113849355 13.372043907988441 18.059311192221898 0 0 -1
336 0 2 0 3.6205596006549614 14.150748141085137 18.582917807535672 0 0 -1
337 0 1 0 6.558278354947948 16.17028921329898 4.634159888109957 0 0 0
338 0 2 0 7.111645818126984 15.413880378748408 4.936970407378487 0 0 0
339 0 2 0 6.754713759634368 16.392939879527678 3.7186456452420886 0 0 0
340 0 1 0 3.8012682304720933 16.377945448719213 5.015107621786809 0 0 0
341 0 2 0 3.320535957516558 15.548663893230739 4.99321946749451 0 0 0
342 0 2 0 4.770732987356045 16.167963217378944 4.919146091600956 0 0 0
343 0 1 0 -1.1123145418386997 21.746227149711174 5.124204992219324 0 0 0
344 0 2 0 -0.852384737497524 21.515399463347652 6.027361027971826 0 0 0
345 0 2 0 -1.6790981728532106 22.535717533519747 5.052488284443598 0 0 0
346 0 1 0 1.8098446769889245 21.749604528684248 4.857938302890159 0 0 0
347 0 2 0 1.8356739252081493 20.82533348039956 5.252369882136426 0 0 0
348 0 2 0 0.8693817637736116 21.901470036476553 5.006533094990762 0 0 0
349 0 1 0 5.002937025634706 19.919456788421744 9.422617376749924 0 0 0
350 0 2 0 5.055657498309367 20.66486491555069 10.015677580813009 0 0 0
351 0 2 0 4.803720083028331 20.391220710309327 8.570966704003922 0 0 0
352 0 1 0 5.156426648344906 20.377496406607595 0.3472076957056984 0 0 0
353 0 2 0 4.403157262037924 19.781398188306998 0.2886053897402151 0 0 0
354 0 2 0 5.155689069796572 20.74399369866487 1.281379641002142 0 0 0
355 0 1 0 0.4823069727721231 17.850394157537803 0.6266255157104859 0 0 0
356 0 2 0 0.7486338435873641 17.58248352376753 1.536419127571152 0 0 0
357 0 2 0 0.7068646540638495 17.075333134754644 0.13963481207929032 0 0 0
358 0 1 0 0.32754741866725023 17.99057855040195 9.514362562394249 0 0 0
359 0 2 0 0.5644119149422626 17.213918151646254 10.091179873990772 0 0 0
360 0 2 0 0.9683403964053601 18.64343598911546 9.620600456441258 0 0 0
361 0 1 0 4.4867027621365505 22.03244673146893 7.363389628711945 0 0 0
362 0 2 0 5.098886447402401 22.68298906876341 7.6205368388244 0 0 0
363 0 2 0 3.597890760801062 22.334782897296225 7.6281579378859 0 0 0
364 0 1 0 5.31132489862166 21.635558864869367 2.8343455393009673 0 0 0
365 0 2 0 6.256274336789124 21.78000097448058 2.620069276792378 0 0 0
366 0 2 0 5.282591122229924 21.225834636880727 3.6992272855032504 0 0 0
367 0 1 0 1.42483501977777 16.28424624411269 2.846337251868085 0 0 0
368 0 2 0 2.3699318718874154 16.363219032424542 2.8311641214026273 0 0 0
369 0 2 0 1.1597165938277092 16.7110475236854 3.6711581442947 0 0 0
370 0 1 0 0.03583833953028792 16.067950981426687 7.30892673294573 0 0 0
371 0 2 0 0.19438878961911366 16.70409317200078 8.061623533094354 0 0 0
372 0 2 0 0.06924818555056467 16.576165138739118 6.4933728399594335 0 0 0
373 0 1 0 6.596787746661094 17.756387581523207 2.3045284502678647 0 0 0
374 0 2 0 6.660923241703893 17.715996179893118 1.361919632849165 0 0 0
375 0 2 0 5.728499032689854 17.987503794401167 2.6188112996496518 0 0 0
376 0 1 0 4.019885195859926 18.035445402635073 6.995242214593094 0 0 0
377 0 2 0 3.867039913394943 17.354884160765014 6.329931375894532 0 0 0
378 0 2 0 4.941187103204707 18.292916932952064 6.773723310252025 0 0 0
379 0 1 0 -0.3519417906907365 20.340097960734923 7.57243280084749 0 0 0
380 0 2 0 -0.953713106725204 19.618199304347208 7.358164544287308 0 0 0
381 0 2 0 -0.5548019673571303 20.58103283562412 8.46553077349882 0 0 0
382 0 1 0 1.992337707753585 20.02625114361745 2.6296315140881266 0 0 0
383 0 2 0 2.8273980941359946 19.523433289167198 2.821874026718958 0 0 0
384 0 2 0 2.074008667625352 20.766673903868483 3.2541067731876017 0 0 0
385 0 1 0 6.642260919392728 18.757009303918252 6.251235833061193 0 0 0
386 0 2 0 7.291461671536819 19.240075876282848 6.8259839882756586 0 0 0
387 0 2 0 7.077409709005476 18.01882329959395 5.8635294137977265 0 0 0
388 0 1 0 4.28842726863393 18.59977713260099 3.403855307979526 0 0 0
389 0 2 0 4.14881840079863 17.779397067896767 3.8128203244924808 0 0 0
390 0 2 0 4.51480848343655 19.177302478158623 4.131428481325041 0 0 0
391 0 1 0 -0.8778795755920197 19.35328679837265 3.3118400792143285 0 0 0
392 0 2 0 -0.1472316985468115 19.814802780373455 2.843513916247909 0 0 0
393 0 2 0 -1.1783644008997503 19.979213288008022 4.015446007488963 0 0 0
394 0 1 0 1.9617535850699337 19.657026852556793 6.368460516793858 0 0 0
395 0 2 0 1.3898875562911175 19.880070150463055 7.129336310314375 0 0 0
396 0 2 0 2.7192072473675086 19.089204173451446 6.670995445256343 0 0 0
397 0 1 0 7.799273551584562 22.053973477381227 1.8136936756519928 0 0 0
398 0 2 0 8.186579176364644 21.35905166547394 1.2736234564989664 0 0 0
399 0 2 0 8.625206458299951 22.49891791227303 2.177320450737496 0 0 0
400 0 1 0 1.7140514492230388 22.488883701017933 8.456267990161752 0 0 0
401 0 2 0 2.1821311443128955 0.08750690582585309 9.001496668396374 0 1 0
402 0 2 0 1.0965435079967731 -0.08880641836904754 7.98311862766572 0 1 0
403 0 1 0 -2.6183976650706136 15.667926044094234 8.301436995331935 0 0 0
404 0 2 0 -1.6323327042403084 15.804396260615327 8.260259142089154 0 0 0
405 0 2 0 -2.851392461209032 16.46948775440152 8.768538207563887 0 0 0
406 0 1 0 3.9592228606861757 16.104603606558985 1.6539147960559832 0 0 0
407 0 2 0 4.79953162382241 15.81226206450249 1.9463884995186032 0 0 0
408 0 2 0 4.020764749630307 16.895906984121666 1.1363768063570312 0 0 0
409 0 1 0 4.821656811159857 20.45087042326699 5.143076573678578 0 0 0
410 0 2 0 5.624610899194614 20.08663405602527 5.590805770059213 0 0 0
411 0 2 0 4.315446965329672 20.892652079373555 5.819311759430894 0 0 0
412 0 1 0 0.5616357352762562 17.628059238745614 4.991448078365864 0 0 0
413 0 2 0 0.9526014275972163 18.445494215919005 5.377798257188876 0 0 0
414 0 2 0 -0.09325023855540615 17.92639655469587 4.356886089000015 0 0 0
415 0 1 0 -0.47183464204361236 16.55122216614682 19.123977323599995 0 0 -1
416 0 2 0 7.4835205745071605 16.224494704111518 0.32024404371446025 0 0 0
417 0 2 0 -0.15729067192592439 16.925301994678726 18.247494162858132 0 0 -1
418 0 1 0 1.9572041010703227 21.490181736655163 0.3650922114209724 0 0 0
419 0 2 0 1.9928625725348532 20.838013014636825 1.0383155194552227 0 0 0
420 0 2 0 2.531709699002032 22.13546554869052 0.6981524800958329 0 0 0
423 0 2 0 15.661055137036133 16.832182404052617 3.95269830307431 0 0 0
424 0 1 0 13.111697687139356 16.116498738874167 5.153231764864744 0 0 0
425 0 2 0 14.04819671928332 15.92465567085103 5.184986193311809 0 0 0
426 0 2 0 13.12608421965086 16.920042031969434 4.629536802481785 0 0 0
427 0 1 0 8.466945131562449 22.011484958112675 5.23924691581619 0 0 0
428 0 2 0 7.882381974180005 22.732210821820914 4.95974269939817 0 0 0
429 0 2 0 8.352678266053122 21.300800926122662 4.570276026246673 0 0 0
430 0 1 0 11.101408998612598 21.55336281419619 5.027569482342591 0 0 0
431 0 2 0 10.950425881778067 21.166683748274135 4.135891077505923 0 0 0
432 0 2 0 10.25427415030076 22.088832345887386 5.133227837159033 0 0 0