LAMMPS (29 Sep 2021 - Update 2)
  using 1 OpenMP thread(s) per MPI task
echo both

include		in.partitions
variable        pid world 0
include		in.temp
variable        temperature equal 275
variable        tempDamp equal 0.100 # this is 0.1 ps
include		in.pressure
variable        pressure equal 6079.5
variable        pressureDamp equal 1.0 #this is 1ps
include		in.seed
variable        seed world 745823

units           metal
atom_style	full
include		in.box
read_data       iceV.data
Reading data file ...
  triclinic box = (0.0000000 0.0000000 0.0000000) to (18.399555 22.570389 19.505716) with tilt (0.0000000 -6.7926110 0.0000000)
  1 by 1 by 1 MPI processor grid
  reading atoms ...
  1008 atoms
Finding 1-2 1-3 1-4 neighbors ...
  special bond factors lj:    0        0        0       
  special bond factors coul:  0        0        0       
     0 = max # of 1-2 neighbors
     0 = max # of 1-3 neighbors
     0 = max # of 1-4 neighbors
     1 = max # of special neighbors
  special bonds CPU = 0.000 seconds
  read_data CPU = 0.023 seconds
include 	in.setup
variable	out_freq equal 500
variable	out_freq2 equal 500

timestep        0.0005

neigh_modify    delay 7 every 1

include         in.deepmd
# This is deepMD model

# create groups ###
#group ox type 2
#group hy type 1

mass 2 15.999
mass 1 1.008

pair_style      deepmd ../graph.pb
pair_coeff      * *

bond_style      none
angle_style     none
dihedral_style  none
improper_style  none
neigh_modify exclude none


neighbor        2.0 bin
neigh_modify    every 10 delay 0 check no

thermo          ${out_freq}
thermo          500
thermo_style 	custom step temp pe etotal epair emol press lx ly lz xy xz yz vol pxx pyy pzz pxy pxz pyz

restart 	${out_freq} restart.lmp.${pid} restart2.lmp.${pid}
restart 	500 restart.lmp.${pid} restart2.lmp.${pid}
restart 	500 restart.lmp.0 restart2.lmp.${pid}
restart 	500 restart.lmp.0 restart2.lmp.0


include         in.dump
dump            myDump all atom ${out_freq2} dump.water.${pid}
dump            myDump all atom 500 dump.water.${pid}
dump            myDump all atom 500 dump.water.0
dump            myDump2 all dcd ${out_freq2} dump.dcd
dump            myDump2 all dcd 500 dump.dcd
dump_modify     myDump append yes
dump_modify     myDump2 append yes


timer           timeout 03:55:00 every 1000
New timer settings: style=normal  mode=nosync  timeout=03:55:00

fix             2 all nph tri ${pressure} ${pressure} ${pressureDamp}
fix             2 all nph tri 6079.5 ${pressure} ${pressureDamp}
fix             2 all nph tri 6079.5 6079.5 ${pressureDamp}
fix             2 all nph tri 6079.5 6079.5 1
fix             3 all temp/csvr ${temperature} ${temperature} ${tempDamp} ${seed}
fix             3 all temp/csvr 275 ${temperature} ${tempDamp} ${seed}
fix             3 all temp/csvr 275 275 ${tempDamp} ${seed}
fix             3 all temp/csvr 275 275 0.1 ${seed}
fix             3 all temp/csvr 275 275 0.1 745823
velocity 	all create ${temperature} ${seed} dist gaussian
velocity 	all create 275 ${seed} dist gaussian
velocity 	all create 275 745823 dist gaussian

run             400000

CITE-CITE-CITE-CITE-CITE-CITE-CITE-CITE-CITE-CITE-CITE-CITE-CITE

Your simulation uses code contributions which should be cited:

- USER-DEEPMD package:

@article{Wang_ComputPhysCommun_2018_v228_p178,
  author = {Wang, Han and Zhang, Linfeng and Han, Jiequn and E, Weinan},
  doi = {10.1016/j.cpc.2018.03.016},
  url = {https://doi.org/10.1016/j.cpc.2018.03.016},
  year = 2018,
  month = {jul},
  publisher = {Elsevier {BV}},
  volume = 228,
  journal = {Comput. Phys. Commun.},
  title = {{DeePMD-kit: A deep learning package for many-body potential energy representation and molecular dynamics}},
  pages = {178--184}
}

CITE-CITE-CITE-CITE-CITE-CITE-CITE-CITE-CITE-CITE-CITE-CITE-CITE

Neighbor list info ...
  update every 10 steps, delay 0 steps, check no
  max neighbors/atom: 2000, page size: 100000
  master list distance cutoff = 8
  ghost atom cutoff = 8
  binsize = 4, bins = 7 6 5
  1 neighbor lists, perpetual/occasional/extra = 1 0 0
  (1) pair deepmd, perpetual
      attributes: full, newton on
      pair build: full/bin
      stencil: full/bin/3d
      bin: standard
Per MPI rank memory allocation (min/avg/max) = 7.699 | 7.699 | 7.699 Mbytes
Step Temp PotEng TotEng E_pair E_mol Press Lx Ly Lz Xy Xz Yz Volume Pxx Pyy Pzz Pxy Pxz Pyz 
       0          275   -178.42725   -142.63189   -178.42725            0    36332.065    18.399555    22.570389    19.505716            0    -6.792611            0    8100.4335    35849.221    37138.145    36008.828   -446.15847     1253.651    361.35248 
     500    272.64587   -163.44145   -127.95251   -163.44145            0    11222.021     18.05888    22.261209    19.287955 -0.028818662   -6.7539639 -0.010928946     7753.999    10179.515    11399.043    12087.506   -2661.4239    79.874575   -434.94018 
    1000     275.3931   -162.32613    -126.4796   -162.32613            0    6344.5666    18.080549    22.629959      19.5181 -0.026094312   -6.8479036 0.0083607357    7986.0665    7623.9521    7313.7351    4096.0125    2417.5659    183.33586   -1072.7331 
    1500     273.4485    -163.0084   -127.41499    -163.0084            0    15898.558     18.06633    22.739468    19.427459 -0.0091829754   -6.8917341 -0.014686459     7981.164     18315.44    13859.827    15520.408   -20.289425    2949.5855    1548.7638 
    2000    268.20533   -159.72746   -124.81652   -159.72746            0    1382.0233    18.018828     22.67668    19.290476  0.017972535   -6.8912316 -0.054538512    7882.2271    3189.3249     2766.642   -1809.8969   -1088.4075   -269.47032    38.900928 
    2500    278.83133   -160.47293   -124.17886   -160.47293            0    6465.5089    18.157873    22.878029      19.3789 0.0017546099   -6.9691427  -0.07206408    8050.3119    6490.0063    4946.7959    7959.7244   -208.42013    2389.3842   -1283.9512 
    3000     283.2201   -160.17402   -123.30869   -160.17402            0    13130.726    18.067834    22.661806    19.269981 -0.030721488   -6.9622136 -0.00064060953     7890.089    10912.838    14948.256    13531.082     253.0594    572.71896   -5773.5606 
    3500    271.20848   -161.30441   -126.00257   -161.30441            0    1858.7104    18.099874    22.626092     19.38567 -0.068435882   -6.9677297   0.11205548    7939.0023    1347.5719    3165.1937    1063.3655    3287.8383   -838.09798    1637.9611 
    4000    265.49212   -161.07776   -126.51999   -161.07776            0    6461.9767    18.139523    22.674281    19.532262 -0.038940845   -6.8679783   0.15204727    8033.6319    5792.1217    7726.2441    5867.5643    245.15791    1815.3247   -265.45796 
    4500    274.81426   -161.33555   -125.56436   -161.33555            0    9985.1969    17.997295    22.406445    19.317932  -0.03122225    -6.698592  0.097783016    7790.0604    8977.2967    11892.478    9085.8159   -1737.5708    902.54494   -2823.3497 
    5000    263.27295    -160.7054   -126.43649    -160.7054            0    2740.0197    18.259078    22.676477    19.499931 -0.073614103   -6.7142549 -0.087404504    8073.9769    1465.3102    5381.3777    1373.3712   -3477.6267   -700.58181   -1705.2823 
    5500    280.14232   -162.93146   -126.46675   -162.93146            0    4932.3189    18.118316    22.584467    19.280006 -0.048068343   -6.7335053  -0.18684593    7889.2341    4248.3825     474.0239     10074.55    36.779933   -2178.3543    5033.9838 
    6000     269.7244   -160.63073   -125.52206   -160.63073            0    3351.7587    18.035508    22.656778    19.263014  0.077648145   -6.8308182 -0.073658874    7871.3777    456.76397    3264.5847    6333.9275    137.36314   -543.52667   -2881.7077 
    6500      276.768   -162.96419    -126.9387   -162.96419            0    7952.3086    18.039307    22.933545    19.419862  0.099091048   -6.9305867   0.07540584    8034.0995    10328.572    7669.0164    5859.3373    3011.4472    2775.4235    606.67561 
    7000    273.71564   -159.77492   -124.14673   -159.77492            0    3637.0992    17.945661    22.756078    19.278099  0.017036791   -6.9296753   0.10632555    7872.6524    4372.3789    3399.6371    3139.2818   -2455.9982   -1848.7281   -2033.4425 
    7500    276.43806   -160.58952   -124.60697   -160.58952            0    4180.8313    18.143423    22.756852    19.359278  -0.16116236   -6.9407145   0.01411918     7993.198    8466.4887    2656.2962     1419.709   -1181.6004   -1605.5541   -1445.4514 
    8000    275.63031   -161.50268   -125.62527   -161.50268            0    4699.1806    18.235274    22.546044    19.372184  -0.25164546   -6.8326345 -0.061522809    7964.5493    6932.0195    3871.2632     3294.259     3349.704   -2519.2537     4121.966 
    8500    266.70233   -161.23036   -126.51506   -161.23036            0    7883.4419    18.163355    22.199947    19.379441  -0.23604605   -6.6743813  -0.10795804    7814.2848     7086.739    9523.6122    7039.9746    1177.7118    945.82764   -2723.6414 
    9000    276.84316   -160.17134   -124.13606   -160.17134            0    2146.0287      18.2794     22.46842    19.729155 -0.020800768   -6.6558241 0.0023659073    8102.9462   -884.82948    3845.9214    3476.9943    1991.7664    1448.9781    3767.5306 
    9500    286.23366   -160.96402   -123.70643   -160.96402            0     8511.704    18.054147    22.435127    19.508661   0.22345816   -6.6068152   0.13888642     7901.926    8852.5502    9754.2555    6928.3062    1457.2756     -241.132    184.18107 
   10000    287.88989   -161.12421   -123.65103   -161.12421            0    5153.7706    18.123352    22.618164    19.342662   0.25809922   -6.7050738   0.10162549    7928.8851     3330.895    5067.0465    7063.3704    -192.4052   -503.38848    99.440443 
   10500    283.54152   -158.98681   -122.07963   -158.98681            0     444.0197    18.222402    22.886275    19.330449   0.13301029   -6.7949154 -0.002816612    8061.6269   -1221.5511   -679.73791    3233.3481    228.31482    1112.2137    1791.0302 
   11000    276.16547   -159.87046   -123.92339   -159.87046            0    6340.3005    18.046159    22.710334    19.262198  -0.05471711   -6.7789204 -0.008443884    7894.3094    5884.6228    10147.913    2988.3657   -2083.7621    -355.8845   -2225.8703 
   11500    271.56326   -161.13832    -125.7903   -161.13832            0    4265.1558    18.062798     22.73235    19.362575  -0.17698653   -6.8542217  0.031727806     7950.464     5095.729    2993.9574     4705.781   -269.36723    1672.9689   -1898.7052 
   12000    279.70092   -160.28103   -123.87377   -160.28103            0    5276.6136    18.090056    22.750477    19.413733  -0.12909173   -6.9064182   0.10724815    7989.8658    7013.3648     4933.017    3883.4589   -1469.5588   -1648.3152   -3195.7703 
   12500    288.85865   -161.28837    -123.6891   -161.28837            0    8719.0415    18.099056    22.729818    19.359426 0.00050038977   -6.8813581   0.10917698    7964.2404    10009.962    8667.9756    7479.1868   -2195.4758   -2276.5507    228.18811 
   13000    291.18635   -161.16075   -123.25849   -161.16075            0    9380.1129    18.175215      22.6699    19.348398  0.073854676   -6.8861256  0.032661681    7972.1265    10604.848    5105.6837    12429.807    1061.1121   -1021.4331    -3011.848 
   13500    282.15126     -162.163   -125.43679     -162.163            0    8420.3672    18.187575    22.535345    19.422161   0.14998571   -6.9009942  -0.13781775    7960.4304    7816.1342    9930.0444    7514.9231   -1349.0654     660.0409   -618.33183 
   14000    267.35575    -161.2171   -126.41675    -161.2171            0    4309.9235    18.078891    22.434608    19.560828   0.19105667   -6.8843105  -0.27600912    7933.7315    6192.6423    3311.6517    3425.4764   -1858.7883    -1488.661    4267.2075 
   14500     259.2734   -161.58614   -127.83782   -161.58614            0    4797.6918    18.090451    22.526543    19.642185    0.0644152    -6.919635  -0.26131903    8004.4915    7163.4125    4267.8548    2961.8082   -316.37351    2352.9768   -1055.4206 
   15000      278.665   -160.87549   -124.60307   -160.87549            0    7809.3504     18.05493    22.703213    19.249988 -0.076931616   -6.8990019 0.0037473423    7890.6644    6166.2482    8382.0042    8879.7989   -1004.0366    1897.0163   -318.72338 
   15500     271.5029   -160.51109   -125.17093   -160.51109            0    6077.2927    18.157872    22.976544    19.103173  -0.23872263   -6.9300272   0.33607606    7969.9418     3230.694     6694.162    8307.0221    254.36745     1588.335   -2749.4959 
   16000    282.84826   -160.61159   -123.79465   -160.61159            0    9568.6478       18.016    23.001825    19.196012  -0.26782322   -6.8704531   0.43584595    7954.8442    9313.5477    6918.2306    12474.165    680.47359     44.53695    3.2470051 
   16500    278.45303   -161.00544   -124.76061   -161.00544            0    8789.0527    17.879632    22.863452    19.390031  -0.21023718   -6.8263968   0.25980439    7926.4532     9393.478    7840.0145    9133.6655    -1199.792    2074.9332   -1551.2106 
   17000    277.90062   -160.98663    -124.8137   -160.98663            0    5951.7086    18.029172    22.699598    19.525801  -0.12285872   -6.8902455 -0.079114844    7991.0309    5319.0822    7509.9168    5026.1269    -393.7833    587.32264   -494.70407 
   17500    272.31672   -160.54535   -125.09926   -160.54535            0    4214.9539    18.184999     22.53429    19.450872  0.061427226   -6.9149341  -0.26632733    7970.6958    881.80594    5230.9896    6532.0662    2712.5742   -967.28648      791.554 
   18000    268.99928   -161.89604   -126.88176   -161.89604            0    6533.8557    18.219005    22.369323    19.377544    0.2897304   -6.9118158  -0.20129458    7897.2561    8770.7587    5968.3236    4862.4849    2267.1938   -1142.6741    4132.0545 
   18500    272.49271   -161.66615   -126.19715   -161.66615            0    3317.5853    18.238269    22.494018     19.46641   0.40187136   -6.8804906 0.0043289734    7986.1328    2532.5551    5779.1933    1641.0074   -183.88865    1148.0646     4418.447 
   19000    272.96781   -161.23267   -125.70182   -161.23267            0    4696.6186    18.096209    22.608927    19.469901   0.24286714   -6.7938265    0.1664755    7965.8347    1484.8651    4934.5229    7670.4679    148.74768    429.33176   -2908.0709 
   19500    268.93018   -160.15391   -125.14862   -160.15391            0    6031.3168     17.98536    22.720289    19.373913  -0.20081833   -6.7254679   0.23807452    7916.8123    10281.406    6641.1082    1171.4364    2004.2949   -1381.1877    3744.7424 
   20000    269.18282    -162.3207   -127.28253    -162.3207            0    4646.3668    18.056306    22.887804    19.336573  -0.63779641   -6.7279406    0.2130311      7991.21    1852.2431    3626.8392    8460.0182    1496.8952    356.38708   -1184.4773 
   20500    272.94777   -161.12725   -125.59902   -161.12725            0    5613.0676    18.029656    22.716224    19.273995  -0.68567836   -6.7167403   0.17384429    7893.9673    7779.4247    3082.6043    5977.1738    999.72702   -773.95496     -954.433 
   21000    275.27601   -161.86004   -126.02875   -161.86004            0    4098.0513    18.125874    22.708239    19.359536  -0.22216539   -6.7098304   0.16757103    7968.5145    818.81923    4794.6818    6680.6527   -367.39831    647.00065   -1642.2211 
   21500    269.87984    -163.2809     -128.152    -163.2809            0    9054.0983    18.067558    22.579856    19.475831   0.35954892   -6.6379897   0.12777152    7945.4155    10674.131    8205.8998    8282.2643   -1932.2645    267.54803    2044.3865 
   22000    271.55369   -161.04252   -125.69575   -161.04252            0    9508.5543    18.101117    22.496737     19.46822   0.50773084   -6.6528257 -0.080057275    7927.7718    8570.4915    9561.9335    10393.238    2627.5397    -2115.287     208.9856 
   22500    278.93693   -161.39263   -125.08481   -161.39263            0    5188.7202    18.184811    22.554718    19.485719   0.35729998    -6.789799  -0.21940271    7992.1316    2401.5865    4431.2428    8733.3312   -207.41712   -684.41736    530.22659 
   23000    273.59141   -162.34689   -126.73488   -162.34689            0    7842.4149    18.098222     22.58431    19.329036   0.10319075   -6.8925106   -0.1436428    7900.4702    4669.2397    10952.941     7905.064   -467.97045    3073.1386   -1903.0421 
   23500    281.00949   -162.05217   -125.47458   -162.05217            0    4659.7201    18.123136    22.805213    19.326209  -0.12611304   -6.9361444  0.081820039    7987.5607    5000.0253    3333.4638     5645.671    2742.2673   -1308.9447   -228.50913 
   24000    282.63367   -159.93724   -123.14824   -159.93724            0    5640.0625    18.022098    22.769248     19.35159  -0.22152357   -6.9839906   0.25655059    7940.9177    5582.9078    5183.2053    6154.0744    821.63194   -1191.6294    1025.8948 
   24500     270.4184   -159.69345   -124.49445   -159.69345            0    3652.4424    18.097246    22.691277     19.44658   -0.2006175   -6.9963314   0.32459886    7985.7304    4156.5101      2272.37    4528.4471    40.900316   -214.57912   -3271.6335 
   25000    280.13298   -160.87672   -124.41322   -160.87672            0    7090.6505     18.17704    22.517718     19.34722  -0.10905567   -6.8901443   0.21737718    7918.9231    9055.1614    6354.6181     5862.172   -843.49934   -130.58409   -835.34255 
   25500    278.75292   -160.13878   -123.85492   -160.13878            0    6118.2561    18.351297    22.628319    19.334679 -0.036138056   -6.6990518  -0.13836699    8028.8992    3687.1162     8994.878    5672.7742    956.32294    874.94104   -487.22859 
   26000    285.20511   -159.93224   -122.80853   -159.93224            0    7144.8097    18.138632    22.661354     19.35621   0.11257953   -6.4792702  -0.38030847     7956.292    7589.7035    5466.3814    8378.3441    1741.9147    295.56142    1729.0086 
   26500    277.17006   -162.01486   -125.93703   -162.01486            0    6406.9467    17.914372    22.828054    19.458001   0.27834069   -6.3365748  -0.28894373    7957.3541    7380.0671    8650.3035    3190.4696    2035.7431    1601.5412    1437.9241 
   27000    283.64552   -159.48291    -122.5622   -159.48291            0    6497.7493    17.883992    22.991395    19.446203   0.30039217   -6.3969805  0.023549487    7995.8494    5341.5271    8598.3636    5553.3572    464.36539    2158.7461   -1274.9341 
   27500    275.01555   -160.02609    -124.2287   -160.02609            0    6284.7484    17.922242    23.000819    19.258763   0.12538693   -6.5816701   0.27903771    7938.9676    6807.9771    6510.6339    5535.6341    -1034.092    1247.4978    1575.0599 
   28000    275.87208   -161.56285   -125.65397   -161.56285            0    5647.3256    18.145494    22.863695    19.159019  -0.18981351   -6.8978654   0.30815082    7948.5602    6081.1227    5414.5312    5446.3229    726.79157    2117.4658    2209.4343 
   28500    274.93957   -160.37696   -124.58946   -160.37696            0    4208.1345    18.232549    22.705988    19.264173  -0.37811449   -7.1328323   0.14539758    7975.1373    81.491469    5592.1519    6950.7601    819.62073    1030.4529   -124.16715 
   29000    277.85817   -161.39794   -125.23054   -161.39794            0    5458.4954    18.105499    22.622649    19.443219  -0.36518428   -7.0950171  0.039811205    7963.8326    7178.3152    6807.2982    2389.8728    2002.7689   -385.04386    2919.6589 
   29500    288.36715   -160.77591   -123.24061   -160.77591            0    3379.4487    18.055726    22.511117    19.528526  -0.13214794   -6.9848249    0.0377134    7937.4585    2226.3099    3826.3707    4085.6656    2120.1613    838.37661   -1924.2285 
   30000     301.8967   -160.72607    -121.4297   -160.72607            0    5184.9855    18.113193    22.751804    19.511601   0.20293026   -6.7826936  0.052298447    8040.8831    3992.3775    7738.7789    3823.8002   -1559.0972    1290.3312   -4311.8805 
   30500    285.01337   -160.40798   -123.30922   -160.40798            0    7975.5267    18.075045    22.862894    19.346742   0.34747561   -6.5640254 -0.071041004    7994.9994    5702.3178     9136.371    9087.8913   -1404.4908   -576.71117    -218.2708 
   31000    281.08904   -158.88014   -122.29219   -158.88014            0    5111.8524    18.009313     22.85567    19.280734   0.24349418    -6.397006  -0.20499824     7936.238      5407.79    3086.5726    6841.1946   -2797.9807   -2050.2949    -1879.703 
   31500    279.50736   -160.50526   -124.12319   -160.50526            0    8178.0935    18.086226    22.816427    19.428377 -0.087211401   -6.4718681  -0.18192162    8017.3731    9643.8252    6329.8473    8560.6081    147.68182   -668.42722    165.01899 
   32000    274.53126   -160.64767   -124.91332   -160.64767            0    4015.7923    18.086658    22.597422    19.477517  -0.34036567    -6.661213  0.070136432    7960.6916    4539.8237    2958.2575    4549.2958    97.231222   -756.17932   -2669.0114 
   32500    281.05324   -160.89446   -124.31117   -160.89446            0    12092.457    18.180323    22.400961    19.466659  -0.31131285   -6.9251988   0.34372413    7927.9277    11403.044     13209.89    11664.438    3685.6753     1040.126   -296.26666 
   33000    277.83177   -160.11675   -123.95278   -160.11675            0    4227.3682    18.311027    22.459757    19.498831  -0.18252202   -7.1353656   0.38760513    8019.1131    3385.9197    4611.3851    4684.7999    860.96936    909.94179   -3371.3938 
   33500    274.62001   -161.20324   -125.45734   -161.20324            0    6529.7963    18.197434    22.480962    19.373639  -0.03943865   -7.1162384  0.088809343    7925.6744    4804.2652    6472.9661    8312.1577    1859.1781   -2568.3573   -1514.4313 
   34000    257.66849    -160.4209   -126.88149    -160.4209            0     6142.933    18.108696    22.655109    19.399284  0.001741368   -7.0519476  -0.27130962    7958.6431     5514.443    5221.2451    7693.1108    -2140.148   -254.27982    2737.5845 
   34500    267.45467    -162.8014   -127.98817    -162.8014            0    4103.6443    17.978575    22.715069    19.459504  0.056486249   -6.9231385  -0.39362872    7946.9613    3202.6868    5187.7692    3920.4769    3120.2979   -424.17933   -934.59945 
   35000    265.42417   -163.00648   -128.45755   -163.00648            0    7025.4665    17.968747    22.680377    19.430603    0.2040427   -6.7695157  -0.18301735    7918.7084    5716.5428    5695.5828     9664.274   -767.59171    1148.1093   -1009.4013 
   35500    274.08851   -162.25342    -126.5767   -162.25342            0    4616.1232    18.185225    22.663734    19.389927   0.22009179   -6.7087282   0.17061661    7991.4634    4195.2847    2005.1436    7647.9413   -701.55994   -1922.0265    3251.6691 
   36000    283.13477   -162.63218   -125.77795   -162.63218            0     6694.844    18.215835    22.509748    19.280926 -0.014766742   -6.7453004   0.28962926    7905.8324    5786.8262    6586.3912    7711.3145   -4711.1097   -1690.9019   -3506.1974 
   36500    272.43427   -160.91379   -125.45239   -160.91379            0    7356.4354    18.162437    22.548976    19.438725  -0.34456704   -6.8219527   0.20100523    7961.0197    8488.8729    9870.9526    3709.4806    4003.1926   -2124.8237    1280.3255 
   37000    276.47555   -161.34669   -125.35926   -161.34669            0    2006.3268    17.960679    22.714207    19.450635  -0.49901136   -6.8809357  0.030111071    7935.1313     2409.456    1545.7998    2063.7246   -2193.5235   -500.24317    511.07094 
   37500     271.8991   -161.02509   -125.63336   -161.02509            0    6768.3532    17.878804    22.919627    19.370255  -0.31382808   -7.0036364  0.030150875    7937.4563    6004.9685     6459.732     7840.359    2491.8962    851.59475    3699.7683 
   38000    288.86101   -161.32719   -123.72761   -161.32719            0    5420.8397    18.019685    23.009495    19.247695  0.079208154   -7.0869489  0.058681666    7980.5535    4566.6937     5681.703    6014.1223    1798.4298    2225.1866    1111.1683 
   38500    278.67217   -160.57331   -124.29996   -160.57331            0     4640.143    18.198783    22.825673    19.032591    0.3730312   -7.1210448  0.060347475    7906.1279    2658.9853    4956.3379    6305.1059    1211.7618    752.07087    564.90475 
   39000    269.39076   -161.72261   -126.65738   -161.72261            0     9400.092    18.284596    22.635767    19.254682   0.39249907   -7.0317359 -0.091090267    7969.2405    10804.306    6789.1894     10606.78   -1344.9516   -116.58292   -1087.8552 
   39500    271.46989   -159.53971   -124.20384   -159.53971            0    5012.1361    18.223939     22.44839    19.469452   0.13074079   -6.8572481  -0.24531368    7964.9154    5997.2739    5632.9749    3406.1595    789.61967   -2702.2376   -167.43712 
   40000    272.58473   -160.34951   -124.86852   -160.34951            0    4859.4356    18.113479    22.377536    19.549283 -0.070022739   -6.7077845  -0.18378812    7924.0093     3645.163    6300.9643    4632.1794   -1197.9809    -463.3254      1159.38 
   40500    270.90264   -161.72228   -126.46025   -161.72228            0    7129.0632    18.152625    22.541353    19.580848  -0.15132048   -6.6452792  0.050826431    8012.1836    11774.913    5376.3997    4235.8771    2296.3573    2734.6315   -3405.8079 
   41000    267.89562   -161.13343   -126.26281   -161.13343            0    5193.9726    18.109529    22.640345    19.290166  -0.11266005   -6.6272923   0.25199062    7909.0835    6261.4892    3496.0878    5824.3408   -1235.4285   -11.701214   -549.96186 
   41500    280.71999   -161.54182   -125.00191   -161.54182            0    4825.7516    18.065084    22.766592    19.209035 -0.069624819   -6.7640788   0.26287015    7900.2998    6887.0101    3702.4385    3887.8063   -2528.5754   -798.22653   -3779.1027 
   42000     271.7514   -161.32203   -125.94952   -161.32203            0    2701.6756    18.112082    22.970512    19.388526 -0.053540949   -6.9600011  0.090652084    8066.4757    7279.2561    4398.8435   -3573.0728   -1175.2403    1650.0216   -2232.0698 
   42500    272.97912   -159.99906   -124.46674   -159.99906            0    7730.6623    17.923479    22.678216    19.304203 -0.066546735    -7.022299 -0.071179385     7846.628    8449.2908    7960.4256    6782.2705   -503.11664    3124.6736    657.49185 
   43000    267.20325   -159.43401    -124.6535   -159.43401            0    3144.2389    18.172379    22.659885    19.509252 -0.052291198   -7.0965034  -0.13730234    8033.5985    8635.7628    1832.4031   -1035.4492    48.439841   -142.64378   -32.073893 
   43500    283.08524   -161.52278     -124.675   -161.52278            0    5358.5622    18.221533     22.50325    19.353703  -0.05884385   -7.0110999 -0.026240572    7935.8642    3004.8055    7209.9518    5860.9292   -2224.4338    2576.3178    2932.2187 
   44000    275.47249   -161.10473   -125.24786   -161.10473            0    6960.0864    18.241668    22.528311    19.306984   -0.1017813   -6.9095422  0.084989167    7934.2819    6064.3697    6771.2318    8044.6577    2712.4019    1480.9054    4495.5164 
   44500    273.50318   -161.15693    -125.5564   -161.15693            0    3000.0725     18.20205    22.668102    19.411418  -0.10383592   -6.8310441    0.1406754    8009.2659    3327.7849    4817.8832    854.54949    279.17615   -1364.7709    1878.5715 
   45000    269.71014   -162.22559   -127.11878   -162.22559            0     7775.652    17.868719    22.677395    19.396548  -0.11646336   -6.6797877   0.19672104    7859.7916    8142.2402    7819.4724    7365.2434    580.93844   -619.40291    -2366.144 
   45500    268.61898   -161.78579   -126.82101   -161.78579            0    1888.3452    18.010322    22.996118    19.527097 -0.096792614   -6.6724045   0.12420689    8087.4886     2338.479    2069.8657    1256.6908     290.3588   -2875.9081   -538.40655 
   46000    280.50175   -161.67447   -125.16297   -161.67447            0    7654.9383    17.983803    22.863489    19.078067 -0.046666344   -6.6464209  -0.05555454    7844.3761    9310.1678    6005.3742     7649.273    1573.0277    1517.1997    2419.2755 
   46500    275.06702   -161.72515   -125.92106   -161.72515            0     356.1735    18.245028    22.881324    19.180827   0.15602809   -6.7558951 -0.077713658    8007.4273   -846.07803   -962.24093    2876.8395   -4896.8002   -508.27609    1271.5713 
   47000    269.71562   -159.99948   -124.89195   -159.99948            0    9638.6481    18.201588    22.695945    19.350953    0.2445728   -6.8193335 -0.042179686    7993.9219    9640.0318    10135.168    9140.7449   -1518.6902    984.75173    1827.6256 
   47500    282.06146    -160.2247   -123.51018    -160.2247            0    5077.2456    18.070053    22.547919    19.406064   0.11686023   -6.7918771 -0.011325606    7906.8475    4601.8767    6167.0346    4462.8254    425.43651   -2737.1907    -993.9061 
   48000    278.00412   -160.39915   -124.21275   -160.39915            0     5830.868    18.169145    22.642244    19.508272 -0.061889307   -6.8451816  0.013807665    8025.5123    4210.5353    6026.1739    7255.8947   -195.38377   -657.12044    17.095159 
   48500    272.08687   -160.17778    -124.7616   -160.17778            0    8263.6665    18.088463    22.616531    19.324429  -0.16437269   -6.8693362   0.01419788    7905.5909    12431.636    6962.6407    5396.7226    1641.9819   -1963.4961    2939.1959 
   49000    285.63482   -160.17139   -122.99175   -160.17139            0    5486.5935    18.173513    22.777676    19.322217  -0.16158787   -7.0731538   0.08783617    7998.4391    8891.7975    4157.1129    3410.8702   -497.55338    602.48983    1167.6473 
   49500    293.52977   -157.68501   -119.47771   -157.68501            0    3415.3845    18.224476    22.855948    19.302359 -0.041229839   -7.3236293   0.22629242    8040.1594    2910.8698    3751.0372    3584.2466   -664.03454   -100.62153    970.65899 
   50000    279.14956   -158.55197   -122.21648   -158.55197            0     7189.604    18.103534    22.685455    19.202142  0.085317218   -7.4541886   0.24190734    7886.0682     3763.631    8744.2146    9060.9664    55.944032    839.17879   -507.28871 
   50500     265.7279   -159.96833   -125.37987   -159.96833            0    3684.0163    18.163105    22.766669     19.34829   0.08613706   -7.5068412 -0.016669723    8000.7769    2601.0289    6166.3235    2284.6965     208.0228    3075.3118    3399.2107 
   51000    272.86486    -159.5281   -124.01065    -159.5281            0    3624.6482       18.123    22.665525       19.397 -0.041314508   -7.2301792  -0.33826238    7967.6537    3168.5436    4037.3477    3668.0533   -1668.0291   -866.48325    5524.4235 
   51500     280.5434    -161.4682   -124.95128    -161.4682            0    5514.5857    18.037695    22.585778    19.433972 -0.028965055   -6.8016794  -0.35248335    7917.3103     6709.464    4687.0553    5147.2379    346.63644   -1546.6809   -182.74658 
   52000    267.23401   -161.64834   -126.86383   -161.64834            0    5856.6045    18.092325    22.667153    19.488784   0.13542007   -6.4983648 -0.087724299    7992.3797    9073.3624    3085.6045    5410.8465   -1826.0979   -1758.3996    792.14948 
   52500     285.7899     -160.575   -123.37517     -160.575            0    5649.5496    18.082857    22.612926    19.324503   0.14433275   -6.4002299   0.14883139    7901.9115    6315.0317    8307.4531    2326.1642    555.09446   -207.02302   -739.93533 
   53000    269.90113   -160.42525   -125.29358   -160.42525            0    6439.3371    18.178683    22.757124    19.403322  0.055771572   -6.4935558   0.21901216    8027.0486    7612.4128    7950.5285    3755.0701    313.29681   -419.84731    617.46242 
   53500    274.65707   -160.27252   -124.52179   -160.27252            0    3586.7222    17.993727    22.720707    19.342127 -0.044015529   -6.6481254   0.11536517    7907.6461    4292.0164    1959.6426    4508.5076   -1435.2851   -1861.3593    982.47094 
   54000    274.25074   -159.58125   -123.88341   -159.58125            0    5440.4729    17.942514    22.916615    19.333891  -0.17792737   -6.8547898 -0.0096010527     7949.742    7284.7574    2976.8621    6059.7993   -1180.1447    1180.6826   -247.18715 
   54500    272.87127   -162.36296   -126.84469   -162.36296            0    7064.3971    18.127508    23.034161    19.246136  -0.24104857   -7.1050274   -0.0232723    8036.2616     9132.621    5368.7753     6691.795    739.21946    389.42681    842.05846 
   55000    275.20594   -160.80483   -124.98266   -160.80483            0    8342.5451    18.155684     22.83127    19.001641  0.018850318   -7.2202366  0.074447479    7876.5097    9258.7568    5327.4149    10441.463    1053.9493    744.44106    -4151.042 
   55500     254.1611   -160.74977   -127.66689   -160.74977            0    7692.9882    18.240559    22.847356    19.304502   0.27630784   -7.2660203   0.13377813    8045.1231    7167.8767      9805.51     6105.578   -2735.3671     484.8829    1251.2368 
   56000    286.84973   -160.38023   -123.04244   -160.38023            0    11320.893    18.072836    22.573358    19.514251   0.21789337   -7.0707277  0.048199336    7961.1235    11292.986     10077.86    12591.834    620.56111    1824.6691   -2815.3592 
   56500    267.30974   -159.32399   -124.52962   -159.32399            0    6282.7634    18.017801    22.502136    19.531328   0.06932562   -6.8875688 -0.030711807    7918.7624    6795.0268       7997.1    4056.1636    1026.3371   -1386.8179    3421.2711 
   57000    276.14742   -161.38903   -125.44431   -161.38903            0    8568.3954    18.168573    22.630723    19.518142 -0.058496531    -6.785288 -0.011202959    8025.2343    5655.5857    7380.1379    12669.463   -380.21574   -2549.3349    1874.6415 
   57500    270.99878   -160.36339   -125.08884   -160.36339            0    7940.9552    18.171867    22.598971    19.255458  -0.17011278   -6.7424426  0.052481367    7907.5527    8297.0739    9088.1266    6437.6649     918.8685   -430.90367    100.66682 
   58000    269.94246   -160.32133   -125.18428   -160.32133            0     3795.053    18.258756     22.71233    19.273783  -0.22898249   -6.7605214   0.13232749    7992.8166    420.68975    2273.6666    8690.8027      1725.79   -1103.8307   -988.93498 
   58500    272.17759   -160.17697   -124.74898   -160.17697            0    5889.3825    18.080287    22.692466    19.353181  -0.21066808   -6.7855613   0.13483447    7940.3446    7372.6981    5518.3127    4777.1368    2651.7732    -188.7177    -2659.111 
   59000    276.52806   -160.16451   -124.17025   -160.16451            0    2874.1121    17.859633    22.720661    19.582013   -0.1047503   -6.8014807  0.066920934    7946.0412    2056.5722    3874.9365    2690.8275   -1072.1124    388.44651   -719.86665 
   59500    275.39833   -159.71356   -123.86634   -159.71356            0    2565.2859     17.92331    22.850099    19.656168  0.053340485    -6.877919 0.0016681607    8050.1719    7406.4447   -317.51426    606.92741   -3982.5771     -686.705    1976.1306 
   60000    269.46614    -160.5665   -125.49145    -160.5665            0    10708.696    18.121391    22.592111    19.209027   0.26927489   -6.9518339 -0.060720798    7864.1848    10714.215    10124.205    11287.667    1247.7663   -627.72735   -62.292135 
   60500    267.63701   -161.28493   -126.44797   -161.28493            0    5298.9276    18.459879    22.632562    19.117963   0.33830792   -7.0638955  -0.12266553    7987.3774    4203.5678    3199.9417    8493.2732   -1528.4214    149.90247    2140.3282 
   61000    272.04555   -160.96411   -125.55331   -160.96411            0    4885.3433    18.314433    22.584756     19.37559   0.14134311   -7.0368068  -0.13333852    8014.2671    2802.5948     7677.033     4176.402    795.11765    1737.4954   -3323.4126 
   61500     280.6492   -161.21952   -124.68883   -161.21952            0    5836.0076     17.97434    22.501248    19.577606 -0.060902354   -6.8957738 -0.077685517    7918.0664    5580.7075    6847.1807    5080.1345    2259.5989    71.006157    3437.4719 
   62000     277.7408    -160.3974   -124.24528    -160.3974            0    5652.1415    18.008235    22.603473    19.652395  -0.16584449   -6.8512353 0.0079953913    7999.4809    6420.5396    4279.0449      6256.84   -506.93498    47.541716    547.91728 
   62500    278.83232   -161.27734   -124.98314   -161.27734            0    5167.6569    18.253153    22.506253     19.38128   -0.2006143   -6.8301518   0.12806311    7962.0249    4509.9549     8425.209    2567.8068   -2870.6356    622.01512    455.33905 
   63000    284.07013   -159.07573   -122.09975   -159.07573            0    2865.2937    18.384845    22.529812     19.20782  -0.24025003   -6.8363371   0.16604632    7956.0155     2179.863    3707.2991    2708.7188    3118.7383    1032.8987    2414.5806 
   63500    285.64143   -162.17363   -124.99312   -162.17363            0    4191.1467    18.256791    22.784296    19.284196  -0.20213951   -6.7592079   0.09821363    8021.6106    1533.6567    5765.8499    5273.9334   -4062.4185   -944.58964     762.6951 
   64000    270.46445   -159.24311   -124.03811   -159.24311            0     4946.653    17.962985    22.891282     19.36898 0.0079378437   -6.6827268 -0.010274126    7964.4422    2078.2856    3417.8156    9343.8579    1744.6541   -2020.3672   -710.37114 
   64500     276.3826    -160.7502   -124.77487    -160.7502            0    7395.3928     17.77991    22.982954    19.428036    0.2303321   -6.7138142  -0.13918559    7938.9728    7871.7806    8284.1371    6030.2608    -267.1178    871.86716    232.33896 
   65000    261.64108    -161.7423   -127.68579    -161.7423            0    5397.6799    17.974791    22.979614    19.458763   0.22229432   -6.8467747  -0.17900027    8037.5151    8566.7363    4542.7813    3083.5222    1799.9894     137.1395   -1517.9539 
   65500    277.69723   -161.86392   -125.71747   -161.86392            0    11190.261    18.248778    22.590374    19.156939   0.12888907   -7.0191331 -0.081550365    7897.3855    10597.988     12733.85    10238.945   -38.711108    1496.6615   -1561.2806 
   66000    285.85202   -159.99088   -122.78296   -159.99088            0    5869.8727    18.477839    22.528062    19.275077 -0.038220425   -7.1089544  0.085773358    8023.6344    4710.0186    6258.2808    6641.3187   -3809.3167    2580.3115    432.29172 
   66500    286.76807   -160.23599   -122.90884   -160.23599            0    5234.2745    18.269619     22.50914     19.46458  -0.17170514   -6.9790587   0.15343995    8004.4855    1499.5599    7232.1932    6971.0703    -192.9024    3261.7766   -1666.2714 
   67000     274.5013   -161.29772   -125.56727   -161.29772            0    1926.8216    18.015414    22.543916     19.53587  -0.17152559   -6.7660667   0.10705125    7934.2589    3464.9347    1455.4447    860.08536    41.198788   -1379.7032   -2534.9295 
   67500    264.73532   -159.58656    -125.1273   -159.58656            0    5393.3983    18.051603    22.726453    19.480705  -0.13151953   -6.6542323   0.05088581    7991.9379     7276.971    1911.7611    6991.4628    3273.6671    1706.9693    691.16002 
   68000    276.98348   -161.91816   -125.86462   -161.91816            0    3910.0136    18.152028    22.752716    19.332716 -0.068751266   -6.6035229  0.059196186    7984.5653    1290.8691    4867.1074    5572.0643     1648.638   -1820.5541   -2438.5318 
   68500    289.24664   -161.68796   -124.03818   -161.68796            0    4847.4076    18.129515    22.629423    19.228141 -0.075812297   -6.6760803  0.044011241    7888.5462    5896.8031    3253.1086     5392.311    2634.8152    1184.3231   -1048.0952 
   69000    266.63378   -161.10403   -126.39766   -161.10403            0    2739.9022    18.235495    22.838415    19.532721 -0.089606433   -6.8832283 0.00085670834    8134.7885    2910.0719    4310.4364    999.19842    1579.8279    1988.0292    931.39801 
   69500    273.21308   -161.35194   -125.78917   -161.35194            0    5029.4935    18.074064    22.446478    19.376795 0.0034097162   -7.0210688 -0.041895984    7861.1478    6203.3121    4190.0816    4695.0866   -806.17586    511.59904    2270.2844 
   70000    280.35805   -162.75763   -126.26483   -162.75763            0    5072.0885       18.145    22.432167     19.50055   0.10838581   -7.1657304 -0.028357455    7937.3416    2739.0822    6349.1847    6127.9985   -571.92329   -373.36893   -1473.2253 
   70500    263.90824   -160.94407   -126.59246   -160.94407            0    3264.7315    18.277913     22.56978    19.576751   0.14916278   -7.1958177  0.015032759    8075.9672    1069.7328    2671.0739    6053.3879    140.95096    558.09208   -796.38056 
   71000    277.11602   -161.52445   -125.45365   -161.52445            0    7543.8635    18.147476    22.489563    19.287189  0.093719585   -6.9518618  0.060892115    7871.6573    8293.8821    6568.0837    7769.6247    523.17116    696.47244    5285.4011 
   71500    281.20858   -162.54163   -125.93812   -162.54163            0    7854.1703    18.172305     22.72166    19.355021 -0.030827556    -6.769861   0.12787595    7991.7836    7081.6658    9854.4963    6626.3487    1383.2903   -207.17334   -2378.8302 
   72000    280.40974   -158.57111   -122.07158   -158.57111            0    5481.9202     18.12126    22.714653    19.532844  -0.19766789    -6.595058  0.090702339    8040.0729    6887.0554    3968.0436    5590.6616    3174.7197   -473.50615    2685.7567 
   72500    275.75407   -160.29679   -124.40327   -160.29679            0    5545.2255    17.955202    22.591289    19.490106  -0.21867241    -6.436678  0.060511315    7905.7944    7654.3146    4943.1626    4038.1993   -857.41745   -1929.1435   -491.69124 
   73000    271.89256   -162.48787   -127.09699   -162.48787            0    6358.2851     18.11866    22.612429    19.569601  -0.11631587   -6.5343012 -0.039214697    8017.8013    3838.2063    9869.1324    5367.5168   -593.26631   -1543.6344    1392.3333 
   73500     272.5973   -159.96292    -124.4803   -159.96292            0    10635.692    18.249103     22.43298    19.358885   0.16055016   -6.8389238  -0.17603239    7925.1742    8145.6505     12514.85    11246.576   -528.94902    702.30732    2155.0619 
   74000    277.93014   -162.36588   -126.18911   -162.36588            0    2645.9969    18.418195    22.474379    19.206995   0.44242603   -7.2546074  -0.14500136    7950.4956    5963.9869      1886.73    87.273722    -2705.043    531.48278    4526.8627 
   74500    270.50327   -160.97726   -125.76721   -160.97726            0    5617.1221    18.307244     22.61684    19.312803   0.50422703   -7.4640465 0.0012754075    7996.5053    3382.2727     6033.419    7435.6745   -1591.1563    1381.3458   -1446.0334 
   75000    281.73629   -160.28117   -123.60898   -160.28117            0    6488.7953    18.058807    22.712729    19.450738   0.22056069   -7.4048518  0.083471809    7978.0081    8526.6732    7875.5812    3064.1313    1056.8132    751.58926   -23.776413 
   75500    269.43545   -161.51535   -126.44429   -161.51535            0    4572.6959    17.900355    22.807184    19.388928  -0.19017616   -7.1990146   0.11016408    7915.6598    7410.7762    4425.5738    1881.7376    1534.3758    446.03392   -1778.8065 
   76000    275.10358   -160.36388   -124.55503   -160.36388            0    7306.8667     17.98137    22.827519    19.391307  -0.50599234   -6.9705307  0.083572749    7959.5513    7277.9858    8049.2902    6593.3241    164.90128   -802.99288   -1262.0608 
   76500    258.96179   -163.01059   -129.30284   -163.01059            0    5540.9712    18.138096     22.73565    19.336561  -0.52085685   -6.7400115  0.083739565    7974.0381    4993.1784    8990.2293     2639.506    1255.1231   -31.411211    1512.8719 
   77000    254.45067   -161.65255   -128.53199   -161.65255            0    6862.7852    18.095852    22.692261    19.229149   -0.2618383   -6.5445115  0.082617704     7896.177     7869.411    7032.3925    5686.5521    1638.2291   -1999.5009   -250.06028 
   77500    270.02255   -160.75639   -125.60892   -160.75639            0    7293.2881    18.098885    22.732395    19.375828 -0.034427028   -6.5558129  0.037506288    7971.8162    5128.6243    8721.3762    8029.8638   -2811.6465     1459.172   -311.53435 
   78000    284.16788   -159.32715   -122.33845   -159.32715            0    6036.3308    17.999357    22.713019    19.507467   0.14772747   -6.6064055 -0.036897152    7975.0378    3664.2189     7037.618    7407.1555    822.66172    1764.7664   -952.34133 
   78500    268.80966   -161.55697   -126.56737   -161.55697            0    5705.2324    18.020668    22.682985    19.455219   0.24726888   -6.7377547  -0.08646355    7952.5645    8452.1711    2643.2071    6020.3192    -3659.495   -2452.3498    479.11164 
   79000    275.85689   -162.85207   -126.94516   -162.85207            0    2113.9078    18.215504    22.598363    19.281742    0.1750929   -6.9887441 -0.042491612    7937.1473    2268.0978    1296.1442    2777.4813    1324.2978    13.342064    819.55164 
   79500    269.57507   -160.09811   -125.00888   -160.09811            0    6558.4137    18.284649     22.56841    19.239467   0.03244865   -7.2049791   0.10307143    7939.2706    8093.9786    6284.6449    5296.6177   -4222.7026    914.97919   -5763.6942 
   80000    277.68245   -160.47906   -124.33454   -160.47906            0     4465.574    18.259133    22.586569    19.471003  -0.33734482   -7.3658966   0.31452768    8030.0589    4186.1314    5055.9352    4154.6553    2330.1546    128.28127    2299.1204 
   80500    283.98627   -161.06392   -124.09885   -161.06392            0    8058.6237    17.869048    22.608515     19.58175  -0.69623691   -7.2622977   0.50533808    7910.8828    10269.655    8964.6601    4941.5559    2336.1554    2694.2002   -1821.5649 
   81000    276.52322   -161.09323   -125.09959   -161.09323            0    7333.2215    18.001054     22.74432    19.529981   -0.6801977   -7.1591116   0.50415201    7995.9987    8277.7675    5398.6822     8323.215   -270.98235    611.87643   -1149.7953 
   81500    275.18222   -161.62203   -125.80294   -161.62203            0    5057.0176    18.173643    22.780803    19.209082  -0.36589906   -6.9255111   0.31380373    7952.7554    4665.9526    5424.3394    5080.7606   -327.98225   -2855.6105   -4033.2216 
   82000    272.76256   -161.95833    -126.4542   -161.95833            0    4649.3282    18.129985    22.801961    19.201466 -0.076726746   -6.7660864   0.08463333    7937.8709    7443.4543    3030.3146    3474.2158   -528.78997    1641.4047    852.85887 
   82500    286.23904   -159.96388   -122.70559   -159.96388            0     8185.303    18.042222    22.826732    19.376365   0.11903954   -6.6911014 -0.020483382    7980.0584    7521.3038    8546.5103    8488.0949   -2824.4339   -2142.5929   -1528.2876 
   83000    277.86271   -160.61801   -124.45002   -160.61801            0    5115.1976    18.024947     22.84564    19.423796    0.1631478   -6.6545433  -0.05294737     7998.553    4873.7845    6732.3284    3739.4798   -1108.3993    1110.7423    479.89196 
   83500    277.00962   -160.60938   -124.55244   -160.60938            0    6499.9101     18.13061    22.728502    19.215524  0.077460403   -6.7113067  -0.06882073    7918.3639    4022.5673    8082.9706    7394.1923    597.90286   -1172.7779   -834.38589 
   84000    279.94243   -159.17108   -122.73238   -159.17108            0    7045.6898    18.241207    22.753853    19.258186 -0.078327921    -6.913973 -0.069567356    7993.2597    4991.9477    6292.7281    9852.3936    3852.1181    2341.3421   -777.35897 
   84500    278.91287   -160.53732   -124.23263   -160.53732            0    5653.1042    18.278557    22.675848    19.540115  -0.26668677   -6.9928375 -0.010679001    8099.0213    3806.6961    5880.1368    7272.4798   -602.61988   -1027.0377    -1203.625 
   85000    282.07708    -161.9157   -125.19915    -161.9157            0    8343.5346    17.998933    22.300335    19.509543  -0.29516397   -6.9542426   0.10508462    7830.7838    11311.707    7848.8395    5870.0571   -633.87548   -357.95338    441.98933 
   85500    271.52885   -159.34114    -123.9976   -159.34114            0    7547.9408    18.145908     22.55346    19.678836  -0.16971801   -7.0093475   0.21367909    8053.6231    5141.6437     11069.65    6432.5282    -233.6975    1371.7185   -3253.3384 
   86000    275.78877   -160.59319   -124.69515   -160.59319            0     9521.821    18.088499    22.674642    19.420045 -0.019205329   -6.9222655   0.18424853    7965.1361    9821.8077    9111.9827    9631.6727   -10.728386    2100.2839   -1068.6295 
   86500    269.63982   -161.40694   -126.30928   -161.40694            0    5852.2695    18.134218    22.739666    19.279748   0.04663185   -6.8118988  0.048338695    7950.3138    4656.1101    6122.7172    6777.9813   -2802.0912    1081.2215    1141.3044 
   87000    269.11917   -161.60846   -126.57857   -161.60846            0    6509.5623    18.109361    22.723338    19.315345  0.063893921   -6.7328738 -0.074280261    7948.3635    3877.4673    7207.2508    8443.9688   -2470.2697    1198.5675   -3364.7885 
   87500    262.62598   -160.23403   -126.04933   -160.23403            0    4076.2458     18.05742    22.805917     19.46458 -0.012709753   -6.6102687  -0.14757508    8015.8258    3399.3963    5761.4635    3067.8777   -1043.9383   -1119.0668    2132.4522 
   88000    279.07363   -160.29296   -123.96735   -160.29296            0    6434.2278    17.998543    22.654213    19.436887  -0.13529698   -6.5667782 -0.010700624    7925.2513    6405.1242    6060.2147    6837.3443    2182.2674   -1159.3702   -1259.3105 
   88500      277.688   -162.08072   -125.93547   -162.08072            0    5936.7105    18.085338    22.708073    19.413999  -0.27267794   -6.6234305    0.3212398     7973.003     3776.743    6321.4193    7711.9693    860.80109    156.64876   -1633.3841 
   89000    263.53712   -162.39884   -128.09554   -162.39884            0    5231.9526    18.263212    22.668113     19.33413  -0.41389511   -6.7705589   0.57419308     8004.186    4936.6792    5732.6421    5026.5364   -420.41193   -672.26333   -2969.0795 
   89500    264.88756   -162.28969   -127.81061   -162.28969            0    5925.3982    18.153982    22.461211    19.246243  -0.44606109   -6.9034936   0.45892563    7847.8561     4005.147    6908.4099    6862.6376    2645.8076    3185.1053     296.5461 
   90000    269.83707   -163.08973    -127.9664   -163.08973            0     4875.133     18.22045    22.601436    19.485793    -0.335344    -7.075129   0.05751197    8024.4118    7001.4419    5254.6692    2369.2879    1665.2922   -342.21293    2454.2063 
   90500    273.42932   -160.49643   -124.90551   -160.49643            0    6952.6776    18.069572    22.474456    19.501282  -0.04590423   -7.1009012  -0.22335406    7919.5445    5309.1055    9102.8006    6446.1266   -1919.6465     239.4438   -635.12843 
   91000    274.87041   -161.59201   -125.81351   -161.59201            0    4491.6346    18.084327    22.605898    19.541842     0.176739   -7.0633179  -0.15340919    7988.9483    669.26601    7941.6043    4864.0336   -143.21765    1272.1205    839.81025 
   91500    264.73137   -163.14557   -128.68682   -163.14557            0    8303.4335    18.057523    22.618769    19.440655   0.29858796   -6.9258375  0.056319568    7940.3207    8353.5135    7493.6072    9063.1799    618.70778    1208.1518     1135.499 
   92000     265.3163   -160.46521   -125.93032   -160.46521            0    6027.7826    18.053812    22.620949    19.344774   0.23163181   -6.7057373   0.18039718    7900.2965    6276.0246    7114.5888    4692.7343    932.94454    -2929.601    377.38692 
   92500    270.87839   -161.84243   -126.58355   -161.84243            0    6204.3077    18.171602    22.832271    19.398271 -0.081060693   -6.5185684     0.155166    8048.3218    6216.0658    4949.3452     7447.512   -573.64088   -130.98935   -2992.8262 
   93000    271.41799   -160.16184   -124.83273   -160.16184            0    9625.5998    17.987857    22.727069    19.343018  -0.34367192   -6.3488203 -0.0042209866    7907.6434    9317.2499    8457.5211    11102.028   -1614.0499   -720.79956   -1715.1018 
   93500    261.78543   -160.29608   -126.22079   -160.29608            0    3891.7299    17.963506    22.758015    19.418782  -0.36684704   -6.4205875  -0.13675101     7938.665    3899.6359    3846.8344    3928.7195    1249.8971   -508.93908    113.07655 
   94000     257.2933   -160.42674   -126.93617   -160.42674            0    6082.9298    18.127948    22.835482    19.379513 -0.086888814   -6.7185044 -0.047271569    8022.3516    5118.8269    3498.5295     9631.433    908.17163   -777.58576     848.8774 
   94500    272.28477   -161.06951   -125.62758   -161.06951            0    4333.3599    18.209781    22.686089    19.268158   0.23211104   -7.0359686  0.087649935    7959.8442    3122.9656    4519.1681     5357.946    214.54626    3909.8128    145.53619 
   95000    262.22254   -162.11896   -127.98678   -162.11896            0    5453.5099    18.190599    22.560223    19.305565   0.30522929   -7.1850832   0.13186944    7922.6947    3768.9462     5871.054    6720.5296   -2610.9928   -154.94688   -3956.0023 
   95500    269.43653   -160.81219   -125.74099   -160.81219            0    6715.2411    18.150988     22.60059    19.447598  0.077092218   -7.1109602  0.048596048    7977.8524    3663.6877    7004.7206    9477.3151    799.95615    -1022.199    385.12228 
   96000     274.2042   -159.50117   -123.80939   -159.50117            0    3769.3879    18.076419    22.599962    19.568019  -0.17873358   -6.9463137 -0.044363266    7994.0522    2795.9437    5314.7727    3197.4473    778.28419    1303.4614    269.27504 
   96500    289.17531    -161.8874    -124.2469    -161.8874            0      4418.21     18.04734    22.591838     19.48765  -0.22957421   -6.7559233 -0.070885121    7945.5551    804.29958    4549.2921    7901.0383    544.89784    1239.4402   -915.95037 
   97000    266.97359   -160.05861   -125.30801   -160.05861            0    10103.972    18.144815    22.722209    19.345821 -0.014920477   -6.5869093  0.045223158    7976.0941    10088.915    9818.5723     10404.43   -1177.6231    2098.3679   -2714.8398 
   97500    272.35695   -160.44946   -124.99813   -160.44946            0    6479.2571    18.276936    22.776989    19.119506   0.24122949    -6.481037  0.071532996    7959.3276    3629.1467    7123.7114    8684.9133   -2577.6632    40.148679    1315.1228 
   98000    269.93902   -161.89003   -126.75343   -161.89003            0    6578.8647    18.246057    22.767969    19.159498   0.22331131   -6.4562887 -0.047364568    7959.3469    5494.1983    5545.0525    8697.3432    269.55298    639.45347    3432.4668 
   98500     271.8512    -161.4293    -126.0438    -161.4293            0    6342.3246    17.950397    22.684626     19.46984  0.073645818   -6.5395713  -0.21035461    7928.0807    6179.0222     6349.323    6498.6287   -1289.6655    1263.9271    1434.9556 
   99000    275.80969    -161.6214   -125.72064    -161.6214            0    3109.7462    17.867113    22.588326    19.781025 -0.058044774   -6.7802564  -0.18717716    7983.3876    6678.1188    1018.5218     1632.598   -820.97604    -956.4903   -3748.1495 
   99500    289.18834   -161.28468   -123.64249   -161.28468            0     5466.872    18.038435    22.471463    19.607014  -0.10583256   -6.9775136  0.028984378    7947.7037     12362.09    4218.0677   -179.54171    1993.9477   -292.62463     957.0194 
  100000    273.06435   -161.20969   -125.66628   -161.20969            0    3674.0911    18.350539    22.489314     19.29778  -0.09324425    -7.113114   0.20222568    7964.0209    1725.1842    3844.2994    5452.7896   -760.05014   -574.01947    -1655.968 
  100500    269.14835   -160.09891   -125.06522   -160.09891            0    5773.9363     18.36833     22.62679    19.206732 -0.090029767   -7.0505681   0.21247533    7982.6316    7368.8671    6631.7249     3321.217    91.975237    855.18938   -1413.8322 
  101000    272.11884   -161.53559   -126.11525   -161.53559            0    7618.8935    18.125165    22.692438    19.220326 -0.085665678   -6.8873458   0.10200784    7905.4004    7050.7069    7738.7455    8067.2282   -2960.7078   -259.77619   -3284.7464 
  101500    272.48813   -161.69145   -126.22305   -161.69145            0    7439.6454    17.913885      22.8947    19.462556 -0.072778651   -6.7654472 -0.092871122    7982.2369    5574.7633    9439.2205    7304.9524   -1312.7964    1386.0781    3232.1256 
  102000    281.97689   -162.45889   -125.75538   -162.45889            0    7638.6267    17.870515     22.85832    19.480073 0.0031369548   -6.6594041 -0.078903017    7957.4142    9274.4809    5656.3502    7985.0492    227.63241   -2515.6025   -74.534531 
  102500    268.05481   -161.27647   -126.38513   -161.27647            0    6932.1174    17.983293    22.714012     19.31398   0.11086209   -6.6825152  0.049211456    7889.2341    6308.0454    10018.103    4470.2041    1656.2415    1503.3996    -2357.853 
  103000    273.47271   -160.93471   -125.33814   -160.93471            0    2998.6141    18.311758    22.704846    19.358851   0.19487216   -6.8539394   0.14773729    8048.7453   -108.01488    5238.2448    3865.6125   -2272.0474   -1363.3912   -2434.2306 
  103500    272.87187   -161.62013   -126.10177   -161.62013            0    5945.2426    18.198561    22.449559    19.327427   0.13099595   -6.9342903   0.18342087    7896.2142    5227.7809    6576.9913    6030.9555   -3130.5099    346.54108   -1644.2989 
  104000    277.42179   -161.37696   -125.26636   -161.37696            0    5278.4046     18.06411     22.48036    19.477517 -0.045683409   -7.0002822   0.11119005    7909.5805    2373.6778    5579.1739     7882.362   -426.42434    -34.20741    1381.7935 
  104500    265.86207   -161.14674   -126.54081   -161.14674            0    3294.4096    18.067801     22.71033    19.623354  -0.26234465   -7.0736144 -0.033300127    8051.9668    4993.9671     1789.639    3099.6227   -118.83933    3368.8351    6732.2096 
  105000    274.53366   -159.65498   -123.92031   -159.65498            0    9066.3192    18.036743    22.679903    19.233376  -0.33105244   -7.0206719 -0.041842716    7867.8273    12163.987    9205.0592    5829.9114     983.5323   -309.56313   -521.55874 
  105500    271.39225    -159.4263   -124.10054    -159.4263            0    5732.6402    18.234836     22.90454    19.195187  -0.19605176   -6.9580759   0.11261011    8017.0719    6661.0703    6063.8968    4472.9534   -4644.6797    636.21089   -1553.9513 
  106000    278.63849   -160.98467    -124.7157   -160.98467            0    8549.7326    18.151193    22.881174    19.237059 -0.0029338239    -6.808713   0.15521887     7989.547    9507.0132    7650.2187     8491.966   -728.59287    639.99682   -2632.9029 
  106500    273.72074   -160.74437   -125.11552   -160.74437            0    6075.2778    17.998221     22.75449    19.309067   0.10366209   -6.6356267   0.08113695     7907.842     5791.884    5563.8005    6870.1489    2046.9033    653.66958   -3232.0913 
  107000    269.04271   -161.24718   -126.22724   -161.24718            0    2807.7123    18.055613    22.788899    19.490771  0.068346918   -6.5648665 -0.097939152    8019.8194     4714.346    494.70675    3214.0842    -1943.876   -1483.6406    -907.6912 
  107500    276.95252   -160.81294   -124.76343   -160.81294            0    5864.5855    18.048062    22.538108    19.396285  0.015559036   -6.5339753  -0.13395481     7889.811    4695.2428    3314.6754    9583.8382    2118.9196   -2680.1231    726.82132 
  108000    283.62886   -161.71995   -124.80141   -161.71995            0     6482.156    18.259571    22.518771    19.484178  0.016516917   -6.6352752 -0.044626313    8011.5647    2792.1627    8668.3336    7985.9715    -2008.349   -2112.8132   -2212.8832 
  108500    285.28321   -160.80765   -123.67377   -160.80765            0    7677.8408    18.257383    22.514805    19.378532  0.041074989   -6.8202447   0.16318173    7965.7672     6062.813      9797.97    7172.7394   -3105.4646    1620.7616   -2195.1638 
  109000    273.32275    -161.0694   -125.49235    -161.0694            0    10400.777    18.118791    22.743426    19.308594 -0.058627259   -7.0098747    0.2548024    7956.7506    11862.021    8382.2603    10958.051   -2603.7327   -1093.6752      1791.61 
  109500    273.06656   -160.59965   -125.05595   -160.59965            0    5545.2134    17.900404    23.027412    19.339205  -0.28928026   -7.1861061   0.11451092    7971.6198    5259.4167    4878.7617    6497.4617    131.99235   -677.46572    67.226522 
  110000    273.47267   -161.11145   -125.51489   -161.11145            0    7505.9789    17.811397    23.044907    19.285543  -0.40495903   -7.2758118  0.010643392    7915.9823    7230.8878    9106.0014    6181.0476   -1885.5636   -316.74426   -2946.2805 
  110500    269.88972   -162.08151   -126.95133   -162.08151            0    5340.8524    18.102512    22.995405    19.239512  -0.20241619   -7.2337848  0.046890824    8008.9204    9852.0401    2368.5939    3801.9233    301.57051   -790.17159   -528.99244 
  111000    273.41756    -160.4806   -124.89121    -160.4806            0    7385.3466    18.262745    22.615436    19.174712   0.15534109   -7.0460629  0.055646462    7919.5389    8992.9969    8306.9321    4856.1107   -185.99947    -1041.417    493.48647 
  111500    269.12793   -160.73014   -125.69911   -160.73014            0    7082.1605    18.331759    22.439063    19.372592   0.28291182   -6.8921814 0.0035759688    7968.8673    8221.6874    8400.1817    4624.6124   -203.43304    1323.1593   -2082.2571 
  112000    270.02048   -160.36224   -125.21503   -160.36224            0    8355.9612    18.137115    22.390872    19.553755   0.19711578   -6.7145815  -0.12874125    7940.8933    5756.0106    11662.868     7649.005   -2924.9255    551.68643    1791.0714 
  112500    268.81549   -161.91892   -126.92856   -161.91892            0    5531.3473    17.995744     22.56856    19.542209  0.049055717   -6.6140524  -0.16789728    7936.8343    7532.0491    6544.8789     2517.114   -1489.7036   -1144.2506    1464.7521 
  113000    270.43492   -161.59778   -126.39662   -161.59778            0     6551.856    18.103541    22.742935    19.310604  -0.13701862   -6.6920238 -0.036816609    7950.7095    1760.9165    6851.3004    11043.351   -130.80554   -39.269882    1750.4877 
  113500    270.42536   -160.64171    -125.4418   -160.64171            0    9314.7117    18.208064    22.849268    19.110956  -0.25957221    -6.853566  0.099877144    7950.9398    9948.9001    8175.0713    9820.1638    3405.6018   -1499.7011    4654.1008 
  114000    273.38406   -161.57482    -125.9898   -161.57482            0    9386.2653    18.135375    22.831833    19.194623  -0.24871738    -6.925623    0.2198341    7947.7998    8112.3445    11195.627     8850.824    1050.0627    3383.3857    103.47534 
  114500    275.05046   -159.61394   -123.81201   -159.61394            0    5876.9064    18.061712    22.699084    19.494189  -0.22885866   -7.0191344   0.18946088     7992.312    8740.6509    4799.1419    4090.9264    423.00346     1837.279    398.43637 
  115000    280.90824   -161.07036   -124.50595   -161.07036            0    6257.6474    18.055667    22.521409    19.612523  -0.12333911   -6.9832431 -0.019275236    7975.2178    8112.6559    7547.5494    3112.7368   -370.42989     1493.884   -1359.8558 
  115500    278.71497   -160.71454   -124.43561   -160.71454            0    9593.6456    18.168348    22.343373     19.47572  0.052069768   -6.9077607  -0.17011693    7906.0162    6585.9403    11499.332    10695.664   -1762.7623    505.72461     2423.799 
  116000    265.40873   -160.98895   -126.44203   -160.98895            0    723.11196    18.437931    22.530941    19.437363   0.20472687   -6.8917399  -0.16277067    8074.7458     -1907.61    3515.0691    561.87679   -3113.9301   -294.22993   -1815.5384 
  116500    283.12155   -160.24818   -123.39567   -160.24818            0    8993.4342    18.242921    22.498329     19.13958   0.17429763   -6.7549552 -0.087818189    7855.5578    8396.7789    7750.3142    10833.209    1728.2503    213.16705    905.25939 
  117000    264.10695   -162.04313   -127.66566   -162.04313            0    3671.4785    18.105779    22.892376    19.307188  0.043924902   -6.6590916  0.051927447    8002.5262    2535.0343    4028.3057    4451.0956    1187.1466   -2418.2116   -1252.6379 
  117500    272.32248   -162.00269   -126.55584   -162.00269            0    6261.6214    17.868399    22.942736    19.397012 -0.099621855   -6.6277652   0.13863004    7951.8041    6490.9919    5825.6749    6468.1975    1961.1106    2300.4834    351.31878 
  118000    264.00754   -161.07844   -126.71391   -161.07844            0    8529.1001    17.927201    22.797817     19.35429  -0.16320559   -6.7232848   0.15372346    7910.1182    10273.399    11134.741    4179.1604    13.434208   -3996.9309   -1820.9146 
  118500    282.74637    -162.0432   -125.23953    -162.0432            0    5044.4891    18.197789    22.809679    19.238937  -0.13575682   -6.9423077   0.14080652    7985.8081    1020.5878    5087.5638    9025.3158   -164.38711    266.20801   -215.62196 
  119000     281.9419   -162.84857   -126.14961   -162.84857            0     6140.827    18.284516    22.672794    19.242633  0.016603151   -7.1141201   0.10411356    7977.2465    6177.7887    6540.3274     5704.365    -1279.995    872.26634    -2107.133 
  119500    280.79787   -161.07763   -124.52758   -161.07763            0    4296.6718    18.088733    22.534052    19.433689   0.18101231    -7.144142 0.0044549171    7921.4137    2658.1163    3574.9172     6656.982   -1779.9533    567.09635   -76.710665 
  120000    268.34452    -160.1829   -125.25385    -160.1829            0    5767.1964     17.96069    22.649694     19.70483   0.12210275    -7.111946  -0.13994056    8016.0067    8311.1105    6091.5011    2898.9776    3101.3849   -483.03959      3358.24 
  120500    273.03678   -160.91471   -125.37488   -160.91471            0    7093.6241    18.020719    22.628917    19.470068 -0.035578683   -7.0137572   -0.2501414     7939.686    9686.5482    8179.3096    3415.0145   -1387.0991    2488.8025    457.61945 
  121000    270.45473   -160.64996   -125.44623   -160.64996            0    6272.1422    18.236298    22.686093     19.14444  -0.12252174   -6.8927389  -0.19500819    7920.2532    9292.4554    3918.8677    5605.1035    2195.3459   -2776.2528   -1019.1984 
  121500    269.65029   -160.69565   -125.59663   -160.69565            0    5649.5693    18.334406    22.832673    19.170195  -0.02811351   -6.8059819  0.068796338    8025.0945    4399.1026    3916.5758    8633.0295   -1565.1562   -1801.0691   -913.46297 
  122000    277.70209   -159.80629   -123.65921   -159.80629            0    7353.9738    18.051629    22.703466    19.257645 -0.019621567   -6.6608422    0.2478818    7892.4482    9336.0603    5704.9485    7020.9126    3600.4622    -1504.221    20.978128 
  122500    288.44141   -160.61004   -123.06507   -160.61004            0    6144.9595    17.983465    22.735477    19.515901 -0.097871164   -6.6843015   0.21784508    7979.3229    4428.0428    8090.0267     5916.809    1.5776359   -378.72581    792.78683 
  123000    282.59168   -161.74259   -124.95905   -161.74259            0    7585.4377    18.006478    22.700903    19.575571  -0.10209768   -6.7965616  0.027581053    8001.7751    10449.443    4529.3329     7777.537    4371.0764    -16.87324    4017.9593 
  123500    266.71549   -159.56994   -124.85293   -159.56994            0    5635.2528    18.094744    22.526008    19.323776  -0.05367942   -6.9630845  -0.11788406    7876.4162    5884.8588    3947.6697    7073.2298   -216.84266    -1060.535     -1898.42 
  124000    279.94741   -161.61478   -125.17543   -161.61478            0    6834.6051    18.255591     22.70284    19.340518     0.152839   -7.0927458   -0.1423755    8015.7504    8417.9619    6006.3916    6079.4617    1968.5216    152.77681    515.44589 
  124500     284.2014   -161.04039   -124.04733   -161.04039            0      6400.14    18.147048    22.627603    19.319652   0.29981395   -7.1026254 -0.063213083    7933.1166    2272.3853    7211.2381    9716.7966   -1181.3656    1784.6992    1062.4343 
  125000    289.64106   -161.51654   -123.81542   -161.51654            0    4688.8754    18.015214    22.596086    19.407724    0.1773145   -6.9516924   0.10386797    7900.3667    6489.4291    3127.6872    4449.5099   -1304.6778    117.67803    2915.7741 
  125500    277.55086   -160.39518   -124.26778   -160.39518            0    5205.8619    18.061571    22.836025    19.603823 -0.085438128    -6.771576   0.13056372    8085.6848    7687.8582    5123.7558    2805.9718   -1713.2716    2815.7689    1411.3208 
  126000    277.97302   -160.70885    -124.5265   -160.70885            0    5654.0143    17.974538    22.630662    19.371528  -0.32509492   -6.5421597  0.053650412    7879.8672    5808.7836    5823.5415    5329.7179    3551.9046   -1318.0788   -404.44577 
  126500    268.52427   -162.21287   -127.26041   -162.21287            0    4548.2812    18.098821    22.776273    19.388156    -0.349328   -6.4209266 -0.023495109    7992.2569    3147.5338    5351.6573    5145.6523    2317.5854   -2308.2577   -1862.3027 
  127000    277.63424   -160.89711   -124.75886   -160.89711            0    6023.4756    18.021648    22.752335    19.384132  -0.13792353   -6.3995882 -0.064369791    7948.1642    10077.685    2609.7424    5382.9999    2287.6619   -980.09498   -2000.9581 
  127500    276.07191   -161.26696   -125.33207   -161.26696            0    6882.0464    18.012577    22.690438    19.384214   0.30302778   -6.5262355 -0.068296302    7922.5851    8183.5083    5126.9834    7335.6474    571.56627    395.78866    1652.5443 
  128000    276.59512   -161.34692   -125.34393   -161.34692            0    5132.4327     18.06425    22.740192    19.435783   0.55473103   -6.7982976 -0.057374092     7983.919    5346.5225     4568.858    5481.9177   -3592.1734    25.678409    192.40146 
  128500    275.66689   -161.00497    -125.1228   -161.00497            0    4567.7051    18.006438    22.703419    19.341071   0.38491572    -7.043374 -0.033323304    7906.7788    2419.6488    4101.1642    7182.3021    -622.9292    1726.9239   -922.75749 
  129000    281.23513   -160.73745   -124.13049   -160.73745            0    5467.8764     18.14685    22.672034    19.368623   0.01170863   -7.2451184 -0.0087251147    7968.7554    6063.6407    3110.7541    7229.2342   -1973.5193    1023.4727   -2066.5693 
  129500    280.86075   -160.83239   -124.27416   -160.83239            0    4678.0324    18.145901     22.58466    19.403173  -0.34751916   -7.1838522   0.10349106    7951.7889    4434.8515    4999.9729    4599.2727   -513.72092    1022.8557    -798.2639 
  130000    279.38717   -162.72554   -126.35911   -162.72554            0    6898.2268    18.128833     22.57861    19.471865  -0.41042824   -6.9893952   0.25823647    7970.2987    6525.2582    5949.3164    8220.1059    120.58578    -998.4801   -983.95195 
  130500    274.36475   -160.52795   -124.81527   -160.52795            0    2766.4277     18.08883      22.6049    19.433365  -0.22695392   -6.7138095   0.28890428     7946.229    1469.5448    2687.7743    4141.9641    887.64126    1230.9723   -954.76394 
  131000    273.31508   -162.40627   -126.83023   -162.40627            0    6936.8886    18.105526    22.660477    19.345899  0.046690498   -6.4632785  0.096151385    7937.2325    4152.3899    9143.4689    7514.8069   -1072.3352   -65.947928    751.22613 
  131500    261.78677   -161.59818   -127.52272   -161.59818            0    7266.5758    18.139448    22.709656    19.351706   0.25148398   -6.3627631  -0.10858976    7971.7534    5407.4434    8997.9904    7394.2936   -2972.8621    1062.5244    -4409.762 
  132000    269.75439    -159.9239   -124.81133    -159.9239            0    8600.9689    18.031652    22.661454    19.372121   0.32105284   -6.3570602  -0.25367217    7915.9027    5304.6323    9186.9344     11311.34   -17.005544    3189.3453    591.32561 
  132500    282.38624   -160.64061   -123.88382   -160.64061            0    7935.4155    18.087733    22.698059    19.558281   0.26623487   -6.5979493   -0.2135009    8029.7778    10035.067    7159.5015     6611.678    608.06543    1420.2502    1.7732744 
  133000    274.42644   -158.57555   -122.85484   -158.57555            0    7503.1172    18.094318     22.48985    19.508266 -0.015893239   -6.9974723 -0.021496751    7938.6647     4684.519    11646.627     6178.205    1115.5197    620.92932    1211.4372 
  133500    285.80255   -161.16329   -123.96181   -161.16329            0    4779.4839    18.236218    22.421618     19.46558  -0.31076835   -7.3529398   0.21225235    7959.1934    2681.3157     5572.554    6084.5821    -312.0328   -62.223289    442.48383 
  134000    267.40759   -162.70857   -127.90147   -162.70857            0    3255.6821    18.255536    22.455353    19.367787  -0.38640823   -7.4083822   0.31749738    7939.5238     5955.947    4008.8393   -197.73999    4054.0777    2710.0592   -1190.9541 
  134500    265.51132   -160.83383   -126.27356   -160.83383            0    7496.2564    18.159999    22.596268    19.323657  -0.24716366   -7.1993337   0.25559781    7929.4278    5700.9322    8406.9171    8380.9198    224.19022   -3422.1819   -5642.7729 
  135000    266.54244   -161.90571   -127.21123   -161.90571            0    7389.8468     18.00689    22.798075     19.44435 -0.026337231   -6.8823147  0.030059219    7982.3417     6301.378    6987.9648    8880.1977   -1457.9652    872.18066     4252.175 
  135500    268.45754   -160.82251   -125.87874   -160.82251            0    3071.7937    17.865162    22.786589    19.412529   0.14207277    -6.590585  -0.13598196    7902.5708       5074.1    904.36586    3236.9152   -130.22267   -1885.8087   -874.29863 
  136000    285.44242   -162.04562   -124.89102   -162.04562            0    5788.2551    18.064331    22.863668    19.315473   0.19500433   -6.5374193  -0.11162173    7977.6161    8126.1014    4991.6455    4247.0182   -3681.0117    414.47561    400.54309 
  136500    283.91471   -161.21667   -124.26092   -161.21667            0    5268.0469    18.146318    22.729268    19.219706    0.1172628   -6.5863033 -0.018933226    7927.2163    2885.7921    5908.3557    7009.9931   -1232.5877   -233.03529   -1647.6233 
  137000    282.12815   -161.73615   -125.01295   -161.73615            0    6551.0653    18.130302     22.65272    19.378932  -0.14484334   -6.6694979  0.094076133    7958.9399    8356.6325    7955.8123    3340.7511   -981.47139     923.0455   -1702.6454 
  137500    275.68445   -159.06445   -123.17999   -159.06445            0    4466.1046    18.058135    22.642383    19.585178  -0.42464977   -6.8022974   0.18384901    8007.9718    3160.4715    2220.0908    8017.7516    1412.7233   -1128.0615    419.52311 
  138000    283.74536   -161.95985   -125.02615   -161.95985            0    2709.9667    18.053436    22.456154    19.558445  -0.49358555   -7.0126464   0.15094709    7929.2036    1700.3498    3321.8301    3107.7203   -537.92582   -76.301795   -195.34259 
  138500    270.50308   -160.82538   -125.61536   -160.82538            0    3249.1631    18.290667    22.383092    19.489759  -0.25226074   -7.3222749   0.18235614    7979.1399    4029.3059    2658.8721    3059.3112    2216.6309   -517.48399    1316.4678 
  139000    264.65656   -162.25504   -127.80603   -162.25504            0    2877.3294     18.38176    22.534104    19.309871   0.14080604   -7.4042109   0.19626249    7998.4668    1835.5057    4372.1539    2424.3287    1883.5638    631.79003    861.22129 
  139500    270.40038   -161.56561   -126.36896   -161.56561            0    6370.0941    18.146485    22.626753     19.22388   0.36671387   -7.2183356  0.052311079    7893.2491    6476.0534    5663.9921    6970.2366    966.41273    1208.3898    1817.7604 
  140000    271.09169    -160.0775   -124.79085    -160.0775            0    7626.1848    17.980971    22.899425    19.450526   0.28597111   -6.9580404  -0.17483117      8008.83    8276.0135    7380.6169    7221.9241   -4132.2209    437.47333    11.572765 
  140500    275.46873   -159.13037   -123.27399   -159.13037            0    5530.6067    17.889054    22.922883    19.465713  0.029748223   -6.7045311  -0.27090662    7982.2794    662.56232    5495.0483     10434.21    1498.0718    1525.9394   -1423.8956 
  141000    271.34383   -160.75617   -125.43671   -160.75617            0    7420.6749    18.028916    22.769672    19.334447 -0.070417194   -6.6084886  -0.12965078    7937.0323    7383.4445    6517.0542    8361.5261   -1894.5099    552.01226   -396.07489 
  141500    265.32757   -160.50332   -125.96696   -160.50332            0     7363.929    18.201099     22.72466    19.260806  -0.05581992   -6.5920863   0.13526657    7966.5347    4108.9487     7213.173    10769.665    1038.4758   -1431.3458    894.29542 
  142000    281.64141    -162.6659   -126.00606    -162.6659            0    10241.076    18.164747    22.642032    19.324986 -0.098914334   -6.6312795   0.29140998    7948.1111    9438.1343    9325.2033     11959.89   -1259.6827   -857.83686   -2255.7861 
  142500    280.00812   -160.50193   -124.05469   -160.50193            0    7746.6943    18.017093    22.668926    19.493019  -0.22954591   -6.7145334   0.15954473    7961.4981    4939.5899    9482.4997    8817.9933   -1800.7455   -2928.0842    -2355.591 
  143000    282.39852   -160.85661   -124.09822   -160.85661            0    6882.8772    17.910833    22.808092    19.519505   -0.1856466   -6.8027303 -0.024116247    7973.9507    7861.8659    6923.4988    5863.2668   -736.90835    373.65187   -1756.6266 
  143500    272.56664   -160.20014   -124.72151   -160.20014            0     7344.807    17.956397    22.882762    19.329368   0.04406582   -6.9374848  -0.11347669     7942.282    4892.3079    10596.753    6545.3598    1759.1299    3895.9484    1090.9916 
  144000    283.06129   -162.10758   -125.26291   -162.10758            0    1470.9356    18.148354     23.04463    19.166069   0.17009966   -6.9681007 -0.021102422    8015.6737   -748.85461     586.5683    4575.0931     12.55279    1126.8913    1389.0153 
  144500    272.86981   -160.48653   -124.96844   -160.48653            0    6941.0118    18.177753    22.812202    19.069451    0.1463641   -6.9109533   0.10897907     7907.617    3832.9828     8605.885    8384.1675    -492.6054    1455.7804   -1826.1782 
  145000    279.26971   -160.40323    -124.0521   -160.40323            0    5639.8376    18.162836    22.670138     19.47258  0.073724962   -6.7988464   0.11817919    8017.9131    6153.2902    6917.3459    3848.8768   -634.06728   -64.215746   -2269.9539 
  145500    291.17057   -161.40629   -123.50608   -161.40629            0    8247.5693    18.018924    22.498483    19.653052  -0.10866956   -6.6771117 -0.033077964    7967.3167    9794.5362    7552.4961    7395.6757   -655.46105    2127.6709    632.63423 
  146000    275.44228   -161.80448   -125.95154   -161.80448            0    5749.4059    18.060077    22.388687    19.583457  -0.15923558   -6.7030154  -0.12615067    7918.4029    7703.6813    4206.3853     5338.151    2448.0748   -2459.8291    1324.8212 
  146500    269.77018   -161.92435   -126.80972   -161.92435            0     1857.814    18.281141    22.576091    19.370551 -0.042785439   -6.8143576 -0.0094921862    7994.5497   -1300.3901    3555.9299     3317.902    1894.3849    246.53537   -538.76536 
[...]
  365000    273.30706   -160.60742   -125.03241   -160.60742            0    4579.8279    18.033649    22.735895    19.385853 -0.078369559   -6.9590292   0.45404261    7948.4161    5810.6833     1811.674    6117.1264   -3975.6624   -165.11673   -1957.5512 
  365500    273.22542   -161.52217   -125.95779   -161.52217            0    3556.6494    18.095041    22.850653    19.180075  0.034266544   -7.1396379   0.28303856    7930.6447    226.32133    3814.3372    6629.2897    599.37201    204.73606   -331.98316 
  366000     275.1443   -160.00599   -124.19184   -160.00599            0     3648.151    18.074109    23.065778    19.227797 -0.029853564   -7.1833792 -0.096817209    8015.9412    8636.8485    2251.1818    56.422792   -2485.1753    1441.4834   -3098.3609 
  366500    272.76748   -160.88234   -125.37757   -160.88234            0    8609.3512    17.979688    22.858088     19.30208 -0.096983697   -7.0845102  -0.30635875    7932.7937     7539.021    7436.0666    10852.966    119.52313    -1574.503    2684.2406 
  367000    275.56117   -161.76677   -125.89836   -161.76677            0    5468.8048     18.04843    22.684605    19.437745 -0.034521928   -6.9230826  -0.20561377    7958.2309     7720.632    7001.4792     1684.303    118.06967   -1131.3371   -3444.9254 
  367500    287.00781   -162.28084   -124.92248   -162.28084            0    3452.4218    18.193359    22.475799    19.468786   0.10240677   -6.7585017  0.093164301    7960.9869    2243.8235    4226.2816    3887.1603   -2604.5705   -2424.7387    2310.6097 
  368000    283.62333   -161.42804   -124.51021   -161.42804            0    5228.0649    18.255235    22.418124    19.415706  0.092427478   -6.6143713    0.1880653    7945.8412    4251.1691    5021.2403    6411.7854   -920.09696   -1315.1915   -509.19297 
  368500    272.65786   -160.80833   -125.31783   -160.80833            0     6181.916     18.23842     22.53839     19.41377 -0.024695661   -6.5677016  0.086414377    7980.3139    3579.7912    6588.3063    8377.6505   -515.07463    2636.7495     773.7217 
  369000    274.48363   -160.97087   -125.24272   -160.97087            0    9221.1036    18.038335    22.612681    19.375544  -0.16153593   -6.6373169 -0.080445979    7903.1894    14045.467    6293.2242    7324.6195   -252.83495   -1710.9805   -219.41513 
  369500    281.15197   -161.63838   -125.04225   -161.63838            0    5835.3507    18.002148    22.891006    19.401575  -0.26290123   -6.9327457  -0.16436947    7995.1422    7511.2329     5601.101    4393.7182    1188.9322    1670.5228   -2421.0167 
  370000    281.98053   -159.99102   -123.28703   -159.99102            0    3637.6871    17.947415     23.04979    19.225907  -0.14600159    -7.243954 -0.076418163    7953.4528    7378.4154    11.929112    3522.7167    3903.8416     -663.678    3749.2165 
  370500    275.02659   -161.58328   -125.78445   -161.58328            0    8261.3201    18.047756     23.04753    19.119532  0.053710692   -7.4746732   0.12861072    7952.8877    5679.9141    7368.1521    11735.894   -1387.1704   -743.75187    57.133569 
  371000    272.72972   -161.42133   -125.92147   -161.42133            0    6604.7543    18.090397     22.89507    19.262353  0.058269707   -7.4185195   0.20899926    7978.0986    5360.3246    5826.5847    8627.3534   -1281.1656    652.10451   -22.800772 
  371500    271.29926   -161.81668   -126.50302   -161.81668            0    4473.5164    17.957606    22.551751    19.453476  -0.10639811   -7.0687369  0.077419323    7878.1803    1053.3833    7723.8175    4643.3483   -50.341693    3767.7771   -1963.7066 
  372000    274.27001   -161.30448   -125.60414   -161.30448            0    6640.5509      18.0933    22.466247    19.602746  -0.20539838   -6.7736563    -0.101503    7968.2918    5680.1271    6645.0467    7596.4787   -1709.0855   -410.77711     863.1066 
  372500    262.85757   -160.91126   -126.69641   -160.91126            0    6577.3681    18.160327    22.503133    19.482835  -0.17481464   -6.5890391 -0.029307746    7961.9387    4224.5453    7171.2383    8336.3206    689.46179    93.290405   -1119.1501 
  373000    261.40625   -163.32972   -129.30378   -163.32972            0    9953.0059    18.139423    22.493398    19.357874 -0.091759928   -6.5765686  0.054668493    7898.3466    7936.4249    10965.257    10957.335   -1302.3529   -3184.0668    641.91879 
  373500    281.12145   -163.55761   -126.96545   -163.55761            0    6500.7152    18.113746    22.656208    19.358537 0.0087368555   -6.7090454   0.11003804    7944.5266    5269.0139    7380.3692    6852.7625   -1194.8817    1680.6477   -209.76093 
  374000    277.22279   -160.51082   -124.42612   -160.51082            0    1549.7718    18.121435    22.818479    19.333527  0.065556249    -6.886026  0.099199655    7994.4831   -658.80983    4788.4513      519.674    1672.6898   -467.39871    1475.4944 
  374500    291.23044   -160.88255   -122.97455   -160.88255            0    6539.0331    18.030799    22.791926    19.232403  0.029924764   -7.1146974  0.044070318    7903.6841    6707.9808    7174.2379    5734.8806    1123.2129    2796.8642   -2370.3613 
  375000     288.8737   -160.75185   -123.15061   -160.75185            0    6153.9988    18.152738    22.997094    19.323342 -0.044806422   -7.3441862 -0.065368949    8066.7266    3420.0191    8124.1257    6917.8517   -1829.1249    1300.5209     1544.705 
  375500    278.91529   -161.14608   -124.84108   -161.14608            0    6383.9636    18.075271    22.724111    19.222815 -0.095531505   -7.3274861 -0.077613266    7895.6647    8031.8707    4577.7868    6542.2332    604.34328    177.48787   -597.58875 
  376000    272.11854   -160.82588   -125.40558   -160.82588            0    3128.6535     18.15994    22.586823    19.385465  -0.05175637   -7.1664039  0.092278634      7951.44     3551.668    2878.1253    2956.1674   -2270.1288   -504.45105   -2244.5119 
  376500    270.70901   -158.74172   -123.50489   -158.74172            0    8113.3761    18.320694    22.545604    19.601056  0.020512024   -6.9613747   0.21119829    8096.2376     7217.931    8441.1284     8681.069    130.59309   -196.60106   -2398.6166 
  377000    263.33979   -160.97538   -126.69777   -160.97538            0    7416.3821    18.122696    22.340686    19.440647  0.036414806   -6.6229432   0.20842801     7871.002    9235.3431    10163.705    2850.0985   -932.11497    241.15951   -471.50739 
  377500    267.97438   -161.58057   -126.69969   -161.58057            0    5995.0326    18.149952    22.661768    19.431235   0.00337835   -6.5199463   0.10310035    7992.2614    4927.5762    8387.6543    4669.8672     -1321.98     254.9957    900.19632 
  378000    272.98614   -160.81695   -125.28372   -160.81695            0     8848.857    18.140606    22.830776    19.298669 -0.059509415   -6.5867571 -0.021338414    7992.8157    5592.1347    10442.865    10511.571    76.755863    1859.3878   -1987.9184 
  378500    270.62641   -162.37912   -127.15304   -162.37912            0    7504.6983    17.971599    22.919818    19.131468 -0.084739609    -6.695249 -0.047848514    7880.3622    3574.7133    9808.4853    9130.8963    416.51328   -715.70561    2461.3053 
  379000    273.80129    -160.7871   -125.14777    -160.7871            0    5739.5703    17.966578    23.143104    19.313303 -0.088972421   -6.8935302  0.052313616    8030.5176     3991.074    7927.6356    5300.0014    1185.1936    2715.2568    70.902501 
  379500     271.4595   -161.22095   -125.88644   -161.22095            0    3413.8719    17.985705    22.935282    19.351362  -0.13345897    -7.060899   0.18854902    7982.5768    4727.5667    840.69688    4673.3522   -2665.5605   -117.74574   -5689.8008 
  380000    274.79317   -161.89159   -126.12315   -161.89159            0     5947.737    18.066699    22.619824    19.268391 -0.082640591   -7.1228037   0.22592704    7874.3276    6019.9547    5068.1118    6755.1445    3824.5044   -988.14006     1174.439 
  380500    275.92631   -163.37898   -127.46304   -163.37898            0    3963.1226    18.343519    22.517037     19.42755 -0.040084858   -7.1140993   0.12330646    8024.3883     5370.627    2905.5922    3613.1487    881.16756    70.667893   -4866.8269 
  381000    277.18938   -161.64367   -125.56332   -161.64367            0    6420.5467      18.2434    22.360841    19.428219 0.0050707234   -6.9243932  -0.05988808    7925.5043    7932.9514    6430.3925    4898.2961   -427.57489   -943.14692    1476.7395 
  381500    284.49751   -159.48505   -122.45345   -159.48505            0    4486.0276    18.112733    22.603723    19.526674  0.078385529   -6.6878254   -0.1475666    7994.5171   -1645.5994    7800.8295    7302.8529    3177.9567   -892.08561    722.74863 
  382000    275.61052   -160.40685   -124.53201   -160.40685            0     4528.229    17.995402    22.864956    19.495293   0.10684162    -6.510297  -0.15855266    8021.6124     7848.505    2672.1872    3063.9948   -4230.9966   -155.43937    -2470.731 
  382500    283.17749   -159.08915   -122.22936   -159.08915            0    5491.2802    17.812059    22.933088    19.252537 -0.030291122   -6.3660008  -0.13043851    7864.3826    5119.7804    8064.2976    3289.7628   -1827.5622    1785.9317    4840.2543 
  383000    280.58499   -160.66742   -124.14508   -160.66742            0    3462.0141    18.110523    23.258779    19.175837   -0.2263351    -6.547258  0.063167719    8077.4122    2720.6153    3541.4157    4124.0114   -435.41416   -1179.0867    1326.1108 
  383500    290.34264   -159.27425   -121.48181   -159.27425            0    8257.6692    18.184135    23.109686    18.991502    -0.312892   -6.7288719   0.31137778    7980.7925    8203.7935    5949.9684    10619.246   -1064.6644   -1801.5298    1500.3034 
  384000    282.82164   -162.05761   -125.24414   -162.05761            0    7436.0964    18.077576    22.807202    19.111954  -0.27240756   -6.8645191   0.35632685     7879.838    7345.0406    6864.4273    8098.8212    1260.5394   -1312.7775   -218.86293 
  384500    274.51724   -161.78223    -126.0497   -161.78223            0    2595.2823     18.10685    22.731086    19.493855  -0.25257703   -7.0052278   0.20670427    8023.4437    2893.4076    3943.1987    949.24049    2119.7615   -369.82757   -532.73166 
  385000    272.81236   -162.06886   -126.55825   -162.06886            0     8949.286    18.077582    22.495616    19.530486  -0.16063849   -7.0006291  0.040432998    7942.3913    11869.821    6549.2572    8428.7797    776.21276   -3312.4086   -2258.7175 
  385500    267.82305   -162.52132   -127.66014   -162.52132            0    5737.1515    18.172485    22.407403     19.45416 -0.019086452    -6.995821  -0.04529326    7921.6992    2608.1904    7605.2492    6998.0149   -3195.4889    2956.4492    -2339.668 
  386000    274.67575   -161.35108   -125.59792   -161.35108            0    1214.8087    18.286202    22.586408    19.438714   0.10438724   -6.9334827 -0.095702032    8028.5705    845.76436    1065.7395    1732.9222    2327.4767   -1958.6615     46.86367 
  386500    285.27082   -160.34029   -123.20802   -160.34029            0    8300.2947    18.073456    22.639744    19.299237     0.228706   -6.6643866 -0.082396143    7896.8312    10220.224    6827.9299    7852.7307    277.63936   -2038.5193    478.59126 
  387000    270.34167   -160.69045   -125.50144   -160.69045            0    4600.1769     17.99554    22.875582    19.381534   0.15387163   -6.4399684 -0.034706011    7978.5723    7282.6391    5395.9945    1121.8973   -920.96829    -1541.022   -1351.8195 
  387500    276.52907   -161.19503   -125.20063   -161.19503            0    3744.6836    17.942869    22.953688    19.316443  -0.10284619      -6.3028  0.064165464    7955.5739    4939.7749    2078.6968    4215.5792     2139.927    1501.0143   -1706.4982 
  388000    264.44647    -162.6481   -128.22643    -162.6481            0    5467.3459    18.009456    22.852735    19.230092  -0.39821164   -6.4232325   0.14774051    7914.4389     7979.334    3373.9659    5048.7378   -1973.8476   -3123.7905   -4155.5835 
  388500    267.44191   -161.92924   -127.11767   -161.92924            0    6046.0961    18.179125    22.779047    19.239787   -0.4854097    -6.747737   0.27539714    7967.2564    8408.0001    4643.1205    5087.1677   -1220.3256    2539.3916   -100.18024 
  389000    269.68535   -162.48334   -127.37975   -162.48334            0    4459.9506    18.188666    22.615454    19.306664   -0.2898777   -7.0715029   0.31757015    7941.6986    2347.9879    4788.0781    6243.7859    1238.3504    2409.5129    2269.4044 
  389500    274.31216   -162.57813   -126.87229   -162.57813            0    7570.5234    18.102374    22.488065    19.532731 -0.0063512966   -7.3157577   0.11969768    7951.5281    8535.7066    8164.6377    6011.2258    618.22158   -398.08539    1289.2175 
  390000    263.15071   -161.61058   -127.35758   -161.61058            0    6933.8918    18.015611     22.54045    19.599634   0.14706192   -7.3500695  -0.21379252    7959.0193    8659.7419    7724.1183    4417.8152   -1885.4262    838.64127   -212.04464 
  390500    264.79108   -159.52059   -125.05406   -159.52059            0    6681.5133    18.053336    22.601889    19.462074    0.1811433   -7.2100993  -0.31284522    7941.2949    11429.491     6506.424    2108.6253   -280.09399   -1149.7294     2116.158 
  391000    272.97912   -159.54075   -124.00844   -159.54075            0     4766.512     18.18174    22.741673     19.35387   0.19756167   -6.9520654  -0.14385554    8002.4998    2809.4525    5725.7141    5764.3695    1479.9582   -986.39102     835.9943 
  391500    283.79231   -158.61661   -121.67679   -158.61661            0    8223.1621    18.181296    22.668465    19.257937  0.099895638   -6.7217774  0.093517983    7937.0057    8414.9088     8082.241    8172.3365   -1589.2726    1901.5903   -1853.9987 
  392000    262.59981   -162.07581   -127.89452   -162.07581            0    5580.9782    18.057035    22.807047    19.353614 -0.090441571   -6.4630357   0.22728056    7970.3531    7718.3094    5599.1057    3425.5194    1198.7878    -1838.124   -2535.9195 
  392500    270.49904   -162.52773   -127.31823   -162.52773            0    6642.0039    18.013314    22.781885    19.412965  -0.18818598   -6.3734841   0.23938848     7966.639    7420.2667    3971.1289    8534.6161   -908.88279   -649.50522    184.71831 
  393000    282.51439   -160.87542   -124.10195   -160.87542            0    5509.3368    18.010508    22.639867    19.451771  -0.16694867   -6.4926267   0.12080533    7931.5668    6237.4312    6648.6272    3641.9521    409.78653    47.851913    905.01091 
  393500    290.21448   -159.63525   -121.85949   -159.63525            0     2533.831    18.155603    22.666735     19.49795  -0.09258242   -6.7679395  -0.10216699    8023.9572   -139.57237    1921.7831    5819.2824    2497.1883   -857.14199    4365.1939 
  394000    272.83354   -161.65457    -126.1412   -161.65457            0    7497.8395    18.131004     22.59221    19.384084  0.077744484   -7.0737012  -0.25371816    7940.0979    8850.1016    7505.7919    6137.6249    2353.0724    648.59287    1426.8061 
  394500    267.94916   -161.46865   -126.59105   -161.46865            0     6861.928     18.15239     22.73185    19.337598   0.28125057   -7.2860759  -0.26786223    7979.4163    10092.123    5060.8938    5432.7674   -729.92296    251.74027    4516.5434 
  395000    275.96435   -161.02248   -125.10159   -161.02248            0    2481.6679    18.170084     22.87524    19.239835   0.31853122   -7.3554665 -0.082730638    7996.9419    1231.5977    4184.0553    2029.3508    545.32607    2242.7474    2596.4156 
  395500    272.10456   -162.06503   -126.64654   -162.06503            0    7876.5396    17.986257    22.869259    19.120454  0.089733287   -7.1791624   0.21841063    7864.8615    5650.1103    8417.0739    9562.4347   -1695.0069    2518.7983   -2931.1528 
  396000    266.89626   -162.52436   -127.78382   -162.52436            0    965.17555    17.979749    23.041233    19.417143  -0.34332157   -6.8911233   0.32227594    8044.0482     2123.248   -934.64637     1706.925   -1035.5923    3.1557626   -2593.0797 
  396500    263.06571   -161.56738   -127.32544   -161.56738            0    6494.2271    17.914523     22.81913    19.326684  -0.56467751   -6.6309435   0.27391523    7900.6291    7356.1339    6546.3336    5580.2138    1361.6726   -501.41691    707.68882 
  397000    271.68822   -161.28948   -125.92519   -161.28948            0    7095.2143    18.113713    22.659439    19.412226  -0.44517316   -6.5825942   0.14082249    7967.6815    3807.9591    7871.7968    9605.8869   -1785.8748    1205.5034    2861.6282 
  397500    275.98833   -161.37313   -125.44912   -161.37313            0    3605.0472     18.23586     22.49147    19.411551  -0.18200856   -6.6195698 -0.00022824488     7961.673   -76.866837    4487.9944     6404.014   -243.43087    669.87316    192.16592 
  398000     264.0318    -160.1478   -125.78011    -160.1478            0    3819.7601    18.216709    22.393097    19.440263  0.099255233     -6.70029  -0.03019839    7930.2378    814.75466    6409.1577     4235.368   -1161.5315    675.85113    326.37088 
  398500    287.45577   -162.16113   -124.74446   -162.16113            0    3882.3621    18.173818    22.522077    19.544966   0.32789666   -6.8023508 -0.075181523    7999.9918    4672.3854    5242.9748    1731.7263   -2439.3482    1624.4389    1239.4263 
  399000    264.84632   -163.24462    -128.7709   -163.24462            0    3341.3931    18.001114    22.705049    19.422844   0.35204565   -6.8898177 -0.064116975    7938.4307    953.25661    5679.2952    3391.6275      978.113    2874.3663   -458.07441 
  399500      264.329   -160.68146   -126.27509   -160.68146            0    4757.1684    17.988408    22.879438    19.228552   0.22522546   -7.0517179 -0.035881539    7913.7925    5696.1271    3900.6271    4674.7511    -2589.667   -631.58011    1606.0905 
  400000    266.80017   -162.94785   -128.21982   -162.94785            0    4825.1838     18.11307    23.070607    19.254097 -0.061478196   -7.1817741  0.018800578    8045.8923    5192.3833     4377.653     4905.515    2968.1179    500.10931     3201.221 
Loop time of 2564.36 on 1 procs for 400000 steps with 1008 atoms

Performance: 6.739 ns/day, 3.562 hours/ns, 155.984 timesteps/s
71.3% CPU use with 1 MPI tasks x 1 OpenMP threads

MPI task timing breakdown:
Section |  min time  |  avg time  |  max time  |%varavg| %total
---------------------------------------------------------------
Pair    | 2204.7     | 2204.7     | 2204.7     |   0.0 | 85.98
Bond    | 0.055253   | 0.055253   | 0.055253   |   0.0 |  0.00
Neigh   | 327.15     | 327.15     | 327.15     |   0.0 | 12.76
Comm    | 11.469     | 11.469     | 11.469     |   0.0 |  0.45
Output  | 1.9657     | 1.9657     | 1.9657     |   0.0 |  0.08
Modify  | 17.387     | 17.387     | 17.387     |   0.0 |  0.68
Other   |            | 1.608      |            |       |  0.06

Nlocal:        1008.00 ave        1008 max        1008 min
Histogram: 1 0 0 0 0 0 0 0 0 0
Nghost:        5109.00 ave        5109 max        5109 min
Histogram: 1 0 0 0 0 0 0 0 0 0
Neighs:         0.00000 ave           0 max           0 min
Histogram: 1 0 0 0 0 0 0 0 0 0
FullNghs:      267564.0 ave      267564 max      267564 min
Histogram: 1 0 0 0 0 0 0 0 0 0

Total # of neighbors = 267564
Ave neighs/atom = 265.44048
Ave special neighs/atom = 0.0000000
Neighbor list builds = 40000
Dangerous builds not checked

unfix		3
unfix		2

write_data	data.final.${pid}
write_data	data.final.0
System init for write_data ...

write_restart   restart.lmp.${pid}
write_restart   restart.lmp.0
System init for write_restart ...
Total wall time: 0:42:47
