LAMMPS data file via MDAnalysis

        2268  atoms
           0  bonds
           0  angles
           0  dihedrals
           0  impropers

           2  atom types
           0  bond types
           0  angle types
           0  dihedral types
           0  improper types

0.000000 47.450699 xlo xhi
0.000000 20.157000 ylo yhi
0.000000 20.540001 zlo zhi


Masses

1 15.999000
2 1.008000

Atoms

1 0 1 -1.179400 11.583746 6.654632 2.629901
2 0 2 0.589700 12.329391 6.665805 3.216964
3 0 2 0.589700 10.949882 7.255397 3.015022
4 0 1 -1.179400 4.484259 16.971750 11.769775
5 0 2 0.589700 4.693640 16.069389 12.012201
6 0 2 0.589700 5.335939 17.392998 11.653489
7 0 1 -1.179400 1.478729 0.467734 5.684052
8 0 2 0.589700 0.529794 0.593067 5.693862
9 0 2 0.589700 1.595892 19.744825 5.708692
10 0 1 -1.179400 3.399364 0.900541 19.690796
11 0 2 0.589700 2.989886 1.448909 0.027536
12 0 2 0.589700 2.783037 0.916242 18.974493
13 0 1 -1.179400 21.099794 14.020877 11.346277
14 0 2 0.589700 20.231569 13.719182 11.608328
15 0 2 0.589700 20.949574 14.484565 10.539846
16 0 1 -1.179400 6.921186 10.876518 3.901887
17 0 2 0.589700 6.862781 9.937394 3.720395
18 0 2 0.589700 6.335792 11.010827 4.631068
19 0 1 -1.179400 0.449966 6.212938 1.966353
20 0 2 0.589700 0.596579 7.145801 2.130070
21 0 2 0.589700 46.967514 6.149621 1.767160
22 0 1 -1.179400 1.193982 18.307961 18.226887
23 0 2 0.589700 1.604009 18.422600 19.065599
24 0 2 0.589700 1.863043 17.874037 17.708258
25 0 1 -1.179400 5.698201 16.272163 18.307858
26 0 2 0.589700 6.192771 15.741228 17.696236
27 0 2 0.589700 5.645506 15.727696 19.077042
28 0 1 -1.179400 1.362314 7.317932 17.864326
29 0 2 0.589700 2.142892 7.576696 17.384836
30 0 2 0.589700 1.528355 6.408538 18.113729
31 0 1 -1.179400 8.424205 6.612282 0.151304
32 0 2 0.589700 9.372510 6.567211 0.270778
33 0 2 0.589700 8.291435 6.406868 19.564714
34 0 1 -1.179400 5.675041 8.786955 18.675119
35 0 2 0.589700 4.822066 9.149590 18.440159
36 0 2 0.589700 5.561365 7.837071 18.608335
37 0 1 -1.179400 18.489784 11.144531 3.261910
38 0 2 0.589700 18.081770 11.425230 2.460387
39 0 2 0.589700 17.909410 11.479677 3.930819
40 0 1 -1.179400 2.131540 14.206225 18.561310
41 0 2 0.589700 1.195795 14.333378 18.714436
42 0 2 0.589700 2.464664 15.085547 18.377863
43 0 1 -1.179400 3.410706 13.010538 12.045444
44 0 2 0.589700 2.540740 13.404860 11.979671
45 0 2 0.589700 3.261375 12.169274 12.470805
46 0 1 -1.179400 1.927174 9.128420 6.799031
47 0 2 0.589700 2.359053 8.665765 7.502117
48 0 2 0.589700 1.743812 8.445905 6.166045
49 0 1 -1.179400 6.845541 18.295712 11.938481
50 0 2 0.589700 7.602418 18.628132 11.465956
51 0 2 0.589700 7.162846 18.183901 12.815176
52 0 1 -1.179400 7.346469 5.745341 9.757543
53 0 2 0.589700 7.118610 5.045747 9.156994
54 0 2 0.589700 6.521460 5.961947 10.182677
55 0 1 -1.179400 15.775193 13.159774 14.874357
56 0 2 0.589700 15.036905 12.578353 15.055978
57 0 2 0.589700 15.462904 14.032836 15.113054
58 0 1 -1.179400 22.918270 12.123828 12.618186
59 0 2 0.589700 23.230898 11.978607 11.744557
60 0 2 0.589700 22.187088 12.735017 12.522576
61 0 1 -1.179400 8.900243 18.629263 6.142249
62 0 2 0.589700 8.305621 18.825489 5.433887
63 0 2 0.589700 8.355514 18.171730 6.769423
64 0 1 -1.179400 18.611328 13.212687 9.318567
65 0 2 0.589700 18.832859 12.453509 9.848218
66 0 2 0.589700 19.307907 13.251314 8.677425
67 0 1 -1.179400 14.148820 13.354136 18.072870
68 0 2 0.589700 13.833363 12.465199 17.904318
69 0 2 0.589700 13.354081 13.868478 18.215088
70 0 1 -1.179400 20.500341 8.007615 2.296669
71 0 2 0.589700 20.863914 8.600745 2.940895
72 0 2 0.589700 19.591599 8.291211 2.197359
73 0 1 -1.179400 10.203015 4.226314 13.390331
74 0 2 0.589700 10.705557 3.789400 14.063540
75 0 2 0.589700 9.734801 3.516021 12.958866
76 0 1 -1.179400 8.636826 19.753019 2.954333
77 0 2 0.589700 9.565362 19.599585 3.125452
78 0 2 0.589700 8.560947 19.704407 2.022077
79 0 1 -1.179400 15.390670 19.191204 5.634923
80 0 2 0.589700 15.020576 18.547192 5.042936
81 0 2 0.589700 14.630289 19.577374 6.060805
82 0 1 -1.179400 8.399276 7.070901 5.944892
83 0 2 0.589700 8.968499 6.770953 6.638443
84 0 2 0.589700 8.147504 6.268501 5.494894
85 0 1 -1.179400 22.785646 1.836341 13.450710
86 0 2 0.589700 22.311138 1.334195 14.099582
87 0 2 0.589700 22.521753 2.745856 13.598106
88 0 1 -1.179400 22.200466 7.212667 10.076158
89 0 2 0.589700 23.117334 7.451047 9.941389
90 0 2 0.589700 21.954626 7.663517 10.866901
91 0 1 -1.179400 21.453449 18.126398 10.309449
92 0 2 0.589700 22.342619 17.826687 10.495415
93 0 2 0.589700 20.925488 17.782293 11.014595
94 0 1 -1.179400 14.394769 11.500578 4.315858
95 0 2 0.589700 14.192505 12.184708 3.690085
96 0 2 0.589700 14.075705 11.850099 5.130102
97 0 1 -1.179400 6.055311 13.679711 9.296498
98 0 2 0.589700 5.430187 13.281659 8.703334
99 0 2 0.589700 6.826432 13.863777 8.771632
100 0 1 -1.179400 11.321066 10.220397 3.990191
101 0 2 0.589700 10.861736 9.398582 3.813598
102 0 2 0.589700 11.759568 10.070255 4.809553
103 0 1 -1.179400 6.820887 4.650185 12.518970
104 0 2 0.589700 6.770111 4.725628 13.451158
105 0 2 0.589700 7.592098 5.164638 12.283648
106 0 1 -1.179400 5.618550 1.071798 6.142777
107 0 2 0.589700 4.701068 1.298646 5.993786
108 0 2 0.589700 5.722210 1.116743 7.072648
109 0 1 -1.179400 23.414932 2.234953 20.109026
110 0 2 0.589700 23.209755 3.144662 19.890511
111 0 2 0.589700 24.291073 2.274363 0.165347
112 0 1 -1.179400 24.706041 0.959469 2.864585
113 0 2 0.589700 24.545574 1.892761 2.716364
114 0 2 0.589700 25.362226 0.939163 3.546049
115 0 1 -1.179400 25.720758 4.146892 5.234315
116 0 2 0.589700 25.530914 5.030626 5.547280
117 0 2 0.589700 25.480343 3.570155 5.944593
118 0 1 -1.179400 18.875425 18.866995 4.157901
119 0 2 0.589700 19.737423 18.452702 4.111646
120 0 2 0.589700 19.003775 19.735899 3.781795
121 0 1 -1.179400 24.568062 5.681872 1.327273
122 0 2 0.589700 24.366993 4.962150 1.914152
123 0 2 0.589700 24.328163 6.474099 1.800079
124 0 1 -1.179400 24.035900 3.645851 3.063311
125 0 2 0.589700 23.170958 3.831841 3.420943
126 0 2 0.589700 24.649654 3.979815 3.703658
127 0 1 -1.179400 22.615461 15.764447 13.508847
128 0 2 0.589700 22.247452 15.319126 12.761703
129 0 2 0.589700 21.958225 15.646646 14.179842
130 0 1 -1.179400 19.370035 10.351631 19.114494
131 0 2 0.589700 20.078657 10.836345 18.699356
132 0 2 0.589700 18.717442 10.227842 18.440201
133 0 1 -1.179400 15.016898 18.182631 1.855378
134 0 2 0.589700 14.932873 19.112026 1.639106
135 0 2 0.589700 15.067069 17.736946 1.027657
136 0 1 -1.179400 26.562260 0.269277 4.767509
137 0 2 0.589700 26.446856 0.759009 5.564699
138 0 2 0.589700 26.194592 19.631895 4.947922
139 0 1 -1.179400 12.927126 15.370566 1.089067
140 0 2 0.589700 12.325226 14.672293 1.344770
141 0 2 0.589700 12.465575 16.182076 1.301835
142 0 1 -1.179400 26.061293 2.316464 0.365997
143 0 2 0.589700 26.453295 3.093331 -0.027109
144 0 2 0.589700 26.657602 2.087825 1.063654
145 0 1 -1.179400 29.570433 2.290606 20.282677
146 0 2 0.589700 29.266600 1.691972 19.614149
147 0 2 0.589700 29.428883 3.165991 19.925930
148 0 1 -1.179400 31.315201 1.328634 3.200758
149 0 2 0.589700 31.320930 2.247845 2.933470
150 0 2 0.589700 31.261524 0.833860 2.400278
151 0 1 -1.179400 32.749142 4.587839 5.611919
152 0 2 0.589700 32.233906 4.080033 6.225930
153 0 2 0.589700 32.745106 5.480533 5.954348
154 0 1 -1.179400 28.267511 3.931367 3.541689
155 0 2 0.589700 27.688581 3.832253 4.281107
156 0 2 0.589700 27.770517 4.473239 2.941193
157 0 1 -1.179400 31.567198 6.259924 1.349274
158 0 2 0.589700 32.524357 6.256056 1.356350
159 0 2 0.589700 31.319590 5.615217 1.998890
160 0 1 -1.179400 30.942274 4.234831 3.210365
161 0 2 0.589700 31.228256 4.222819 4.103928
162 0 2 0.589700 29.986340 4.245445 3.257271
163 0 1 -1.179400 27.386728 5.736511 1.652385
164 0 2 0.589700 26.572432 5.638631 1.169545
165 0 2 0.589700 27.358870 6.634950 1.979067
166 0 1 -1.179400 29.308811 0.644371 4.851566
167 0 2 0.589700 28.516148 0.369491 4.400440
168 0 2 0.589700 29.902693 0.932177 4.173059
169 0 1 -1.179400 29.170485 5.178029 6.569803
170 0 2 0.589700 29.839163 5.439453 7.189319
171 0 2 0.589700 29.251518 4.223992 6.514968
172 0 1 -1.179400 33.145821 0.658022 5.096405
173 0 2 0.589700 32.794674 20.026573 5.328094
174 0 2 0.589700 32.561047 0.975577 4.423001
175 0 1 -1.179400 27.925385 1.585235 2.099200
176 0 2 0.589700 28.511829 1.832056 1.399445
177 0 2 0.589700 28.043324 2.274761 2.739798
178 0 1 -1.179400 32.396881 2.462408 0.257820
179 0 2 0.589700 31.452133 2.335932 0.171703
180 0 2 0.589700 32.780090 1.854924 19.956512
181 0 1 -1.179400 36.179367 2.321537 20.246271
182 0 2 0.589700 35.698166 2.090283 0.704801
183 0 2 0.589700 37.081165 2.055213 0.103372
184 0 1 -1.179400 37.722458 1.293256 3.406216
185 0 2 0.589700 37.006218 1.079483 3.991318
186 0 2 0.589700 37.715496 0.584395 2.775456
187 0 1 -1.179400 39.196495 4.317478 5.699414
188 0 2 0.589700 38.489323 4.259250 5.070907
189 0 2 0.589700 39.154785 3.487761 6.167388
190 0 1 -1.179400 34.555187 4.155480 3.566283
191 0 2 0.589700 35.468319 4.264320 3.826243
192 0 2 0.589700 34.049232 4.393729 4.326393
193 0 1 -1.179400 37.768726 6.156663 1.697892
194 0 2 0.589700 37.598423 6.743535 2.419567
195 0 2 0.589700 38.720119 6.172266 1.596035
196 0 1 -1.179400 37.492229 4.090956 3.494405
197 0 2 0.589700 37.619583 3.198920 3.173671
198 0 2 0.589700 37.813171 4.655390 2.805480
199 0 1 -1.179400 34.230209 6.274885 1.851660
200 0 2 0.589700 34.712799 5.940576 1.111764
201 0 2 0.589700 34.395958 5.633300 2.528573
202 0 1 -1.179400 35.861614 0.978938 5.406122
203 0 2 0.589700 35.839397 0.214618 5.971415
204 0 2 0.589700 34.989933 1.006690 5.020195
205 0 1 -1.179400 35.795685 5.525276 6.425159
206 0 2 0.589700 36.403412 5.783660 7.103220
207 0 2 0.589700 35.691769 6.314812 5.903289
208 0 1 -1.179400 39.719826 0.445312 4.911575
209 0 2 0.589700 39.026901 0.715274 4.321762
210 0 2 0.589700 39.640633 1.047671 5.636154
211 0 1 -1.179400 34.432064 1.671031 2.068334
212 0 2 0.589700 34.501614 2.432124 2.634101
213 0 2 0.589700 33.568424 1.755481 1.673073
214 0 1 -1.179400 38.976337 2.098250 0.574925
215 0 2 0.589700 39.169102 2.909536 0.112399
216 0 2 0.589700 39.640770 2.057919 1.247832
217 0 1 -1.179400 42.787365 2.738717 0.453850
218 0 2 0.589700 43.696392 2.701020 0.744851
219 0 2 0.589700 42.676525 3.635704 0.140502
220 0 1 -1.179400 44.396259 1.095792 3.553614
221 0 2 0.589700 44.591690 0.514092 2.834044
222 0 2 0.589700 45.084492 0.912433 4.179317
223 0 1 -1.179400 45.999279 4.623052 5.851261
224 0 2 0.589700 46.618191 4.515805 5.144646
225 0 2 0.589700 46.026142 5.560092 6.049342
226 0 1 -1.179400 41.087154 4.423065 3.704661
227 0 2 0.589700 40.588184 4.432857 4.503724
228 0 2 0.589700 41.984627 4.227190 3.968165
229 0 1 -1.179400 44.847740 5.733637 1.925158
230 0 2 0.589700 44.549126 4.953905 2.385602
231 0 2 0.589700 44.255451 5.803415 1.192705
232 0 1 -1.179400 44.058121 3.993694 4.009812
233 0 2 0.589700 44.715786 4.257123 4.639714
234 0 2 0.589700 44.188988 3.049489 3.906418
235 0 1 -1.179400 40.689602 6.056335 1.639539
236 0 2 0.589700 40.939926 5.577728 2.413202
237 0 2 0.589700 41.044113 6.937883 1.765415
238 0 1 -1.179400 42.575428 0.076943 5.413307
239 0 2 0.589700 41.723930 0.213438 5.006857
240 0 2 0.589700 43.212135 0.312845 4.753127
241 0 1 -1.179400 42.774921 4.932184 6.938766
242 0 2 0.589700 43.576431 5.219293 7.367100
243 0 2 0.589700 42.807125 3.974512 6.979703
244 0 1 -1.179400 46.081841 0.474342 5.359998
245 0 2 0.589700 45.851849 1.034876 6.085778
246 0 2 0.589700 45.938515 19.809851 5.671136
247 0 1 -1.179400 40.905678 1.925221 2.354436
248 0 2 0.589700 40.910210 2.729254 2.864966
249 0 2 0.589700 41.554123 2.082057 1.682870
250 0 1 -1.179400 45.487434 2.644487 0.832146
251 0 2 0.589700 45.697838 3.578147 0.772242
252 0 2 0.589700 45.894787 2.254334 0.075201
253 0 1 -1.179400 13.053164 2.188333 2.030469
254 0 2 0.589700 13.869922 1.690262 2.074810
255 0 2 0.589700 13.250139 2.922389 1.459398
256 0 1 -1.179400 17.427498 14.377021 2.929430
257 0 2 0.589700 17.489559 15.313038 2.734315
258 0 2 0.589700 16.559677 14.121400 2.623130
259 0 1 -1.179400 14.765645 18.496859 14.139446
260 0 2 0.589700 15.037560 17.590302 14.290223
261 0 2 0.589700 14.735008 18.579348 13.206985
262 0 1 -1.179400 0.026119 16.037088 15.465034
263 0 2 0.589700 0.235166 15.125575 15.672598
264 0 2 0.589700 46.643463 15.988750 15.006788
265 0 1 -1.179400 17.551781 12.934869 17.016071
266 0 2 0.589700 16.874876 12.994712 16.356575
267 0 2 0.589700 17.516094 12.023453 17.305651
268 0 1 -1.179400 18.986332 10.913584 10.763758
269 0 2 0.589700 19.717314 10.636754 10.222984
270 0 2 0.589700 18.207071 10.595371 10.317460
271 0 1 -1.179400 0.072987 12.637853 2.042959
272 0 2 0.589700 0.829852 12.565771 1.474035
273 0 2 0.589700 0.067936 13.556530 2.312006
274 0 1 -1.179400 7.602498 4.739808 4.495427
275 0 2 0.589700 7.517605 3.860544 4.860198
276 0 2 0.589700 8.371414 4.685934 3.940213
277 0 1 -1.179400 2.214549 18.921375 0.451366
278 0 2 0.589700 2.640769 19.742615 0.206127
279 0 2 0.589700 1.475122 19.192638 0.983775
280 0 1 -1.179400 2.392381 12.720713 0.641030
281 0 2 0.589700 2.488709 11.772436 0.536843
282 0 2 0.589700 2.468403 13.071771 20.091600
283 0 1 -1.179400 5.900042 19.542393 17.099022
284 0 2 0.589700 5.633751 18.920450 16.435471
285 0 2 0.589700 6.748804 19.218000 17.394165
286 0 1 -1.179400 8.558387 2.736847 6.686897
287 0 2 0.589700 9.444155 3.095472 6.628665
288 0 2 0.589700 8.684508 1.826639 6.955131
289 0 1 -1.179400 6.587098 2.970104 1.775744
290 0 2 0.589700 6.922715 2.614473 2.581047
291 0 2 0.589700 7.258726 2.752507 1.143267
292 0 1 -1.179400 22.725008 18.866060 20.103331
293 0 2 0.589700 22.478851 19.446493 19.397820
294 0 2 0.589700 22.177927 19.149729 0.501250
295 0 1 -1.179400 16.438538 12.112752 7.775507
296 0 2 0.589700 17.210155 12.341717 8.282537
297 0 2 0.589700 15.852565 12.864733 7.871679
298 0 1 -1.179400 19.167334 2.160725 19.790445
299 0 2 0.589700 18.711226 2.980087 19.595905
300 0 2 0.589700 18.553211 1.669090 0.005971
301 0 1 -1.179400 4.214864 16.049854 9.157604
302 0 2 0.589700 4.802890 15.293095 9.149299
303 0 2 0.589700 4.309322 16.418428 10.017161
304 0 1 -1.179400 7.614684 14.820932 16.913950
305 0 2 0.589700 7.485898 13.878064 16.797291
306 0 2 0.589700 8.023628 15.112948 16.116747
307 0 1 -1.179400 10.807298 12.602761 12.809628
308 0 2 0.589700 11.510424 13.237123 12.951550
309 0 2 0.589700 11.253349 11.815206 12.501011
310 0 1 -1.179400 18.729771 6.348485 13.711341
311 0 2 0.589700 18.557547 7.110328 13.167975
312 0 2 0.589700 19.372440 6.658783 14.335685
313 0 1 -1.179400 0.170800 6.081789 8.418110
314 0 2 0.589700 0.117742 6.999283 8.686043
315 0 2 0.589700 0.472770 5.614348 9.180555
316 0 1 -1.179400 10.591229 4.053354 8.898945
317 0 2 0.589700 11.443803 4.142698 9.315597
318 0 2 0.589700 10.013979 3.717950 9.570311
319 0 1 -1.179400 9.093135 11.617856 7.905462
320 0 2 0.589700 9.146212 11.505462 6.976953
321 0 2 0.589700 8.156934 11.574977 8.095963
322 0 1 -1.179400 3.177372 16.931566 3.868292
323 0 2 0.589700 3.801680 17.557949 3.507933
324 0 2 0.589700 2.327136 17.363731 3.784672
325 0 1 -1.179400 19.058882 7.051950 4.923321
326 0 2 0.589700 18.780764 6.139738 4.825001
327 0 2 0.589700 19.969374 7.058736 4.634470
328 0 1 -1.179400 1.037658 0.761969 11.385787
329 0 2 0.589700 0.811758 1.247972 10.609329
330 0 2 0.589700 1.878889 0.350924 11.189456
331 0 1 -1.179400 9.306272 13.087907 10.638795
332 0 2 0.589700 9.980449 13.028525 11.300998
333 0 2 0.589700 9.038221 12.179790 10.490357
334 0 1 -1.179400 1.495296 4.678179 19.367035
335 0 2 0.589700 1.539367 4.274378 18.518749
336 0 2 0.589700 0.563285 4.846036 19.503696
337 0 1 -1.179400 17.625914 2.466326 12.343752
338 0 2 0.589700 17.118910 2.190807 13.091080
339 0 2 0.589700 18.158205 1.700946 12.126219
340 0 1 -1.179400 23.063581 4.496133 13.891295
341 0 2 0.589700 23.993790 4.488151 14.111942
342 0 2 0.589700 23.047478 4.633167 12.964624
343 0 1 -1.179400 6.915649 8.297216 2.945086
344 0 2 0.589700 6.427778 8.740737 2.265695
345 0 2 0.589700 6.680915 7.372033 2.854298
346 0 1 -1.179400 8.956444 9.451115 20.041918
347 0 2 0.589700 8.640043 8.589426 -0.006146
348 0 2 0.589700 9.880157 9.459120 -0.031525
349 0 1 -1.179400 13.530979 1.809084 13.355167
350 0 2 0.589700 13.434959 1.012119 12.842700
351 0 2 0.589700 14.348287 1.681689 13.826443
352 0 1 -1.179400 22.950283 9.024947 6.393677
353 0 2 0.589700 23.779625 8.766001 6.786983
354 0 2 0.589700 22.283403 8.757118 7.012439
355 0 1 -1.179400 4.292535 9.869027 14.852458
356 0 2 0.589700 4.453342 9.526470 13.992071
357 0 2 0.589700 3.366261 10.110833 14.850525
358 0 1 -1.179400 18.504829 8.713276 12.082456
359 0 2 0.589700 18.568714 9.535943 11.605104
360 0 2 0.589700 17.584015 8.461603 12.011641
361 0 1 -1.179400 16.770481 9.490831 9.615806
362 0 2 0.589700 17.109325 8.596582 9.546968
363 0 2 0.589700 16.071865 9.534542 8.977100
364 0 1 -1.179400 24.186853 7.753677 3.054763
365 0 2 0.589700 23.394543 7.464437 3.497850
366 0 2 0.589700 24.888670 7.623686 3.678761
367 0 1 -1.179400 26.207844 10.942979 5.214364
368 0 2 0.589700 25.548700 10.769994 4.556689
369 0 2 0.589700 26.123558 11.880407 5.394462
370 0 1 -1.179400 19.172203 7.543406 19.560705
371 0 2 0.589700 19.157780 7.368799 18.640049
372 0 2 0.589700 19.495024 8.443390 19.631960
373 0 1 -1.179400 24.777416 12.257615 1.045108
374 0 2 0.589700 23.896412 11.949268 0.836747
375 0 2 0.589700 24.636084 13.048262 1.556863
376 0 1 -1.179400 24.220011 10.492957 3.204647
377 0 2 0.589700 24.334599 9.553210 3.054576
378 0 2 0.589700 24.586510 10.911036 2.441952
379 0 1 -1.179400 20.758537 15.156416 15.447375
380 0 2 0.589700 20.351635 14.324656 15.204529
381 0 2 0.589700 20.068827 15.634111 15.899136
382 0 1 -1.179400 22.631504 4.847290 6.713445
383 0 2 0.589700 21.800791 5.054008 7.132598
384 0 2 0.589700 22.775307 3.918175 6.898475
385 0 1 -1.179400 17.196323 18.530945 9.923486
386 0 2 0.589700 17.551504 17.645771 9.827129
387 0 2 0.589700 17.876410 19.012808 10.384887
388 0 1 -1.179400 25.840460 7.049186 5.319403
389 0 2 0.589700 25.741934 7.718769 5.982898
390 0 2 0.589700 26.760950 7.102227 5.067852
391 0 1 -1.179400 17.214682 10.306828 17.490475
392 0 2 0.589700 17.502811 9.854383 16.714401
393 0 2 0.589700 16.571230 9.715217 17.873884
394 0 1 -1.179400 25.096676 9.094246 0.331864
395 0 2 0.589700 24.192034 8.781764 0.355669
396 0 2 0.589700 25.491201 8.627895 19.929161
397 0 1 -1.179400 29.080479 9.243869 0.187221
398 0 2 0.589700 28.598835 8.893844 0.920753
399 0 2 0.589700 28.891653 8.631699 19.809242
400 0 1 -1.179400 30.758163 8.076605 3.377995
401 0 2 0.589700 30.887857 7.678800 2.535423
402 0 2 0.589700 30.741182 9.020340 3.211707
403 0 1 -1.179400 32.296974 11.371469 5.267902
404 0 2 0.589700 32.410549 10.746771 5.969717
405 0 2 0.589700 31.701992 10.931363 4.673392
406 0 1 -1.179400 28.309828 10.495699 3.471757
407 0 2 0.589700 27.736771 10.566541 4.218612
408 0 2 0.589700 27.975063 11.151711 2.872253
409 0 1 -1.179400 31.579748 12.821481 1.208426
410 0 2 0.589700 31.145552 13.416410 1.807647
411 0 2 0.589700 32.513885 12.941492 1.375771
412 0 1 -1.179400 30.916983 10.699183 3.093051
413 0 2 0.589700 29.985529 10.707937 3.308568
414 0 2 0.589700 31.016027 11.394825 2.455699
415 0 1 -1.179400 27.541191 12.262561 1.349727
416 0 2 0.589700 26.607405 12.197364 1.153995
417 0 2 0.589700 27.972914 12.220957 0.514959
418 0 1 -1.179400 28.660326 7.362576 4.995867
419 0 2 0.589700 29.438089 7.436117 4.454778
420 0 2 0.589700 28.718592 6.484639 5.368595
421 0 1 -1.179400 29.534954 12.117565 6.452748
422 0 2 0.589700 29.409504 11.172074 6.354245
423 0 2 0.589700 30.216324 12.199378 7.105561
424 0 1 -1.179400 32.559002 7.628053 5.378913
425 0 2 0.589700 31.931530 7.648432 4.672043
426 0 2 0.589700 32.391640 8.437170 5.854344
427 0 1 -1.179400 27.096815 8.403863 1.999630
428 0 2 0.589700 26.436111 8.819928 1.457337
429 0 2 0.589700 27.414207 9.110358 2.551613
430 0 1 -1.179400 31.794449 9.437839 0.301685
431 0 2 0.589700 32.027946 10.105826 19.988554
432 0 2 0.589700 30.854156 9.305327 0.183559
433 0 1 -1.179400 36.263779 9.533499 20.201616
434 0 2 0.589700 35.636375 9.469670 0.587244
435 0 2 0.589700 35.993420 8.850187 19.600071
436 0 1 -1.179400 37.684227 8.060246 3.761179
437 0 2 0.589700 37.770771 9.006108 3.631074
438 0 2 0.589700 36.775391 7.938687 4.030023
439 0 1 -1.179400 39.121780 11.119276 6.044319
440 0 2 0.589700 39.131306 12.025238 6.351625
441 0 2 0.589700 39.142895 10.587288 6.823215
442 0 1 -1.179400 34.556919 10.781489 3.850149
443 0 2 0.589700 33.780655 11.069003 4.320644
444 0 2 0.589700 34.253845 10.039056 3.336774
445 0 1 -1.179400 37.895592 12.571187 1.797941
446 0 2 0.589700 37.728107 11.874223 2.420036
447 0 2 0.589700 37.815826 13.382829 2.290746
448 0 1 -1.179400 37.319309 10.823771 3.899823
449 0 2 0.589700 37.702869 10.881575 4.755910
450 0 2 0.589700 36.374184 10.828583 4.047973
451 0 1 -1.179400 34.221657 12.849301 2.218849
452 0 2 0.589700 34.557236 12.219029 2.843706
453 0 2 0.589700 34.717228 12.667586 1.437596
454 0 1 -1.179400 35.257595 7.869285 5.083654
455 0 2 0.589700 34.317471 7.690625 5.059804
456 0 2 0.589700 35.383175 8.387777 5.861809
457 0 1 -1.179400 35.976364 12.168187 6.943437
458 0 2 0.589700 35.821503 12.881350 6.335881
459 0 2 0.589700 36.835236 12.360981 7.311486
460 0 1 -1.179400 39.302872 7.378549 5.813455
461 0 2 0.589700 39.267326 6.420094 5.808223
462 0 2 0.589700 38.595741 7.648802 5.240134
463 0 1 -1.179400 34.273224 9.114120 1.676442
464 0 2 0.589700 33.502525 9.206517 1.128476
465 0 2 0.589700 34.296021 8.182302 1.897193
466 0 1 -1.179400 38.913292 8.912933 0.341799
467 0 2 0.589700 37.959373 8.988144 0.366371
468 0 2 0.589700 39.201454 9.681764 20.176924
469 0 1 -1.179400 42.836731 9.218029 0.213320
470 0 2 0.589700 42.817284 10.176425 0.244668
471 0 2 0.589700 42.173489 8.942611 0.832647
472 0 1 -1.179400 44.306370 7.962020 3.431824
473 0 2 0.589700 43.633045 7.618456 4.006683
474 0 2 0.589700 44.369137 7.309661 2.748122
475 0 1 -1.179400 46.070469 11.696204 5.435327
476 0 2 0.589700 45.269817 11.463123 4.975347
477 0 2 0.589700 46.778225 11.363998 4.894707
478 0 1 -1.179400 41.165871 10.578830 4.186733
479 0 2 0.589700 40.899250 11.229725 3.550333
480 0 2 0.589700 40.542583 10.688761 4.889264
481 0 1 -1.179400 44.695221 12.521563 2.057616
482 0 2 0.589700 44.522560 11.880644 2.733478
483 0 2 0.589700 45.618973 12.396263 1.844931
484 0 1 -1.179400 44.011791 10.767646 3.947706
485 0 2 0.589700 44.237339 9.863030 3.728249
486 0 2 0.589700 43.113556 10.716385 4.267375
487 0 1 -1.179400 40.749878 12.674511 2.233958
488 0 2 0.589700 39.855728 12.597856 1.908232
489 0 2 0.589700 40.947834 13.611200 2.178722
490 0 1 -1.179400 42.127998 7.220287 5.200928
491 0 2 0.589700 42.305130 6.394721 5.644985
492 0 2 0.589700 41.179249 7.225299 5.076917
493 0 1 -1.179400 42.712669 11.892942 6.769783
494 0 2 0.589700 42.141903 12.051934 7.505303
495 0 2 0.589700 42.657051 10.947071 6.624467
496 0 1 -1.179400 46.093163 7.376270 5.353194
497 0 2 0.589700 45.766758 7.719143 4.539041
498 0 2 0.589700 47.030518 7.246940 5.211653
499 0 1 -1.179400 40.992157 8.724888 2.159142
500 0 2 0.589700 40.092697 8.766706 1.841460
501 0 2 0.589700 41.017124 9.357156 2.862862
502 0 1 -1.179400 45.746742 9.418558 0.411449
503 0 2 0.589700 45.712067 10.268316 -0.021485
504 0 2 0.589700 44.835190 9.128012 0.445548
505 0 1 -1.179400 0.807723 11.250354 17.556257
506 0 2 0.589700 0.405961 10.548360 17.053604
507 0 2 0.589700 0.588866 12.053699 17.091631
508 0 1 -1.179400 6.515060 0.734475 8.691044
509 0 2 0.589700 6.504035 1.110422 9.552455
510 0 2 0.589700 7.415773 0.433649 8.572004
511 0 1 -1.179400 1.855068 13.716313 4.705201
512 0 2 0.589700 1.828953 12.962759 5.283953
513 0 2 0.589700 2.292751 14.404075 5.197804
514 0 1 -1.179400 0.023912 19.406527 2.086475
515 0 2 0.589700 0.120800 0.118309 2.244039
516 0 2 0.589700 0.091829 19.005219 2.934380
517 0 1 -1.179400 17.940838 4.732491 19.034355
518 0 2 0.589700 17.003828 4.769049 18.846416
519 0 2 0.589700 18.351446 5.220401 18.335358
520 0 1 -1.179400 5.258015 17.659126 15.381094
521 0 2 0.589700 5.010088 16.749081 15.211900
522 0 2 0.589700 6.156006 17.728767 15.064091
523 0 1 -1.179400 11.232851 5.245812 17.176130
524 0 2 0.589700 11.279950 4.828974 18.018225
525 0 2 0.589700 12.136758 5.248756 16.868063
526 0 1 -1.179400 17.188938 8.157100 6.440739
527 0 2 0.589700 17.893072 7.849400 5.882070
528 0 2 0.589700 17.328955 7.691229 7.247726
529 0 1 -1.179400 8.260253 19.883463 0.306641
530 0 2 0.589700 7.489949 19.670389 20.109995
531 0 2 0.589700 8.945389 20.071749 19.997910
532 0 1 -1.179400 8.341807 12.146419 19.572361
533 0 2 0.589700 8.563391 11.225982 19.721806
534 0 2 0.589700 7.400584 12.197251 19.735317
535 0 1 -1.179400 0.324792 15.461086 2.325452
536 0 2 0.589700 -0.234508 15.871018 1.679458
537 0 2 0.589700 1.192170 15.433458 1.930346
538 0 1 -1.179400 17.802053 4.629172 4.520395
539 0 2 0.589700 17.885361 4.267622 3.656899
540 0 2 0.589700 18.219614 3.978016 5.073428
541 0 1 -1.179400 15.294976 0.680546 2.215007
542 0 2 0.589700 16.114676 0.655806 1.732059
543 0 2 0.589700 15.567856 0.745829 3.110294
544 0 1 -1.179400 1.213854 0.751615 17.784613
545 0 2 0.589700 1.284381 20.024401 17.750637
546 0 2 0.589700 1.029141 1.012140 16.901709
547 0 1 -1.179400 19.047375 13.129465 12.992192
548 0 2 0.589700 19.402693 12.992642 13.851374
549 0 2 0.589700 18.355844 12.471647 12.910162
550 0 1 -1.179400 3.599136 0.309993 10.605708
551 0 2 0.589700 3.964154 19.886328 10.019426
552 0 2 0.589700 4.140589 0.242336 11.375074
553 0 1 -1.179400 10.022669 16.822714 17.103889
554 0 2 0.589700 10.785406 17.263231 17.471474
555 0 2 0.589700 10.389310 16.202419 16.486263
556 0 1 -1.179400 20.229567 5.272605 0.871970
557 0 2 0.589700 20.544617 5.888115 1.520626
558 0 2 0.589700 19.967243 5.827808 0.152812
559 0 1 -1.179400 20.889921 12.415958 2.609390
560 0 2 0.589700 21.301083 12.517126 3.449223
561 0 2 0.589700 19.978111 12.198831 2.799774
562 0 1 -1.179400 0.477631 17.699677 4.191225
563 0 2 0.589700 0.110260 17.010958 3.647554
564 0 2 0.589700 0.043406 17.582529 5.017865
565 0 1 -1.179400 5.567780 12.176836 20.110527
566 0 2 0.589700 5.348350 12.084307 19.203541
567 0 2 0.589700 5.323472 13.078599 0.002972
568 0 1 -1.179400 15.552984 8.470824 18.728765
569 0 2 0.589700 14.789518 8.926047 19.077330
570 0 2 0.589700 15.986770 8.093070 19.477608
571 0 1 -1.179400 15.252170 9.790800 7.300903
572 0 2 0.589700 15.924110 9.279419 6.858762
573 0 2 0.589700 15.597175 10.685369 7.313708
574 0 1 -1.179400 3.388245 1.738175 4.271381
575 0 2 0.589700 2.649726 1.296192 4.682088
576 0 2 0.589700 2.998342 2.495967 3.842421
577 0 1 -1.179400 5.245819 8.671887 12.632009
578 0 2 0.589700 5.767411 9.471645 12.549398
579 0 2 0.589700 5.815095 8.060414 13.090610
580 0 1 -1.179400 5.340619 2.729104 18.823662
581 0 2 0.589700 5.065596 3.415825 19.419456
582 0 2 0.589700 4.759530 1.990940 19.008938
583 0 1 -1.179400 5.381474 9.795554 0.905044
584 0 2 0.589700 5.630579 9.363965 0.105088
585 0 2 0.589700 5.479352 10.732144 0.727387
586 0 1 -1.179400 10.928779 16.695751 13.071633
587 0 2 0.589700 11.325418 17.224524 13.749715
588 0 2 0.589700 11.256165 17.082369 12.276767
589 0 1 -1.179400 14.811218 5.308036 13.182783
590 0 2 0.589700 15.121721 4.567555 12.670968
591 0 2 0.589700 13.973006 5.547326 12.795654
592 0 1 -1.179400 22.729307 19.893393 4.078380
593 0 2 0.589700 23.540905 0.112001 3.842224
594 0 2 0.589700 22.962013 19.369591 4.829056
595 0 1 -1.179400 15.257701 16.445995 20.044868
596 0 2 0.589700 14.602950 15.893111 0.144630
597 0 2 0.589700 16.022804 15.877931 19.949825
598 0 1 -1.179400 16.077646 0.856280 8.256983
599 0 2 0.589700 16.895189 1.019858 8.717089
600 0 2 0.589700 15.881829 1.687331 7.830539
601 0 1 -1.179400 11.847754 16.888454 10.518377
602 0 2 0.589700 12.372049 17.461918 9.970358
603 0 2 0.589700 11.477691 16.238590 9.932504
604 0 1 -1.179400 18.918966 3.178353 6.634062
605 0 2 0.589700 19.687199 2.728382 6.289040
606 0 2 0.589700 19.272173 3.960493 7.051635
607 0 1 -1.179400 17.380785 14.712302 19.053181
608 0 2 0.589700 18.222265 14.683184 19.498587
609 0 2 0.589700 17.421831 13.988338 18.440266
610 0 1 -1.179400 13.185915 2.557744 4.687129
611 0 2 0.589700 12.578863 3.235158 4.981709
612 0 2 0.589700 12.987598 2.454217 3.776630
613 0 1 -1.179400 23.066792 16.106241 0.178902
614 0 2 0.589700 22.840956 17.034674 0.098719
615 0 2 0.589700 22.480701 15.775022 0.844897
616 0 1 -1.179400 24.209955 14.230146 3.001065
617 0 2 0.589700 23.580471 13.769065 3.544196
618 0 2 0.589700 24.027821 15.159881 3.146593
619 0 1 -1.179400 25.682716 17.909857 5.333117
620 0 2 0.589700 25.544355 17.134701 5.867732
621 0 2 0.589700 26.458296 17.700022 4.823990
622 0 1 -1.179400 21.371948 10.555062 9.280227
623 0 2 0.589700 22.085989 10.485909 9.900190
624 0 2 0.589700 21.735550 11.077953 8.580424
625 0 1 -1.179400 24.783285 18.649824 1.833550
626 0 2 0.589700 24.452730 18.624897 0.955084
627 0 2 0.589700 24.608484 19.545164 2.122545
628 0 1 -1.179400 23.681864 16.773144 3.813158
629 0 2 0.589700 24.397558 16.790485 4.434740
630 0 2 0.589700 23.942575 17.403856 3.155404
631 0 1 -1.179400 18.424023 4.718475 9.686978
632 0 2 0.589700 18.885111 4.668340 10.506126
633 0 2 0.589700 18.336639 3.805686 9.412416
634 0 1 -1.179400 17.695694 11.552979 0.706234
635 0 2 0.589700 17.963257 11.123530 20.229725
636 0 2 0.589700 16.861622 11.972531 0.498176
637 0 1 -1.179400 22.307520 4.759206 11.325231
638 0 2 0.589700 21.414242 4.438650 11.448721
639 0 2 0.589700 22.204096 5.570249 10.835707
640 0 1 -1.179400 25.943535 13.770778 5.252765
641 0 2 0.589700 25.500656 13.972632 4.446348
642 0 2 0.589700 26.873442 13.893595 5.065928
643 0 1 -1.179400 21.443979 6.389138 14.936266
644 0 2 0.589700 21.647141 7.141896 14.391061
645 0 2 0.589700 21.846567 5.642322 14.500225
646 0 1 -1.179400 25.802959 15.612842 0.132826
647 0 2 0.589700 25.674103 15.165400 19.633026
648 0 2 0.589700 24.921209 15.861230 0.404801