LAMMPS data file via MDAnalysis

        1296  atoms
           0  bonds
           0  angles
           0  dihedrals
           0  impropers

           2  atom types
           0  bond types
           0  angle types
           0  dihedral types
           0  improper types

0.000000 30.936565 xlo xhi
0.000000 21.325857 ylo yhi
0.000000 16.092922 zlo zhi
-9.140595 -9.080653 -13.771414 xy xz yz


Masses

1 1.008000
2 15.999000

Atoms

1 0 1 0.000000 -0.564203 -3.840960 4.617071
2 0 2 0.000000 -0.186528 -3.209380 5.213643
3 0 2 0.000000 -1.414032 -3.427674 4.368322
4 0 1 0.000000 0.406216 4.110630 1.607462
5 0 2 0.000000 -0.269253 3.550108 2.032083
6 0 2 0.000000 -0.092786 4.697669 1.058019
7 0 1 0.000000 -3.168959 -11.970702 16.120256
8 0 2 0.000000 -3.355478 -12.898887 16.043766
9 0 2 0.000000 5.779396 1.889841 1.031990
10 0 1 0.000000 -1.013687 0.002654 4.012033
11 0 2 0.000000 -1.637221 -0.737201 4.031622
12 0 2 0.000000 -0.121369 -0.350200 3.878734
13 0 1 0.000000 -2.925058 4.842392 1.736804
14 0 2 0.000000 -2.547959 5.337989 2.506372
15 0 2 0.000000 -2.342269 5.170011 1.033615
16 0 1 0.000000 3.505148 -0.006253 2.600233
17 0 2 0.000000 3.551572 0.863893 2.215253
18 0 2 0.000000 4.154464 -0.429250 2.047446
19 0 1 0.000000 2.597446 6.406123 0.925350
20 0 2 0.000000 3.326551 5.911716 1.268246
21 0 2 0.000000 2.141462 5.899773 0.263250
22 0 1 0.000000 1.463372 -1.320151 3.655781
23 0 2 0.000000 2.112994 -1.009413 3.037905
24 0 2 0.000000 1.840579 -1.765032 4.432158
25 0 1 0.000000 -3.624924 0.928146 5.358558
26 0 2 0.000000 -3.705261 0.622977 4.469199
27 0 2 0.000000 -3.536404 1.894684 5.240978
28 0 1 0.000000 3.021662 2.552956 1.555033
29 0 2 0.000000 3.700769 3.212286 1.714176
30 0 2 0.000000 2.189788 3.101503 1.424412
31 0 1 0.000000 4.875763 -2.390487 4.044205
32 0 2 0.000000 4.455172 -2.429329 4.946316
33 0 2 0.000000 4.316471 -2.662990 3.344777
34 0 1 0.000000 -1.396361 2.435462 2.822419
35 0 2 0.000000 -1.133519 1.558474 3.152166
36 0 2 0.000000 -2.042739 2.926275 3.315339
37 0 1 0.000000 -2.040973 17.477468 4.459792
38 0 2 0.000000 7.519470 -3.281492 5.123569
39 0 2 0.000000 6.411303 -3.343190 4.105637
40 0 1 0.000000 8.067505 3.370068 1.938154
41 0 2 0.000000 7.325528 2.968042 2.439793
42 0 2 0.000000 7.611432 3.873308 1.205009
43 0 1 0.000000 13.700155 1.445540 0.540696
44 0 2 0.000000 13.653297 0.490090 0.626090
45 0 2 0.000000 13.814834 1.775661 1.465680
46 0 1 0.000000 6.755169 -0.091370 4.176449
47 0 2 0.000000 6.088711 -0.731424 4.013760
48 0 2 0.000000 7.530777 -0.558463 3.973226
49 0 1 0.000000 4.694866 4.983656 1.600904
50 0 2 0.000000 5.031075 5.157789 2.523224
51 0 2 0.000000 5.386785 5.041481 0.925377
52 0 1 0.000000 11.368099 -0.039339 2.779222
53 0 2 0.000000 11.121816 0.843720 2.545148
54 0 2 0.000000 12.002514 -0.454757 2.134421
55 0 1 0.000000 9.854798 5.953283 1.158924
56 0 2 0.000000 10.763427 5.646352 1.356739
57 0 2 0.000000 9.610616 5.439538 0.371843
58 0 1 0.000000 9.277732 -1.595159 3.683663
59 0 2 0.000000 10.105086 -1.176954 3.428098
60 0 2 0.000000 9.723427 -2.148738 4.378869
61 0 1 0.000000 3.803362 0.723831 5.304286
62 0 2 0.000000 3.528147 0.357248 4.404336
63 0 2 0.000000 3.955300 1.642465 5.114544
64 0 1 0.000000 10.680869 2.269714 1.895506
65 0 2 0.000000 11.418640 2.892673 1.688187
66 0 2 0.000000 9.845247 2.758266 1.822513
67 0 1 0.000000 12.767634 -2.358981 4.156163
68 0 2 0.000000 12.105779 -2.656838 4.789225
69 0 2 0.000000 12.286207 -2.582881 3.338407
70 0 1 0.000000 5.690440 2.194941 2.880256
71 0 2 0.000000 5.958438 1.384103 3.243905
72 0 2 0.000000 5.239597 2.665427 3.598958
73 0 1 0.000000 15.367358 -3.579395 4.700080
74 0 2 0.000000 15.418395 -2.980164 5.479990
75 0 2 0.000000 14.459539 -3.438150 4.376110
76 0 1 0.000000 15.799395 3.986922 1.967322
77 0 2 0.000000 15.283323 3.385157 2.568251
78 0 2 0.000000 15.206176 4.274305 1.264746
79 0 1 0.000000 12.245132 -12.050323 16.169287
80 0 2 0.000000 21.242945 0.747726 0.176827
81 0 2 0.000000 21.267296 1.950867 1.027358
82 0 1 0.000000 14.446889 -0.297995 4.306667
83 0 2 0.000000 13.954237 -1.082777 4.077432
84 0 2 0.000000 15.354836 -0.566959 4.235375
85 0 1 0.000000 12.189910 4.488524 1.535972
86 0 2 0.000000 12.750443 4.895681 2.251365
87 0 2 0.000000 12.684350 4.638817 0.713164
88 0 1 0.000000 18.824556 0.085303 2.334715
89 0 2 0.000000 18.799681 1.065231 2.296643
90 0 2 0.000000 19.680126 -0.210786 2.022366
91 0 1 0.000000 17.983871 6.266963 1.213523
92 0 2 0.000000 18.806589 5.847058 1.493830
93 0 2 0.000000 17.730417 5.700343 0.490778
94 0 1 0.000000 16.839521 -1.426518 3.614586
95 0 2 0.000000 17.545883 -0.876926 3.218248
96 0 2 0.000000 17.281178 -1.900846 4.275660
97 0 1 0.000000 11.515250 0.710562 5.537684
98 0 2 0.000000 11.716720 0.330793 4.674578
99 0 2 0.000000 11.583524 1.667625 5.443349
100 0 1 0.000000 18.374809 2.895355 1.715406
101 0 2 0.000000 18.986814 3.638627 1.653729
102 0 2 0.000000 17.478077 3.230437 1.501462
103 0 1 0.000000 20.510733 -2.154217 4.097507
104 0 2 0.000000 19.757416 -2.323275 4.663212
105 0 2 0.000000 20.121738 -2.455014 3.192336
106 0 1 0.000000 13.859215 2.145887 3.226889
107 0 2 0.000000 14.068564 1.343872 3.693508
108 0 2 0.000000 13.239393 2.582127 3.801646
109 0 1 0.000000 22.638031 -3.678695 4.808740
110 0 2 0.000000 22.880650 -3.023446 5.443590
111 0 2 0.000000 21.815823 -3.258725 4.463105
112 0 1 0.000000 23.751408 3.567654 1.640841
113 0 2 0.000000 23.072378 3.012612 2.051492
114 0 2 0.000000 23.312340 4.137627 1.020000
115 0 1 0.000000 20.117020 -11.859698 16.048464
116 0 2 0.000000 19.919941 -12.806619 16.012827
117 0 2 0.000000 29.016684 2.141079 0.895906
118 0 1 0.000000 22.337013 0.004769 4.183998
119 0 2 0.000000 21.681370 -0.680525 4.274768
120 0 2 0.000000 23.236118 -0.335241 3.929671
121 0 1 0.000000 20.269346 5.029886 1.553519
122 0 2 0.000000 20.854130 5.166959 2.315090
123 0 2 0.000000 20.882635 4.979022 0.812797
124 0 1 0.000000 26.771563 0.078345 2.652534
125 0 2 0.000000 26.526442 0.859314 2.175750
126 0 2 0.000000 27.499613 -0.249852 2.104347
127 0 1 0.000000 25.691862 6.048739 1.176537
128 0 2 0.000000 26.546761 5.731195 1.367934
129 0 2 0.000000 25.387381 5.508030 0.499432
130 0 1 0.000000 24.843840 -1.259260 3.961989
131 0 2 0.000000 25.556721 -0.916762 3.330874
132 0 2 0.000000 25.349899 -1.998783 4.389501
133 0 1 0.000000 19.338011 0.551946 5.151423
134 0 2 0.000000 19.273769 0.256217 4.193863
135 0 2 0.000000 19.495853 1.512782 5.070226
136 0 1 0.000000 26.397955 2.572485 1.470172
137 0 2 0.000000 27.052355 3.243758 1.360635
138 0 2 0.000000 25.571077 2.995546 1.652987
139 0 1 0.000000 28.319664 -2.247132 3.982905
140 0 2 0.000000 -3.180762 -2.145746 4.731616
141 0 2 0.000000 27.773661 -2.600412 3.248831
142 0 1 0.000000 21.427149 1.929700 2.689495
143 0 2 0.000000 21.773060 1.163298 3.126186
144 0 2 0.000000 21.036684 2.509349 3.369297
145 0 1 0.000000 -3.104574 3.478429 4.666159
146 0 2 0.000000 -3.116833 4.150852 5.387748
147 0 2 0.000000 -3.671008 3.858599 3.993465
148 0 1 0.000000 -2.732391 10.917408 1.880509
149 0 2 0.000000 -3.433137 10.426034 2.357425
150 0 2 0.000000 -3.180686 11.441873 1.173126
151 0 1 0.000000 2.996570 9.031473 0.542342
152 0 2 0.000000 2.862672 8.083450 0.413348
153 0 2 0.000000 3.022838 9.223706 1.468655
154 0 1 0.000000 -4.254372 6.968241 4.231363
155 0 2 0.000000 -4.654350 6.133204 3.920276
156 0 2 0.000000 -3.269899 6.795998 4.284648
157 0 1 0.000000 -5.996812 11.718503 1.582065
158 0 2 0.000000 -5.523448 11.747801 2.382415
159 0 2 0.000000 -5.417486 11.892117 0.798398
160 0 1 0.000000 0.434765 7.288615 2.579889
161 0 2 0.000000 0.316718 8.241517 2.267333
162 0 2 0.000000 1.221762 6.955286 2.084871
163 0 1 0.000000 -0.740952 13.412716 0.789348
164 0 2 0.000000 0.095750 13.211092 1.246341
165 0 2 0.000000 -9.883443 -0.946200 16.107958
166 0 1 0.000000 -1.511853 5.847914 3.791894
167 0 2 0.000000 -0.709388 6.105886 3.297672
168 0 2 0.000000 -1.217935 5.272425 4.452444
169 0 1 0.000000 -6.945234 8.192280 5.353797
170 0 2 0.000000 -6.861560 7.720609 4.514828
171 0 2 0.000000 -6.996788 9.144763 5.169005
172 0 1 0.000000 -0.127566 9.848505 1.717490
173 0 2 0.000000 0.557001 10.560308 1.605212
174 0 2 0.000000 -0.966735 10.254430 1.694581
175 0 1 0.000000 1.935510 4.649847 3.915744
176 0 2 0.000000 1.285200 4.714745 4.648303
177 0 2 0.000000 1.297086 4.451384 3.180234
178 0 1 0.000000 -4.747931 9.479765 3.020656
179 0 2 0.000000 -4.592208 8.663071 3.450017
180 0 2 0.000000 -5.389851 10.005299 3.528440
181 0 1 0.000000 4.104955 3.388235 4.687825
182 0 2 0.000000 4.199770 3.871343 5.503468
183 0 2 0.000000 3.259389 3.748129 4.340216
184 0 1 0.000000 5.092310 10.808819 2.118878
185 0 2 0.000000 4.477777 10.135291 2.521802
186 0 2 0.000000 4.711605 11.273718 1.377472
187 0 1 0.000000 10.391645 8.792460 0.380130
188 0 2 0.000000 10.117374 7.858298 0.458600
189 0 2 0.000000 10.206606 9.097286 1.257530
190 0 1 0.000000 3.701234 6.834370 4.090241
191 0 2 0.000000 3.019819 6.137532 4.094035
192 0 2 0.000000 4.569078 6.442455 4.180139
193 0 1 0.000000 1.677060 12.205561 1.619123
194 0 2 0.000000 2.155782 12.155315 2.513903
195 0 2 0.000000 2.365274 12.322245 0.965137
196 0 1 0.000000 8.093154 7.263897 2.898165
197 0 2 0.000000 8.049144 8.177449 2.715395
198 0 2 0.000000 8.850967 6.853423 2.381739
199 0 1 0.000000 7.168437 13.199615 0.805424
200 0 2 0.000000 7.939101 12.904498 1.301727
201 0 2 0.000000 -2.093102 -1.275365 16.217943
202 0 1 0.000000 6.170897 5.445546 3.956985
203 0 2 0.000000 6.868228 6.016666 3.688456
204 0 2 0.000000 6.590558 4.832554 4.595883
205 0 1 0.000000 1.072472 8.088201 5.488799
206 0 2 0.000000 1.046027 7.695056 4.626757
207 0 2 0.000000 0.942359 9.077585 5.363664
208 0 1 0.000000 7.686954 9.611806 1.553729
209 0 2 0.000000 8.330941 10.277002 1.706331
210 0 2 0.000000 6.810012 10.042515 1.631289
211 0 1 0.000000 9.638575 4.720384 4.076937
212 0 2 0.000000 8.922664 4.372110 4.577380
213 0 2 0.000000 9.212926 4.834865 3.211749
214 0 1 0.000000 2.953700 9.265313 3.098120
215 0 2 0.000000 3.296394 8.369063 3.340272
216 0 2 0.000000 2.204980 9.601830 3.603294
217 0 1 0.000000 11.940200 3.327295 4.549876
218 0 2 0.000000 12.124042 3.845254 5.381466
219 0 2 0.000000 11.113202 3.634525 4.163336
220 0 1 0.000000 12.666021 11.144840 1.982227
221 0 2 0.000000 11.832467 10.987698 2.434177
222 0 2 0.000000 12.400846 11.654502 1.200004
223 0 1 0.000000 18.212132 8.882899 0.227289
224 0 2 0.000000 18.176985 7.933354 0.281148
225 0 2 0.000000 18.181715 9.157494 1.172559
226 0 1 0.000000 11.225104 7.083974 4.261650
227 0 2 0.000000 10.574921 6.358253 4.320038
228 0 2 0.000000 12.105251 6.706992 4.175940
229 0 1 0.000000 9.393521 11.855102 1.733465
230 0 2 0.000000 9.818951 12.045485 2.586706
231 0 2 0.000000 10.033677 12.197728 1.097342
232 0 1 0.000000 15.619020 7.439433 2.626108
233 0 2 0.000000 15.668240 8.389136 2.395727
234 0 2 0.000000 16.395712 7.032290 2.137924
235 0 1 0.000000 14.711329 13.255530 1.067766
236 0 2 0.000000 15.521698 13.086488 1.542841
237 0 2 0.000000 14.718546 12.679867 0.272336
238 0 1 0.000000 13.556280 5.761614 3.477827
239 0 2 0.000000 14.306396 6.302989 3.122395
240 0 2 0.000000 13.940817 5.191325 4.130025
241 0 1 0.000000 8.534141 7.504420 5.683978
242 0 2 0.000000 8.687532 7.393608 4.742980
243 0 2 0.000000 8.395381 8.451571 5.731742
244 0 1 0.000000 15.163998 9.763792 1.471365
245 0 2 0.000000 15.876060 10.395368 1.618788
246 0 2 0.000000 14.344843 10.242430 1.593506
247 0 1 0.000000 17.306429 5.072616 4.037860
248 0 2 0.000000 16.797535 4.690544 4.766313
249 0 2 0.000000 16.790445 4.880868 3.226480
250 0 1 0.000000 10.733370 9.582088 3.199812
251 0 2 0.000000 10.825872 8.647576 3.455611
252 0 2 0.000000 9.944479 9.898773 3.764076
253 0 1 0.000000 19.377884 3.211884 4.632444
254 0 2 0.000000 19.413599 4.003626 5.113242
255 0 2 0.000000 18.743435 3.270204 3.918805
256 0 1 0.000000 20.656521 11.104783 1.999759
257 0 2 0.000000 19.888987 10.777722 2.520809
258 0 2 0.000000 20.383610 11.765482 1.383048
259 0 1 0.000000 16.772572 -5.091499 16.208387
260 0 2 0.000000 16.697039 -6.087782 16.232815
261 0 2 0.000000 25.782722 8.928843 1.063492
262 0 1 0.000000 19.015421 7.042942 4.036224
263 0 2 0.000000 18.239796 6.422552 4.094153
264 0 2 0.000000 19.830667 6.555553 3.831669
265 0 1 0.000000 17.063389 11.823374 1.742545
266 0 2 0.000000 17.479540 12.117671 2.546775
267 0 2 0.000000 17.708979 12.037416 1.025422
268 0 1 0.000000 23.577206 7.210726 2.708943
269 0 2 0.000000 23.234819 7.975665 2.282490
270 0 2 0.000000 24.272276 6.909321 2.094931
271 0 1 0.000000 22.657949 13.095483 1.281720
272 0 2 0.000000 23.445623 12.720144 1.609998
273 0 2 0.000000 22.494642 12.608581 0.501599
274 0 1 0.000000 21.662725 5.814063 3.735079
275 0 2 0.000000 22.418161 6.257896 3.389201
276 0 2 0.000000 21.917658 5.393009 4.568882
277 0 1 0.000000 16.083649 7.788094 5.298563
278 0 2 0.000000 16.001736 7.501746 4.368894
279 0 2 0.000000 16.490627 8.695137 5.285854
280 0 1 0.000000 22.829639 9.692767 1.499542
281 0 2 0.000000 23.629332 10.248442 1.335050
282 0 2 0.000000 22.022268 10.230934 1.590272
283 0 1 0.000000 25.249878 4.717866 4.065137
284 0 2 0.000000 24.603577 4.940457 4.747402
285 0 2 0.000000 24.837961 4.701459 3.186604
286 0 1 0.000000 18.392050 9.532653 2.882619
287 0 2 0.000000 18.657969 8.705174 3.321537
288 0 2 0.000000 17.713034 9.874519 3.463186
289 0 1 0.000000 -6.506784 10.669349 4.774938
290 0 2 0.000000 -6.006900 11.160284 5.437121
291 0 2 0.000000 -7.043360 11.334128 4.379205
292 0 1 0.000000 -5.486592 18.181826 1.911318
293 0 2 0.000000 -6.024279 17.483984 2.354459
294 0 2 0.000000 -6.049245 18.607948 1.250989
295 0 1 0.000000 -0.338913 16.013355 0.346702
296 0 2 0.000000 -0.367669 15.061556 0.201284
297 0 2 0.000000 -0.315859 15.995706 1.307263
298 0 1 0.000000 -6.859690 14.235701 4.439293
299 0 2 0.000000 -7.612837 13.586966 4.446939
300 0 2 0.000000 -6.025277 13.791755 4.314710
301 0 1 0.000000 -9.120705 19.135315 1.666854
302 0 2 0.000000 0.376369 -1.828018 2.489775
303 0 2 0.000000 -8.444441 19.126057 1.006339
304 0 1 0.000000 -2.748893 14.506086 2.675343
305 0 2 0.000000 -3.224926 15.251569 2.342601
306 0 2 0.000000 -1.967901 14.265888 2.136853
307 0 1 0.000000 -3.731395 20.484625 0.938078
308 0 2 0.000000 -2.839258 20.101984 1.224652
309 0 2 0.000000 -4.148715 19.794893 0.380015
310 0 1 0.000000 -4.691247 12.618773 3.913353
311 0 2 0.000000 -3.968871 13.095138 3.515745
312 0 2 0.000000 -4.315774 12.093451 4.631913
313 0 1 0.000000 -9.812748 14.966972 5.408187
314 0 2 0.000000 -9.906295 14.542636 4.536893
315 0 2 0.000000 -9.694884 15.895720 5.273221
316 0 1 0.000000 -3.286077 16.744820 1.043734
317 0 2 0.000000 -2.569235 17.312584 1.404581
318 0 2 0.000000 -4.098732 17.234558 1.036623
319 0 1 0.000000 -1.028160 11.686531 4.069959
320 0 2 0.000000 -1.660896 11.500821 4.791567
321 0 2 0.000000 -1.495933 11.511395 3.247015
322 0 1 0.000000 -7.390179 16.518499 3.296699
323 0 2 0.000000 -7.402940 15.713068 3.800112
324 0 2 0.000000 -8.165318 16.985180 3.603070
325 0 1 0.000000 1.235786 10.686981 4.862098
326 0 2 0.000000 1.417521 11.354106 5.546802
327 0 2 0.000000 0.518967 11.064255 4.310460
328 0 1 0.000000 1.815905 17.814377 1.972992
329 0 2 0.000000 1.124805 17.363688 2.553744
330 0 2 0.000000 1.435473 18.211195 1.187376
331 0 1 0.000000 -1.576886 1.979423 16.177752
332 0 2 0.000000 7.220521 14.823579 0.160093
333 0 2 0.000000 7.569124 16.038271 1.069665
334 0 1 0.000000 0.612484 13.889150 4.258007
335 0 2 0.000000 0.077408 13.061390 4.226436
336 0 2 0.000000 1.576445 13.630713 4.193475
337 0 1 0.000000 -1.348966 18.938574 1.534495
338 0 2 0.000000 -0.850305 19.131144 2.307632
339 0 2 0.000000 -0.668957 18.783598 0.854256
340 0 1 0.000000 5.201064 14.532935 2.692449
341 0 2 0.000000 4.874029 15.279288 2.214294
342 0 2 0.000000 5.785235 14.015913 2.097570
343 0 1 0.000000 4.254162 20.107523 1.014132
344 0 2 0.000000 5.178101 19.795197 0.997231
345 0 2 0.000000 3.802279 19.679289 0.283831
346 0 1 0.000000 3.202493 12.737025 3.749762
347 0 2 0.000000 3.954499 13.222081 3.260715
348 0 2 0.000000 3.597717 12.268134 4.471942
349 0 1 0.000000 -2.299294 15.081330 5.386900
350 0 2 0.000000 -2.602904 14.612420 4.600639
351 0 2 0.000000 -2.104731 15.968903 5.118342
352 0 1 0.000000 4.311233 16.862852 1.271103
353 0 2 0.000000 4.859261 17.693819 1.373948
354 0 2 0.000000 3.376138 17.074427 1.450633
355 0 1 0.000000 6.370400 11.971657 4.281578
356 0 2 0.000000 5.775732 11.749135 4.990653
357 0 2 0.000000 5.987868 11.643397 3.444363
358 0 1 0.000000 -0.065954 16.253311 3.146215
359 0 2 0.000000 0.252055 15.444742 3.652460
360 0 2 0.000000 -0.772776 16.696400 3.739604
361 0 1 0.000000 8.660748 10.245408 5.002464
362 0 2 0.000000 8.968670 10.946653 5.643307
363 0 2 0.000000 7.905169 10.688212 4.612823
364 0 1 0.000000 10.144838 18.004162 2.145063
365 0 2 0.000000 9.441650 17.353809 2.387195
366 0 2 0.000000 9.786879 18.617046 1.489277
367 0 1 0.000000 15.164419 15.924139 0.398666
368 0 2 0.000000 14.893404 14.972747 0.418150
369 0 2 0.000000 15.130909 16.220634 1.320705
370 0 1 0.000000 8.246140 14.110570 4.425848
371 0 2 0.000000 7.648787 13.396753 4.333371
372 0 2 0.000000 9.089606 13.700543 4.271703
373 0 1 0.000000 6.260497 18.611921 1.673005
374 0 2 0.000000 6.565728 19.064484 2.463111
375 0 2 0.000000 6.960375 18.838877 1.034025
376 0 1 0.000000 12.633094 14.302032 2.735513
377 0 2 0.000000 12.525961 15.189642 2.255439
378 0 2 0.000000 13.291999 13.832530 2.258218
379 0 1 0.000000 12.045969 20.350079 1.041845
380 0 2 0.000000 12.879398 20.077370 1.502277
381 0 2 0.000000 11.863702 19.694778 0.340100
382 0 1 0.000000 10.616923 12.667544 4.076183
383 0 2 0.000000 11.152733 13.314839 3.626876
384 0 2 0.000000 11.083200 12.272368 4.874115
385 0 1 0.000000 5.724614 15.178898 5.234852
386 0 2 0.000000 5.607944 15.005114 4.278988
387 0 2 0.000000 5.762326 16.151310 5.214474
388 0 1 0.000000 12.458656 16.662249 1.647870
389 0 2 0.000000 13.089664 17.393711 1.771748
390 0 2 0.000000 11.641766 17.176874 1.783871
391 0 1 0.000000 14.319835 11.684978 4.058291
392 0 2 0.000000 13.747064 11.497749 4.807670
393 0 2 0.000000 13.747094 11.497601 3.316546
394 0 1 0.000000 7.930115 16.459835 2.866590
395 0 2 0.000000 7.964928 15.630100 3.327257
396 0 2 0.000000 7.367306 17.064978 3.396174
397 0 1 0.000000 16.612511 10.297873 4.701239
398 0 2 0.000000 16.858114 11.079485 5.192791
399 0 2 0.000000 15.744012 10.460696 4.351159
400 0 1 0.000000 17.852150 17.908003 2.073077
401 0 2 0.000000 17.074652 17.438240 2.417328
402 0 2 0.000000 17.577658 18.366255 1.258613
403 0 1 0.000000 23.044617 15.638623 0.570487
404 0 2 0.000000 22.916483 14.655122 0.706073
405 0 2 0.000000 22.944628 16.066553 1.426193
406 0 1 0.000000 15.847779 13.850298 4.152928
407 0 2 0.000000 15.226897 13.056881 4.165948
408 0 2 0.000000 16.665577 13.539029 3.852709
409 0 1 0.000000 14.377219 18.956337 1.890918
410 0 2 0.000000 14.829198 19.083948 2.712687
411 0 2 0.000000 15.097110 19.154779 1.268291
412 0 1 0.000000 20.543507 14.324406 2.735705
413 0 2 0.000000 20.397991 15.307786 2.568142
414 0 2 0.000000 21.359636 14.079811 2.307491
415 0 1 0.000000 28.716976 -0.615514 0.872033
416 0 2 0.000000 20.429857 20.329895 1.064105
417 0 2 0.000000 19.187565 20.047579 0.324461
418 0 1 0.000000 18.506163 12.827074 3.801614
419 0 2 0.000000 19.153570 13.333339 3.294460
420 0 2 0.000000 19.072546 12.175757 4.259832
421 0 1 0.000000 12.828321 14.948693 5.251159
422 0 2 0.000000 12.889865 14.591375 4.323811
423 0 2 0.000000 12.794273 15.883848 5.170001
424 0 1 0.000000 20.317524 16.914476 1.907164
425 0 2 0.000000 20.831198 17.769127 1.812755
426 0 2 0.000000 19.427305 17.170040 1.796352
427 0 1 0.000000 -8.811137 12.199014 4.153083
428 0 2 0.000000 21.534040 11.760906 4.770008
429 0 2 0.000000 21.722935 12.135201 3.314090
430 0 1 0.000000 15.633141 16.413538 3.156008
431 0 2 0.000000 15.613268 15.530878 3.517064
432 0 2 0.000000 14.911016 16.886206 3.578478
433 0 1 0.000000 -12.652937 12.795012 9.966169
434 0 2 0.000000 -3.235168 -8.000238 10.693000
435 0 2 0.000000 -4.212265 -7.983638 9.610888
436 0 1 0.000000 -2.327079 -0.923251 6.905668
437 0 2 0.000000 -2.975909 -1.472281 7.488175
438 0 2 0.000000 -2.890859 -0.265757 6.485801
439 0 1 0.000000 2.593825 -2.637520 5.644811
440 0 2 0.000000 2.721720 -3.561236 5.763295
441 0 2 0.000000 2.777887 -2.345115 6.565863
442 0 1 0.000000 -4.067388 -4.690195 9.619696
443 0 2 0.000000 -4.722145 -5.456460 9.551570
444 0 2 0.000000 -3.196528 -5.037278 9.309581
445 0 1 0.000000 24.820114 0.217185 6.646992
446 0 2 0.000000 -5.563603 0.480886 7.401767
447 0 2 0.000000 25.340731 0.139111 5.876291
448 0 1 0.000000 0.645095 -4.294182 8.363380
449 0 2 0.000000 0.443668 -3.635683 7.703299
450 0 2 0.000000 1.533223 -4.596122 8.074647
451 0 1 0.000000 -0.669574 1.661849 6.191837
452 0 2 0.000000 0.123707 1.133368 6.425221
453 0 2 0.000000 -1.079020 1.208079 5.476003
454 0 1 0.000000 -1.613282 -5.895507 8.985044
455 0 2 0.000000 -0.843260 -5.480526 8.539023
456 0 2 0.000000 -1.198382 -6.326562 9.809546
457 0 1 0.000000 -6.886553 -3.652888 10.836700
458 0 2 0.000000 -6.796636 -3.964958 9.930174
459 0 2 0.000000 -6.776037 -2.721761 10.784383
460 0 1 0.000000 0.008865 -2.308559 6.842424
461 0 2 0.000000 0.691289 -1.637508 6.801049
462 0 2 0.000000 -0.814183 -1.789341 6.895988
463 0 1 0.000000 1.816097 -6.941061 9.394448
464 0 2 0.000000 1.027606 -7.036452 9.961243
465 0 2 0.000000 -7.656195 14.081167 8.498347
466 0 1 0.000000 -4.374076 -2.099896 8.546336
467 0 2 0.000000 -4.299508 -3.024587 8.905430
468 0 2 0.000000 -5.180556 -1.714569 8.942017
469 0 1 0.000000 4.073720 -8.284604 10.157142
470 0 2 0.000000 4.227461 -7.817871 10.983249
471 0 2 0.000000 3.180103 -8.057487 9.895163
472 0 1 0.000000 5.019951 -0.911060 7.164647
473 0 2 0.000000 4.321545 -1.336657 7.642540
474 0 2 0.000000 4.557982 -0.313223 6.542214
475 0 1 0.000000 10.552927 -2.986682 5.685670
476 0 2 0.000000 10.410199 -3.934786 5.657092
477 0 2 0.000000 10.641973 -2.813048 6.585932
478 0 1 0.000000 3.698599 -4.958475 9.592373
479 0 2 0.000000 3.183689 -5.764085 9.754346
480 0 2 0.000000 4.640259 -5.178479 9.764919
481 0 1 0.000000 1.608648 0.183961 6.957964
482 0 2 0.000000 2.097196 0.259978 7.795008
483 0 2 0.000000 2.292847 0.396102 6.312230
484 0 1 0.000000 7.995838 -4.671829 7.899265
485 0 2 0.000000 7.809731 -3.789070 7.561509
486 0 2 0.000000 8.704365 -4.978628 7.243693
487 0 1 0.000000 7.155287 1.040350 6.744283
488 0 2 0.000000 7.964687 0.698363 7.141572
489 0 2 0.000000 6.920472 0.639345 5.883212
490 0 1 0.000000 6.269949 -5.791266 9.499149
491 0 2 0.000000 6.899812 -5.484164 8.856387
492 0 2 0.000000 6.654275 -6.372001 10.194214
493 0 1 0.000000 0.967628 -3.764422 10.967942
494 0 2 0.000000 0.557643 -4.236750 10.261138
495 0 2 0.000000 1.147070 -2.912066 10.608559
496 0 1 0.000000 7.407216 -2.293779 6.739652
497 0 2 0.000000 8.129681 -1.661435 6.872975
498 0 2 0.000000 6.581126 -1.839107 6.894363
499 0 1 0.000000 9.618546 -6.770144 9.493587
500 0 2 0.000000 8.955486 -7.011839 10.179967
501 0 2 0.000000 9.097212 -7.007050 8.694124
502 0 1 0.000000 3.089369 -2.371469 8.471072
503 0 2 0.000000 3.100385 -3.271271 8.715546
504 0 2 0.000000 2.458308 -1.908372 9.045797
505 0 1 0.000000 11.946814 -7.963444 10.011827
506 0 2 0.000000 12.289014 -7.467026 10.764412
507 0 2 0.000000 11.212175 -7.489341 9.695767
508 0 1 0.000000 12.858908 -1.007283 7.318334
509 0 2 0.000000 12.198789 -1.553035 7.734954
510 0 2 0.000000 12.538115 -0.530897 6.564581
511 0 1 0.000000 18.286499 -2.808295 5.633644
512 0 2 0.000000 18.282393 -3.809959 5.761328
513 0 2 0.000000 18.292513 -2.480364 6.559438
514 0 1 0.000000 11.614342 -4.948197 9.737067
515 0 2 0.000000 10.812067 -5.498215 9.573773
516 0 2 0.000000 12.388043 -5.314026 9.337139
517 0 1 0.000000 9.402735 -0.299455 7.135598
518 0 2 0.000000 9.949296 -0.087917 7.910850
519 0 2 0.000000 9.990821 0.002161 6.402358
520 0 1 0.000000 16.211924 -4.322908 7.842033
521 0 2 0.000000 16.112728 -3.426934 7.588712
522 0 2 0.000000 17.002188 -4.633327 7.332696
523 0 1 0.000000 14.567575 1.395326 6.669168
524 0 2 0.000000 15.472880 1.115077 6.446222
525 0 2 0.000000 14.004312 0.721856 6.346373
526 0 1 0.000000 14.150928 -6.053023 8.854807
527 0 2 0.000000 14.795324 -5.456036 8.445301
528 0 2 0.000000 14.607409 -6.449822 9.543618
529 0 1 0.000000 8.694460 -4.096107 10.575567
530 0 2 0.000000 8.559654 -4.229511 9.613394
531 0 2 0.000000 8.441179 -3.160510 10.707418
532 0 1 0.000000 15.566035 -1.619552 6.897664
533 0 2 0.000000 16.202948 -0.854313 6.773488
534 0 2 0.000000 14.623468 -1.435550 7.142497
535 0 1 0.000000 17.440331 -6.595786 9.301458
536 0 2 0.000000 16.945709 -6.860282 10.094167
537 0 2 0.000000 16.808571 -6.624753 8.560882
538 0 1 0.000000 10.946364 -2.593478 8.523541
539 0 2 0.000000 11.274690 -3.424358 8.903264
540 0 2 0.000000 10.578976 -2.089713 9.210595
541 0 1 0.000000 19.652691 -8.263033 10.113749
542 0 2 0.000000 19.985683 -7.559335 10.686014
543 0 2 0.000000 19.018255 -7.854940 9.550422
544 0 1 0.000000 20.836437 -0.705904 7.003992
545 0 2 0.000000 20.194860 -1.330054 7.462785
546 0 2 0.000000 20.293283 -0.266672 6.337933
547 0 1 0.000000 26.268978 -2.918666 5.711805
548 0 2 0.000000 26.087648 -3.868571 5.674400
549 0 2 0.000000 -4.793833 -2.569869 6.592918
550 0 1 0.000000 19.273767 -4.302577 9.350316
551 0 2 0.000000 18.640175 -5.023685 9.442307
552 0 2 0.000000 20.160046 -4.799132 9.254434
553 0 1 0.000000 17.096304 0.646937 6.567398
554 0 2 0.000000 17.554621 1.004567 7.329914
555 0 2 0.000000 17.778471 0.544504 5.905136
556 0 1 0.000000 23.739523 -4.405328 8.098803
557 0 2 0.000000 23.422331 -3.681502 7.496419
558 0 2 0.000000 24.323437 -4.918791 7.468447
559 0 1 0.000000 22.668085 1.929077 6.310089
560 0 2 0.000000 23.411976 1.556059 6.798058
561 0 2 0.000000 22.571146 1.282040 5.617895
562 0 1 0.000000 21.622921 -5.896874 9.015822
563 0 2 0.000000 22.372553 -5.396739 8.649829
564 0 2 0.000000 22.030655 -6.366587 9.708611
565 0 1 0.000000 16.574213 -3.958972 10.743433
566 0 2 0.000000 16.577169 -4.192354 9.801601
567 0 2 0.000000 16.745770 -2.977442 10.751845
568 0 1 0.000000 23.110725 -1.992102 6.764495
569 0 2 0.000000 23.770000 -1.303775 6.760492
570 0 2 0.000000 22.297747 -1.525450 6.764284
571 0 1 0.000000 25.228937 -6.884480 9.358093
572 0 2 0.000000 24.536455 -6.966823 10.021859
573 0 2 0.000000 24.753254 -7.048506 8.518770
574 0 1 0.000000 18.672384 -1.937652 8.211411
575 0 2 0.000000 18.768660 -2.717062 8.789433
576 0 2 0.000000 18.191570 -1.256667 8.624921
577 0 1 0.000000 -6.518073 -1.186532 9.765100
578 0 2 0.000000 -6.313135 -0.695589 10.597414
579 0 2 0.000000 -7.282539 -0.676910 9.420290
580 0 1 0.000000 -5.844113 6.322909 7.343046
581 0 2 0.000000 -6.590481 5.878425 7.808630
582 0 2 0.000000 -6.260904 7.047895 6.894482
583 0 1 0.000000 -0.060094 4.381979 5.777865
584 0 2 0.000000 -0.254682 3.469626 5.569883
585 0 2 0.000000 -0.385063 4.567819 6.668768
586 0 1 0.000000 -6.957200 2.571436 9.180919
587 0 2 0.000000 -7.629014 1.838889 9.164032
588 0 2 0.000000 -6.107752 2.161073 9.023792
589 0 1 0.000000 -9.142734 7.592714 6.731891
590 0 2 0.000000 -8.733576 7.594419 7.606481
591 0 2 0.000000 -8.463174 7.800541 6.094216
592 0 1 0.000000 -2.563022 2.717163 7.878825
593 0 2 0.000000 -2.776758 3.614715 7.645334
594 0 2 0.000000 -1.792205 2.381265 7.345508
595 0 1 0.000000 -3.934331 8.667065 6.545087
596 0 2 0.000000 -3.037675 8.368668 6.666888
597 0 2 0.000000 -4.380260 8.014659 5.991391
598 0 1 0.000000 -4.633118 1.012769 8.971455
599 0 2 0.000000 -3.995404 1.542811 8.475041
600 0 2 0.000000 -4.138141 0.543427 9.634036
601 0 1 0.000000 -9.829264 3.368797 10.374471
602 0 2 0.000000 20.894754 3.283864 9.429899
603 0 2 0.000000 -9.735667 4.349939 10.480609
604 0 1 0.000000 -3.223152 5.155517 6.780290
605 0 2 0.000000 -2.448661 5.737262 6.932113
606 0 2 0.000000 -4.041799 5.645721 6.960579
607 0 1 0.000000 -1.095132 0.312300 9.209687
608 0 2 0.000000 -1.904307 0.374625 9.797648
609 0 2 0.000000 -1.559530 0.137377 8.349870
610 0 1 0.000000 -7.865424 4.999720 8.374999
611 0 2 0.000000 -7.548295 4.145723 8.710773
612 0 2 0.000000 -8.567528 5.323184 8.950044
613 0 1 0.000000 1.194518 -1.201279 10.028149
614 0 2 0.000000 1.649184 -0.561852 10.619239
615 0 2 0.000000 0.314038 -0.841296 9.918420
616 0 1 0.000000 2.111328 6.300075 7.366347
617 0 2 0.000000 1.375440 5.984874 7.839657
618 0 2 0.000000 1.783684 6.753916 6.571987
619 0 1 0.000000 7.547031 3.857448 5.707682
620 0 2 0.000000 7.525981 2.921365 5.824452
621 0 2 0.000000 7.761520 4.181151 6.554947
622 0 1 0.000000 0.745941 2.407603 9.467721
623 0 2 0.000000 0.056173 1.726694 9.461496
624 0 2 0.000000 1.648128 2.069288 9.457052
625 0 1 0.000000 -1.400326 7.277993 6.870535
626 0 2 0.000000 -0.993139 7.737025 7.633480
627 0 2 0.000000 -0.698171 7.243383 6.214992
628 0 1 0.000000 5.150045 2.528892 8.131257
629 0 2 0.000000 4.999046 3.338135 7.672882
630 0 2 0.000000 5.755048 2.028868 7.580859
631 0 1 0.000000 3.899208 8.717074 6.420206
632 0 2 0.000000 4.798524 8.384104 6.634369
633 0 2 0.000000 3.612000 8.040344 5.851254
634 0 1 0.000000 3.060639 0.924250 9.155061
635 0 2 0.000000 3.681040 1.540671 8.714233
636 0 2 0.000000 3.575102 0.429018 9.735970
637 0 1 0.000000 -2.089636 3.037186 10.383226
638 0 2 0.000000 -2.185637 2.705398 9.401202
639 0 2 0.000000 -1.853539 3.944096 10.385798
640 0 1 0.000000 4.232790 4.810658 6.965454
641 0 2 0.000000 4.894895 5.522649 6.984246
642 0 2 0.000000 3.343378 5.182773 7.204989
643 0 1 0.000000 6.679168 0.094408 9.413721
644 0 2 0.000000 6.147982 -0.173698 10.206854
645 0 2 0.000000 6.195592 -0.227226 8.628037
646 0 1 0.000000 -0.130912 4.723371 8.234552
647 0 2 0.000000 0.205531 3.884161 8.527657
648 0 2 0.000000 -0.833227 5.020536 8.842903
649 0 1 0.000000 8.827372 -1.412702 10.417555
650 0 2 0.000000 9.048207 -0.771905 11.085857
651 0 2 0.000000 8.047791 -1.139343 10.000162
652 0 1 0.000000 9.827623 5.810511 7.457131
653 0 2 0.000000 9.131034 5.421414 7.935619
654 0 2 0.000000 9.337655 6.547973 6.924129